Title
81383
    1CHL1    C3    1   4.203   4.663   9.532  1.1592  0.3019 -0.8653
    1CHL1    H3    2   4.303   4.624   9.504  0.1008 -2.4055 -1.1636
    1CHL1    O3    3   4.217   4.709   9.665  0.0714  0.1498 -0.5344
    1CHL1   H3'    4   4.197   4.633   9.721  0.3257 -0.4025 -1.1673
    1CHL1    C4    5   4.161   4.774   9.436 -0.1745 -0.2553  0.1792
    1CHL1   H4A    6   4.066   4.814   9.475 -0.5113 -0.3763 -0.4998
    1CHL1   H4B    7   4.233   4.857   9.451 -1.1875  0.3235  2.1117
    1CHL1    C5    8   4.144   4.720   9.294  0.8988 -0.1147 -0.6219
    1CHL1    C6    9   4.198   4.784   9.192 -0.5099  0.4739  0.5368
    1CHL1    H6   10   4.256   4.878   9.200 -1.1578  1.0553 -1.1431
    1CHL1    C7   11   4.188   4.741   9.051 -0.0891 -0.3126 -0.0043
    1CHL1   H7A   12   4.152   4.826   8.989 -0.6117 -0.1693  0.4824
    1CHL1   H7B   13   4.286   4.707   9.013 -0.7335 -1.7871 -0.3954
    1CHL1    C8   14   4.077   4.632   9.027  0.3806 -0.7161 -0.4723
    1CHL1    H8   15   3.972   4.669   9.034  0.2977 -1.1877  1.3373
    1CHL1   C14   16   4.104   4.560   8.896 -0.4689 -0.1735  0.5406
    1CHL1   H14   17   4.203   4.510   8.889  0.2600  1.1024  1.2191
    1CHL1   C15   18   4.124   4.634   8.758 -0.2881 -0.3580  0.1350
    1CHL1  H15A   19   4.042   4.710   8.754 -0.5957 -0.7200 -0.5920
    1CHL1  H15B   20   4.227   4.675   8.750  0.0982 -1.1436  0.8985
    1CHL1   C16   21   4.098   4.527   8.650 -0.0248 -0.4652 -0.2316
    1CHL1  H16A   22   4.022   4.565   8.578 -1.8333 -0.2200  1.7002
    1CHL1  H16B   23   4.195   4.523   8.597  0.7776 -2.3488  1.2695
    1CHL1   C17   24   4.056   4.403   8.724  0.1404  0.0990  0.5305
    1CHL1   H17   25   4.146   4.344   8.751  0.1737  0.5616  1.4737
    1CHL1   C13   26   4.005   4.453   8.862  0.6418  0.8025 -0.2057
    1CHL1   C18   27   3.868   4.518   8.842 -0.0551 -0.4829  0.2991
    1CHL1  H18A   28   3.814   4.556   8.932 -1.1088 -0.7819 -0.1818
    1CHL1  H18B   29   3.873   4.598   8.765 -0.9527 -1.3015 -0.6358
    1CHL1  H18C   30   3.795   4.445   8.801 -1.3306  0.5985  0.5689
    1CHL1   C12   31   3.990   4.346   8.975  0.5634  0.5405  0.5680
    1CHL1  H12A   32   3.901   4.282   8.956  2.1958 -2.9036  3.3203
    1CHL1  H12B   33   4.084   4.287   8.982  0.4245  0.3726  1.0277
    1CHL1   C11   34   3.973   4.418   9.109 -0.0295 -0.2442 -0.7631
    1CHL1  H11A   35   3.869   4.457   9.108 -0.5628 -1.2744  2.5388
    1CHL1  H11B   36   3.984   4.332   9.178 -0.3365  1.4824  1.5624
    1CHL1    C9   37   4.076   4.531   9.144 -0.0184  0.1706  0.0404
    1CHL1    H9   38   4.180   4.491   9.139  0.6559  1.4817  2.3361
    1CHL1   C10   39   4.058   4.589   9.285 -0.5616 -0.3771  0.4843
    1CHL1   C19   40   3.912   4.642   9.309  0.0667  1.1153 -0.0496
    1CHL1  H19A   41   3.895   4.688   9.409  2.4924 -1.7577  1.8530
    1CHL1  H19B   42   3.887   4.710   9.224  3.4993  1.8168 -0.6326
    1CHL1  H19C   43   3.844   4.554   9.310  2.3855 -0.7967 -0.9075
    1CHL1    C1   44   4.095   4.488   9.397  0.4936  0.6513 -0.0360
    1CHL1   H1A   45   4.021   4.405   9.388 -0.1379  1.3398 -1.5774
    1CHL1   H1B   46   4.194   4.444   9.371  0.4250  1.3518 -1.6428
    1CHL1    C2   47   4.096   4.549   9.538  0.0030 -0.6709  0.4490
    1CHL1   H2A   48   4.126   4.472   9.613 -1.5736 -0.6120  1.1864
    1CHL1   H2B   49   4.004   4.594   9.582 -0.8407 -1.6130 -0.2976
    1CHL1   C20   50   3.971   4.319   8.631  0.4390 -0.2779 -0.1832
    1CHL1   H20   51   3.889   4.384   8.594  0.3658 -1.1230 -1.5730
    1CHL1   C21   52   3.906   4.187   8.694 -0.2475 -0.4348  0.6594
    1CHL1  H21A   53   3.981   4.140   8.761  0.4093  0.5424  0.6195
    1CHL1  H21B   54   3.889   4.108   8.618  0.0795 -0.6564  0.8165
    1CHL1  H21C   55   3.810   4.222   8.739  0.0978  1.6566 -0.1009
    1CHL1   C22   56   4.054   4.281   8.505  0.0399 -0.6906 -1.1061
    1CHL1  H22A   57   3.993   4.213   8.441 -1.1963  2.2556 -3.2915
    1CHL1  H22B   58   4.073   4.371   8.443  2.5066 -0.4938 -0.1483
    1CHL1   C23   59   4.190   4.215   8.526  0.6285 -0.5414  0.5287
    1CHL1  H23A   60   4.268   4.287   8.559 -0.7808  0.3324  2.1045
    1CHL1  H23B   61   4.179   4.134   8.602 -0.2993 -1.4063 -0.4910
    1CHL1   C24   62   4.252   4.150   8.396 -0.2094 -0.3313 -0.3022
    1CHL1  H24A   63   4.171   4.091   8.348 -2.8786  2.7877  0.0605
    1CHL1  H24B   64   4.277   4.229   8.322 -0.0976  1.2273  1.3593
    1CHL1   C25   65   4.387   4.077   8.424  0.3840  0.5448  0.7280
    1CHL1   H25   66   4.451   4.161   8.458 -1.7412  2.1973  0.8495
    1CHL1   C26   67   4.381   3.959   8.521  0.0214 -0.1538  0.0555
    1CHL1  H26A   68   4.478   3.905   8.520  0.6925  0.8194  2.9409
    1CHL1  H26B   69   4.345   3.976   8.625 -0.6746 -2.2879  0.2166
    1CHL1  H26C   70   4.306   3.886   8.483 -2.4754 -0.1963  4.3681
    1CHL1   C27   71   4.454   4.037   8.285  0.4855  0.1766  0.0693
    1CHL1  H27A   72   4.394   3.961   8.231 -0.7275  0.2125  1.3174
    1CHL1  H27B   73   4.460   4.133   8.229  1.3892 -0.8168 -1.6130
    1CHL1  H27C   74   4.554   3.995   8.307 -0.3814 -2.5584 -0.8565
    2CHL1    C3   75   0.294   2.894   9.461 -0.0765  0.1242 -0.4222
    2CHL1    H3   76   0.401   2.870   9.450 -0.3695 -1.3542 -0.2292
    2CHL1    O3   77   0.268   2.901   9.598 -0.1460 -0.0843 -0.2055
    2CHL1   H3'   78   0.328   2.962   9.641 -1.3109  1.4913 -0.7367
    2CHL1    C4   79   0.260   3.032   9.393 -0.6508  0.3288 -0.0271
    2CHL1   H4A   80   0.165   3.071   9.435 -1.1344  0.1359 -0.9382
    2CHL1   H4B   81   0.340   3.104   9.421  0.2167 -0.6329  0.0477
    2CHL1    C5   82   0.261   3.004   9.246 -0.5386  0.3083 -0.1269
    2CHL1    C6   83   0.344   3.078   9.164  0.4263  0.4431 -0.6412
    2CHL1    H6   84   0.415   3.154   9.199  1.6700 -0.4932 -1.0493
    2CHL1    C7   85   0.352   3.062   9.017 -0.1453 -0.0257 -0.3200
    2CHL1   H7A   86   0.372   3.161   8.971  1.3668 -0.2425 -0.1702
    2CHL1   H7B   87   0.433   2.990   8.994 -1.2753 -1.7924  0.9560
    2CHL1    C8   88   0.221   3.006   8.959 -0.0967 -0.0872  0.2119
    2CHL1    H8   89   0.133   3.071   8.974  1.1448  1.5941  0.4593
    2CHL1   C14   90   0.244   2.980   8.806  0.2248  0.6217 -0.6861
    2CHL1   H14   91   0.335   2.918   8.796  0.8953  0.8382  2.9765
    2CHL1   C15   92   0.272   3.109   8.714  0.5571  1.2998 -0.0919
    2CHL1  H15A   93   0.203   3.192   8.740 -0.4344  0.8521 -1.2422
    2CHL1  H15B   94   0.382   3.127   8.726  0.6304  0.1659  1.1559
    2CHL1   C16   95   0.235   3.055   8.579 -0.0729 -0.0863 -0.3125
    2CHL1  H16A   96   0.154   3.120   8.541  0.0931 -0.3099 -1.0635
    2CHL1  H16B   97   0.320   3.072   8.510 -0.3912  3.1779 -0.0494
    2CHL1   C17   98   0.183   2.907   8.593 -0.0189 -0.0120 -0.7301
    2CHL1   H17   99   0.281   2.855   8.592  0.8516  1.2904  2.7049
    2CHL1   C13  100   0.132   2.902   8.738  0.1125  0.3404  0.3589
    2CHL1   C18  101  -0.003   2.986   8.747 -0.8345  0.1638  0.3457
    2CHL1  H18A  102  -0.035   3.006   8.852 -0.6538  1.6588  0.1428
    2CHL1  H18B  103   0.000   3.084   8.694 -0.7308  1.1471  2.0973
    2CHL1  H18C  104  -0.079   2.926   8.693 -1.4827  0.8911  0.4221
    2CHL1   C12  105   0.118   2.770   8.814  0.4320  0.5394 -0.1638
    2CHL1  H12A  106   0.052   2.697   8.761  0.1199  0.5038  0.2644
    2CHL1  H12B  107   0.219   2.725   8.814  1.2868  2.3647 -1.0056
    2CHL1   C11  108   0.080   2.793   8.968  0.1216  0.1639 -0.2388
    2CHL1  H11A  109  -0.024   2.830   8.980 -2.0735 -5.2340 -0.1364
    2CHL1  H11B  110   0.067   2.692   9.012 -4.0190  1.1041  1.1448
    2CHL1    C9  111   0.191   2.870   9.030  0.1471 -0.2837  0.1082
    2CHL1    H9  112   0.282   2.809   9.016 -1.1165 -2.5766  1.2235
    2CHL1   C10  113   0.164   2.899   9.182 -0.4726  0.2300 -0.4208
    2CHL1   C19  114   0.021   2.950   9.214 -0.3092  0.3111 -0.0195
    2CHL1  H19A  115   0.002   3.039   9.151  0.2530 -0.9239 -2.0341
    2CHL1  H19B  116  -0.050   2.870   9.182  0.3107  0.1987 -1.1324
    2CHL1  H19C  117  -0.000   2.973   9.321 -1.5715  0.7405 -0.3431
    2CHL1    C1  118   0.198   2.763   9.262 -0.1524  0.0290  0.0257
    2CHL1   H1A  119   0.141   2.677   9.221 -2.1614  1.5130 -0.4336
    2CHL1   H1B  120   0.303   2.738   9.233 -0.0503 -1.0943  1.2707
    2CHL1    C2  121   0.210   2.773   9.415 -0.0996 -0.0931  0.7965
    2CHL1   H2A  122   0.251   2.677   9.451  1.0635  0.4656  1.0231
    2CHL1   H2B  123   0.107   2.773   9.456 -0.2847 -0.3208  0.3413
    2CHL1   C20  124   0.094   2.845   8.485 -0.2410  0.0636 -0.2617
    2CHL1   H20  125   0.002   2.807   8.534 -0.0990 -0.5514 -0.4553
    2CHL1   C21  126   0.171   2.717   8.435  0.5319  0.1834 -0.1863
    2CHL1  H21A  127   0.124   2.672   8.346 -0.9915  2.3914 -0.5826
    2CHL1  H21B  128   0.177   2.637   8.512 -0.8075 -0.6427 -0.9135
    2CHL1  H21C  129   0.271   2.751   8.401  0.9527 -1.2251 -0.4083
    2CHL1   C22  130   0.061   2.935   8.361 -0.2046 -0.3358 -0.2525
    2CHL1  H22A  131   0.021   3.028   8.405  0.4995  0.4264 -1.1708
    2CHL1  H22B  132   0.161   2.971   8.327 -0.3214  0.3219  0.0913
    2CHL1   C23  133  -0.020   2.875   8.245 -0.0284  0.2752 -0.0901
    2CHL1  H23A  134   0.033   2.792   8.195 -2.0148 -1.6412  0.7967
    2CHL1  H23B  135  -0.117   2.834   8.282  0.4684 -2.3341 -1.4054
    2CHL1   C24  136  -0.042   2.982   8.135 -0.4024  0.0039  0.0208
    2CHL1  H24A  137  -0.094   3.071   8.176 -1.8118 -0.6247 -0.3675
    2CHL1  H24B  138   0.061   3.012   8.105 -0.8961 -0.0140 -1.7976
    2CHL1   C25  139  -0.110   2.925   8.009  0.1210  0.7202 -0.2113
    2CHL1   H25  140  -0.061   2.832   7.975 -1.0022 -0.6467  1.7092
    2CHL1   C26  141  -0.251   2.875   8.046  0.1086  0.5970 -0.0704
    2CHL1  H26A  142  -0.259   2.796   8.124 -1.1394  0.5512 -0.2350
    2CHL1  H26B  143  -0.315   2.958   8.082  0.1166  0.1003  1.1246
    2CHL1  H26C  144  -0.293   2.834   7.951 -1.1431  0.5684  0.4805
    2CHL1   C27  145  -0.113   3.035   7.905 -0.3903  0.2759 -1.1365
    2CHL1  H27A  146  -0.183   3.112   7.944 -0.3763  0.7747 -2.0832
    2CHL1  H27B  147  -0.015   3.078   7.877 -0.7026 -0.5707 -3.9148
    2CHL1  H27C  148  -0.153   3.005   7.806 -2.1486 -1.3230 -0.0248
    3CHL1    C3  149   5.269   3.012   9.502 -0.2765 -0.1029 -0.5705
    3CHL1    H3  150   5.174   2.968   9.466 -1.1225  1.8621 -0.8748
    3CHL1    O3  151   5.306   2.963   9.631  0.5000  0.4030 -0.3140
    3CHL1   H3'  152   5.255   2.885   9.653  2.8251 -1.0892  0.1512
    3CHL1    C4  153   5.385   3.001   9.402  0.0906  0.8948 -0.0442
    3CHL1   H4A  154   5.473   3.051   9.448  0.5662 -0.7049  0.8577
    3CHL1   H4B  155   5.416   2.895   9.391  2.5621  1.3981  1.2564
    3CHL1    C5  156   5.351   3.058   9.271  0.0626 -0.4177  0.6596
    3CHL1    C6  157   5.350   2.987   9.155  0.1940 -0.1906  0.0681
    3CHL1    H6  158   5.382   2.882   9.154 -1.0859 -0.5852 -0.9478
    3CHL1    C7  159   5.324   3.050   9.019  0.4772 -0.0549  0.2899
    3CHL1   H7A  160   5.389   2.997   8.946  0.4764  0.1698  0.1269
    3CHL1   H7B  161   5.220   3.031   8.984 -1.0974  4.5518  1.8665
    3CHL1    C8  162   5.341   3.204   9.025  0.4836  0.0713  0.5925
    3CHL1    H8  163   5.450   3.224   9.030  0.3870  0.4244  1.3364
    3CHL1   C14  164   5.286   3.241   8.892 -0.2839 -0.0465  0.8270
    3CHL1   H14  165   5.182   3.202   8.884 -0.3700  0.4058 -0.3672
    3CHL1   C15  166   5.354   3.197   8.762  1.4765 -0.6328  0.5501
    3CHL1  H15A  167   5.460   3.227   8.775  1.1600  0.4281  0.7593
    3CHL1  H15B  168   5.347   3.089   8.740 -2.4802 -1.1239  3.1318
    3CHL1   C16  169   5.299   3.297   8.655 -0.7906  0.9034 -1.0751
    3CHL1  H16A  170   5.377   3.346   8.594 -1.3281  2.7576 -0.3310
    3CHL1  H16B  171   5.240   3.249   8.574 -0.8581  2.6346 -2.0961
    3CHL1   C17  172   5.212   3.397   8.733  0.2081  0.1187  0.2709
    3CHL1   H17  173   5.107   3.366   8.749  0.5841 -0.8047  1.0108
    3CHL1   C13  174   5.262   3.395   8.876  0.6869  0.1436  0.6728
    3CHL1   C18  175   5.398   3.466   8.884 -0.5226 -0.9982 -0.2820
    3CHL1  H18A  176   5.444   3.455   8.984  0.4728  0.7409 -0.5052
    3CHL1  H18B  177   5.465   3.424   8.806 -2.4175 -4.3328 -0.3238
    3CHL1  H18C  178   5.403   3.575   8.865  0.6562 -0.5167  2.3361
    3CHL1   C12  179   5.168   3.446   8.998  0.3153 -0.3266  0.6257
    3CHL1  H12A  180   5.150   3.555   8.987 -1.1346 -0.6692 -0.8294
    3CHL1  H12B  181   5.066   3.401   8.994 -0.3930  0.7439  3.7870
    3CHL1   C11  182   5.233   3.412   9.135 -0.4218  0.2679 -0.2749
    3CHL1  H11A  183   5.331   3.464   9.142  1.4419 -3.1304  1.3344
    3CHL1  H11B  184   5.163   3.439   9.217  0.4999  1.9949 -0.0145
    3CHL1    C9  185   5.264   3.257   9.142  0.3911  0.3048  0.8733
    3CHL1    H9  186   5.159   3.224   9.130  0.1976  1.6522 -2.1640
    3CHL1   C10  187   5.320   3.211   9.276  0.7071 -0.4935 -0.9077
    3CHL1   C19  188   5.449   3.283   9.306 -0.4270 -0.6401 -0.3380
    3CHL1  H19A  189   5.518   3.254   9.224 -0.6072 -0.0804 -0.6959
    3CHL1  H19B  190   5.436   3.394   9.309 -1.3484 -0.7550  0.5503
    3CHL1  H19C  191   5.489   3.258   9.407 -1.5233  1.2128  0.6267
    3CHL1    C1  192   5.208   3.229   9.384 -0.4022  0.4321 -0.1339
    3CHL1   H1A  193   5.212   3.339   9.400  1.2995  0.5798 -1.2922
    3CHL1   H1B  194   5.107   3.199   9.350 -0.1962 -0.4511  0.0180
    3CHL1    C2  195   5.231   3.162   9.518 -0.8993 -0.0482  0.4846
    3CHL1   H2A  196   5.134   3.187   9.566 -0.9647 -0.7947  0.7618
    3CHL1   H2B  197   5.314   3.212   9.573  1.3802  0.6417 -3.2398
    3CHL1   C20  198   5.205   3.532   8.657  0.1186 -0.8584 -0.6049
    3CHL1   H20  199   5.308   3.574   8.650  0.8197 -2.0136  1.7394
    3CHL1   C21  200   5.124   3.632   8.746 -0.0136  0.6266  0.5878
    3CHL1  H21A  201   5.193   3.679   8.820 -0.8595  0.5622  1.4321
    3CHL1  H21B  202   5.039   3.577   8.791  0.2704 -2.7697 -2.6000
    3CHL1  H21C  203   5.077   3.717   8.692 -0.6353  1.8353  2.9074
    3CHL1   C22  204   5.163   3.523   8.512 -0.8060 -0.0620  0.0279
    3CHL1  H22A  205   5.221   3.439   8.469  1.3276  0.8717  0.9338
    3CHL1  H22B  206   5.057   3.491   8.511 -0.2746 -2.0822  1.8105
    3CHL1   C23  207   5.192   3.649   8.432 -1.0179  0.0928  0.3427
    3CHL1  H23A  208   5.141   3.735   8.481 -1.0933 -0.0207  0.4642
    3CHL1  H23B  209   5.301   3.671   8.435 -1.3219  1.9111 -0.5369
    3CHL1   C24  210   5.157   3.637   8.283  0.5192 -0.2976 -0.7299
    3CHL1  H24A  211   5.234   3.572   8.238 -1.0144 -2.8311  0.0827
    3CHL1  H24B  212   5.065   3.576   8.270  0.3104 -0.1846  0.1391
    3CHL1   C25  213   5.123   3.768   8.208 -0.1785  0.2195 -0.5054
    3CHL1   H25  214   5.211   3.833   8.231  1.4621 -2.4666  1.3172
    3CHL1   C26  215   5.117   3.742   8.057  0.0747  0.4895 -0.7700
    3CHL1  H26A  216   5.206   3.691   8.015  1.2996  1.4593  0.5663
    3CHL1  H26B  217   5.032   3.670   8.051  0.1698  0.2243  0.8149
    3CHL1  H26C  218   5.088   3.832   7.998 -1.8860 -0.7266 -1.7573
    3CHL1   C27  219   4.996   3.842   8.252  0.0367 -0.5458  0.2215
    3CHL1  H27A  220   4.996   3.847   8.363 -1.8542 -2.1621  0.3376
    3CHL1  H27B  221   5.001   3.945   8.211 -0.5317  0.2526  2.0485
    3CHL1  H27C  222   4.906   3.789   8.216 -0.2948 -0.0112  0.2564
    4CHL1    C3  223   6.066   4.667   9.699  0.2917 -0.3494 -0.1397
    4CHL1    H3  224   6.127   4.759   9.710 -0.8544  0.4733 -0.3995
    4CHL1    O3  225   6.016   4.637   9.825  0.4184  0.1124 -0.0353
    4CHL1   H3'  226   5.984   4.547   9.815  0.4679  0.2314 -1.3614
    4CHL1    C4  227   5.950   4.710   9.605  0.2419  0.3196 -0.3379
    4CHL1   H4A  228   5.868   4.635   9.616  0.5877  0.0156  0.2060
    4CHL1   H4B  229   5.916   4.809   9.642 -1.0292  0.0917 -0.8426
    4CHL1    C5  230   5.995   4.721   9.465  0.3462  0.3977  0.2433
    4CHL1    C6  231   5.963   4.825   9.389  0.2889 -0.1218 -0.4326
    4CHL1    H6  232   5.906   4.903   9.441 -0.5257 -0.4195 -0.8588
    4CHL1    C7  233   5.990   4.841   9.246 -0.6478  0.0733 -0.8647
    4CHL1   H7A  234   5.908   4.891   9.190 -0.0711  2.2170  0.1105
    4CHL1   H7B  235   6.079   4.907   9.237  0.3940 -1.3775 -1.8015
    4CHL1    C8  236   6.035   4.707   9.178 -0.2713  0.4173 -0.4607
    4CHL1    H8  237   5.946   4.644   9.158 -1.1653  1.8237 -1.0969
    4CHL1   C14  238   6.108   4.735   9.050  0.2889  0.0637 -0.6869
    4CHL1   H14  239   6.206   4.777   9.080 -1.0253  3.1704 -0.2434
    4CHL1   C15  240   6.035   4.838   8.953 -0.5161  0.5809 -0.3611
    4CHL1  H15A  241   5.929   4.810   8.940 -0.1612 -1.3576  0.4839
    4CHL1  H15B  242   6.050   4.942   8.990  2.1413  0.4314 -0.8235
    4CHL1   C16  243   6.112   4.813   8.820 -1.0489  0.3043 -0.0382
    4CHL1  H16A  244   6.032   4.815   8.743 -1.9155  1.2894  0.8673
    4CHL1  H16B  245   6.194   4.880   8.788 -0.6819 -0.7363 -1.3609
    4CHL1   C17  246   6.184   4.679   8.836  0.1705  0.6002 -0.4708
    4CHL1   H17  247   6.291   4.701   8.857  0.1888 -0.9784  1.3870
    4CHL1   C13  248   6.123   4.606   8.965 -0.3435 -0.4272  0.0831
    4CHL1   C18  249   5.988   4.543   8.931  0.4362  0.5287 -0.0898
    4CHL1  H18A  250   5.925   4.617   8.877 -0.4636 -1.2370 -1.5887
    4CHL1  H18B  251   6.001   4.453   8.866 -2.0381 -1.6234  2.1288
    4CHL1  H18C  252   5.940   4.495   9.019  0.4082  0.8467  0.0679
    4CHL1   C12  253   6.215   4.510   9.044  0.1925  0.3146  0.2733
    4CHL1  H12A  254   6.231   4.415   8.990  2.1552  0.2551  0.9049
    4CHL1  H12B  255   6.316   4.555   9.048  0.8639 -0.7922 -2.1619
    4CHL1   C11  256   6.171   4.483   9.192  0.1337 -0.6741 -0.6084
    4CHL1  H11A  257   6.093   4.404   9.199  0.5613 -1.1125 -0.6763
    4CHL1  H11B  258   6.263   4.452   9.247  0.2070  1.4780  0.5857
    4CHL1    C9  259   6.123   4.617   9.267 -0.3875 -0.3520  0.4107
    4CHL1    H9  260   6.221   4.665   9.289  0.4934 -0.9982 -1.8371
    4CHL1   C10  261   6.069   4.594   9.417 -0.0089 -1.3917  0.2318
    4CHL1   C19  262   5.978   4.467   9.414 -0.2955 -0.9442  0.2255
    4CHL1  H19A  263   6.042   4.377   9.403 -0.5499 -1.1470  0.3938
    4CHL1  H19B  264   5.926   4.445   9.510 -0.4295 -0.1842  0.3358
    4CHL1  H19C  265   5.904   4.469   9.332 -0.4900 -0.6065  0.4074
    4CHL1    C1  266   6.188   4.561   9.509  0.2833  0.7957  0.2451
    4CHL1   H1A  267   6.250   4.478   9.472 -1.5647  0.0772 -1.4221
    4CHL1   H1B  268   6.253   4.651   9.501 -1.2372  1.8573 -1.0195
    4CHL1    C2  269   6.153   4.550   9.657  0.1516 -0.1003  0.5974
    4CHL1   H2A  270   6.244   4.562   9.719  0.5575  1.8191 -0.2776
    4CHL1   H2B  271   6.098   4.454   9.666 -0.4316  0.2447  0.8483
    4CHL1   C20  272   6.172   4.608   8.705 -0.6311 -0.7074 -0.0841
    4CHL1   H20  273   6.065   4.578   8.703 -1.7880  2.8049  1.4943
    4CHL1   C21  274   6.256   4.484   8.699 -0.6963 -0.6536  0.4318
    4CHL1  H21A  275   6.367   4.495   8.690 -0.8193 -0.2165 -0.8204
    4CHL1  H21B  276   6.229   4.432   8.605 -1.2535 -0.3696  0.4304
    4CHL1  H21C  277   6.228   4.417   8.783 -2.0060 -0.6995 -0.0240
    4CHL1   C22  278   6.192   4.695   8.583  0.2680 -0.1763  0.2540
    4CHL1  H22A  279   6.163   4.801   8.596  1.0262 -0.0268  0.7995
    4CHL1  H22B  280   6.301   4.697   8.561  0.6192  0.3992  1.8985
    4CHL1   C23  281   6.124   4.641   8.451  0.1387  0.0866 -0.1197
    4CHL1  H23A  282   6.169   4.543   8.422 -0.4780 -0.1562 -0.2546
    4CHL1  H23B  283   6.018   4.621   8.477  0.0606 -0.7834 -1.0231
    4CHL1   C24  284   6.130   4.732   8.332 -0.5247 -0.5677  0.7034
    4CHL1  H24A  285   6.112   4.837   8.362  1.2084 -0.3858  1.2109
    4CHL1  H24B  286   6.232   4.728   8.288 -0.8299 -1.1550  0.0161
    4CHL1   C25  287   6.036   4.684   8.215 -0.6718 -0.5649  0.3701
    4CHL1   H25  288   6.044   4.574   8.204  2.0965 -0.3142 -1.0752
    4CHL1   C26  289   5.891   4.718   8.232 -0.0367 -0.1169  0.6787
    4CHL1  H26A  290   5.845   4.678   8.325  2.1083 -1.9574  1.0167
    4CHL1  H26B  291   5.878   4.828   8.225  0.8511  0.1991  3.1427
    4CHL1  H26C  292   5.843   4.683   8.138  0.5352 -0.9602  0.6885
    4CHL1   C27  293   6.093   4.760   8.090 -0.4102 -0.3332 -0.3169
    4CHL1  H27A  294   6.194   4.718   8.071  0.9230  1.8521  1.3911
    4CHL1  H27B  295   6.011   4.751   8.016 -1.6486 -0.4157  1.0125
    4CHL1  H27C  296   6.091   4.869   8.110 -1.1803 -0.7479  2.3081
    5CHL1    C3  297   5.053   0.292   9.739  0.8045  0.2521  0.5368
    5CHL1    H3  298   5.103   0.365   9.671  0.5423 -0.5570 -0.5511
    5CHL1    O3  299   5.101   0.301   9.874  0.3198  0.0904  0.6664
    5CHL1   H3'  300   5.031   0.282   9.936  0.9177  0.4496  1.4766
    5CHL1    C4  301   4.901   0.323   9.726 -0.3593 -0.4477  0.6184
    5CHL1   H4A  302   4.829   0.265   9.788 -1.9168  0.6069 -0.1424
    5CHL1   H4B  303   4.894   0.431   9.751  2.1302  0.6858 -2.8891
    5CHL1    C5  304   4.848   0.313   9.583  0.2665  0.6668  0.2737
    5CHL1    C6  305   4.779   0.413   9.532  0.1666  0.0838  0.2345
    5CHL1    H6  306   4.761   0.506   9.588 -2.6965 -2.0037  3.1079
    5CHL1    C7  307   4.727   0.407   9.392  0.2007  0.3091 -0.4283
    5CHL1   H7A  308   4.617   0.423   9.388 -0.5517 -3.9616 -0.9736
    5CHL1   H7B  309   4.760   0.482   9.317 -4.1026  1.5866 -1.3667
    5CHL1    C8  310   4.744   0.271   9.314  0.5476  0.1627  0.3321
    5CHL1    H8  311   4.663   0.202   9.347  0.5722  1.4448  3.4005
    5CHL1   C14  312   4.729   0.295   9.167 -0.2467 -0.4449  0.0080
    5CHL1   H14  313   4.814   0.357   9.134 -1.1263  0.2432 -1.0122
    5CHL1   C15  314   4.609   0.380   9.111 -0.5535  0.6495  0.8647
    5CHL1  H15A  315   4.522   0.331   9.160  0.8963 -1.1525  1.7601
    5CHL1  H15B  316   4.605   0.489   9.134 -0.4915  1.4580 -2.4807
    5CHL1   C16  317   4.620   0.358   8.957 -0.0131 -0.9274  0.0010
    5CHL1  H16A  318   4.519   0.339   8.915  0.1013  0.6418 -1.0379
    5CHL1  H16B  319   4.672   0.445   8.912 -1.3479  0.6817  1.3678
    5CHL1   C17  320   4.710   0.231   8.936  0.9212 -0.0921  0.4659
    5CHL1   H17  321   4.812   0.261   8.907  2.2348 -4.0479  0.4354
    5CHL1   C13  322   4.733   0.165   9.075  0.2029 -0.3042  0.7250
    5CHL1   C18  323   4.617   0.062   9.111  0.8150  0.3160  1.1110
    5CHL1  H18A  324   4.514   0.091   9.085  0.6633 -1.0253  0.0724
    5CHL1  H18B  325   4.634  -0.036   9.061  0.9273  1.1701 -0.5887
    5CHL1  H18C  326   4.625   0.047   9.221  0.4005 -2.1359  0.8706
    5CHL1   C12  327   4.876   0.110   9.116  0.4848 -0.0502  0.0355
    5CHL1  H12A  328   4.898   0.015   9.063  0.7071  0.3669 -0.6261
    5CHL1  H12B  329   4.956   0.179   9.081  0.5036 -0.1689 -0.1538
    5CHL1   C11  330   4.900   0.083   9.268 -0.4023  0.0144  0.4078
    5CHL1  H11A  331   4.832   0.001   9.301  1.1905 -2.1143 -1.2792
    5CHL1  H11B  332   5.006   0.053   9.283 -0.5511 -1.7045 -1.5606
    5CHL1    C9  333   4.876   0.210   9.354 -0.1835 -0.0087 -0.2370
    5CHL1    H9  334   4.955   0.283   9.324  0.4239 -0.9788 -1.1042
    5CHL1   C10  335   4.893   0.186   9.504  0.4152 -0.1434 -1.0673
    5CHL1   C19  336   4.796   0.072   9.553  0.2832  0.0696  0.0392
    5CHL1  H19A  337   4.689   0.101   9.557  0.2761 -0.0382  0.9971
    5CHL1  H19B  338   4.806  -0.023   9.496 -2.0061 -1.3280  1.7492
    5CHL1  H19C  339   4.828   0.045   9.656  0.8185  3.9027  1.0108
    5CHL1    C1  340   5.039   0.139   9.533  0.8505 -0.6009  0.0167
    5CHL1   H1A  341   5.065   0.046   9.478 -0.7148 -0.4995 -0.9625
    5CHL1   H1B  342   5.111   0.213   9.490  0.5302 -0.6085 -0.5495
    5CHL1    C2  343   5.088   0.152   9.679  0.9060 -1.1677 -0.1009
    5CHL1   H2A  344   5.197   0.140   9.698  0.5999  1.0192  4.3328
    5CHL1   H2B  345   5.037   0.065   9.726 -0.6271 -0.6044 -0.6865
    5CHL1   C20  346   4.656   0.135   8.821  0.6298 -0.3477  0.0257
    5CHL1   H20  347   4.557   0.091   8.846  0.5514 -1.2757 -1.7290
    5CHL1   C21  348   4.763   0.027   8.782 -0.3274 -0.2621  0.2878
    5CHL1  H21A  349   4.791  -0.016   8.880 -1.0510 -0.0692  0.5821
    5CHL1  H21B  350   4.845   0.083   8.731  0.6811 -0.6009  1.4923
    5CHL1  H21C  351   4.711  -0.045   8.716  0.0616  1.3632 -1.9197
    5CHL1   C22  352   4.617   0.217   8.695 -0.0491  0.1314 -0.1211
    5CHL1  H22A  353   4.578   0.316   8.729 -2.1166 -1.7077  3.4780
    5CHL1  H22B  354   4.696   0.247   8.623 -2.2892 -1.4728 -3.4923
    5CHL1   C23  355   4.505   0.156   8.617  0.4931 -0.1245  0.2429
    5CHL1  H23A  356   4.543   0.063   8.569 -2.5231 -0.4066 -1.8860
    5CHL1  H23B  357   4.431   0.113   8.688 -0.2793 -1.7685 -1.4945
    5CHL1   C24  358   4.432   0.236   8.510  0.1680  0.2238 -0.1040
    5CHL1  H24A  359   4.389   0.331   8.549 -0.3679  0.5090 -1.3563
    5CHL1  H24B  360   4.502   0.270   8.431 -0.3833  0.2466 -0.5907
    5CHL1   C25  361   4.328   0.147   8.431  0.6351 -0.3877 -0.3368
    5CHL1   H25  362   4.244   0.120   8.499  1.4255 -1.3403  0.2881
    5CHL1   C26  363   4.272   0.232   8.316  0.9958  0.5610  0.0309
    5CHL1  H26A  364   4.217   0.323   8.346 -0.7690 -0.7883  1.1221
    5CHL1  H26B  365   4.341   0.256   8.232 -0.0087 -2.2616 -1.7718
    5CHL1  H26C  366   4.179   0.178   8.285 -0.6406  2.1378  1.8930
    5CHL1   C27  367   4.388   0.013   8.376  0.3997  0.6720  0.6277
    5CHL1  H27A  368   4.316  -0.044   8.314  1.5615 -1.3838  1.0707
    5CHL1  H27B  369   4.470   0.042   8.307  1.1736 -1.0997  0.7460
    5CHL1  H27C  370   4.433  -0.054   8.452  4.7523  0.9711 -1.3817
    6CHL1    C3  371   4.997   5.995   9.652 -0.6527  0.1746 -0.7809
    6CHL1    H3  372   5.035   6.093   9.618 -0.2874  0.1674 -0.4042
    6CHL1    O3  373   4.971   6.005   9.788 -0.0021  0.1243 -0.3026
    6CHL1   H3'  374   4.899   6.068   9.787 -0.4988 -0.4380 -0.2782
    6CHL1    C4  375   4.867   5.951   9.589 -0.3736  0.4542 -0.8132
    6CHL1   H4A  376   4.829   5.851   9.618  0.2113 -0.1797 -2.1010
    6CHL1   H4B  377   4.788   6.018   9.628  1.7729  3.3302 -1.0555
    6CHL1    C5  378   4.884   5.951   9.435 -0.8915 -0.4001 -0.0148
    6CHL1    C6  379   4.795   6.015   9.361  0.0115  0.5721  0.1479
    6CHL1    H6  380   4.706   6.060   9.408  0.2914  1.1409  0.1434
    6CHL1    C7  381   4.801   6.014   9.211  0.7466  0.4391 -1.0750
    6CHL1   H7A  382   4.697   5.994   9.177 -0.0702  0.7414  1.1082
    6CHL1   H7B  383   4.818   6.118   9.175  2.7374  0.7275  0.5485
    6CHL1    C8  384   4.894   5.915   9.153 -0.4402  0.0064  0.3273
    6CHL1    H8  385   4.851   5.813   9.160  0.2182 -0.3243 -0.3067
    6CHL1   C14  386   4.921   5.949   9.006 -0.1395  0.0082  0.2799
    6CHL1   H14  387   4.960   6.053   9.010 -2.9401  1.2361 -1.6117
    6CHL1   C15  388   4.804   5.959   8.911 -0.1422  0.8989 -0.2404
    6CHL1  H15A  389   4.741   5.869   8.926 -1.9276  2.0681 -0.4528
    6CHL1  H15B  390   4.740   6.047   8.933 -1.4591 -0.1990  0.4501
    6CHL1   C16  391   4.872   5.946   8.772 -0.1328 -0.5742  0.5623
    6CHL1  H16A  392   4.825   5.861   8.718  1.0983  0.3863 -2.2421
    6CHL1  H16B  393   4.849   6.037   8.711 -0.2955 -0.8046  0.2776
    6CHL1   C17  394   5.023   5.916   8.790  0.0026 -0.3851  0.9540
    6CHL1   H17  395   5.075   6.013   8.801 -1.1615  0.1849  1.6456
    6CHL1   C13  396   5.028   5.862   8.938  0.7386  1.2182  0.6929
    6CHL1   C18  397   4.976   5.718   8.929 -0.9311 -0.6051 -0.1540
    6CHL1  H18A  398   5.047   5.639   8.893  0.1126  0.4852 -0.5527
    6CHL1  H18B  399   4.930   5.687   9.025  0.2074 -0.0685  0.5834
    6CHL1  H18C  400   4.885   5.702   8.867 -1.2717 -2.6442  0.7708
    6CHL1   C12  401   5.156   5.872   9.007 -0.2728  0.0189 -0.0502
    6CHL1  H12A  402   5.237   5.804   8.974  2.3174  2.4708  0.8316
    6CHL1  H12B  403   5.191   5.976   9.026 -0.6904 -0.2234  2.4193
    6CHL1   C11  404   5.141   5.831   9.151 -0.1931 -0.3745  0.4795
    6CHL1  H11A  405   5.102   5.728   9.141 -0.8718 -0.2067  1.2197
    6CHL1  H11B  406   5.237   5.836   9.206  0.4859 -1.3771 -0.5944
    6CHL1    C9  407   5.032   5.914   9.228  0.6992 -0.2823 -0.8307
    6CHL1    H9  408   5.075   6.016   9.222  0.9140 -0.3410 -0.3159
    6CHL1   C10  409   5.004   5.879   9.375 -0.4002 -0.9397  0.2839
    6CHL1   C19  410   4.981   5.734   9.387 -0.4561 -0.4015  0.8555
    6CHL1  H19A  411   4.968   5.697   9.491 -2.6961  0.0365  0.7728
    6CHL1  H19B  412   4.899   5.699   9.322 -0.8876  0.9795  0.6375
    6CHL1  H19C  413   5.073   5.685   9.349  1.0086  1.6970  1.5075
    6CHL1    C1  414   5.131   5.913   9.468 -0.7834  0.4322  0.6556
    6CHL1   H1A  415   5.224   5.857   9.445 -0.8322  0.7278 -0.2803
    6CHL1   H1B  416   5.163   6.016   9.444  0.4970 -0.0159  0.3718
    6CHL1    C2  417   5.107   5.898   9.617  0.4442  0.5258 -0.6377
    6CHL1   H2A  418   5.205   5.925   9.662  1.3667  0.1804 -2.3387
    6CHL1   H2B  419   5.079   5.801   9.663  1.6976  1.1664  1.6517
    6CHL1   C20  420   5.080   5.831   8.678  0.2467  0.4950  0.6865
    6CHL1   H20  421   5.024   5.736   8.664  1.6201 -0.0960 -1.2221
    6CHL1   C21  422   5.229   5.801   8.703 -0.0755 -0.3663  0.2189
    6CHL1  H21A  423   5.249   5.728   8.784  1.8187  0.2267  0.3205
    6CHL1  H21B  424   5.285   5.895   8.720 -0.5577  0.5830 -2.8082
    6CHL1  H21C  425   5.254   5.755   8.604 -1.6206  1.0130 -0.8651
    6CHL1   C22  426   5.064   5.902   8.540 -0.4889  0.2676  1.1042
    6CHL1  H22A  427   4.963   5.946   8.531  0.0450  1.0695 -2.3184
    6CHL1  H22B  428   5.139   5.983   8.539 -0.9670  0.7389 -0.6316
    6CHL1   C23  429   5.084   5.819   8.410 -0.1265  0.4157 -0.5679
    6CHL1  H23A  430   5.064   5.888   8.324  0.2248  0.2892 -0.7523
    6CHL1  H23B  431   5.193   5.801   8.414 -0.0005  1.0712 -0.7721
    6CHL1   C24  432   5.006   5.684   8.402  0.2492 -0.0848  0.2129
    6CHL1  H24A  433   5.039   5.617   8.484 -0.9157 -0.6516  0.2347
    6CHL1  H24B  434   4.896   5.689   8.415  0.3274 -0.9210  1.3411
    6CHL1   C25  435   5.018   5.611   8.262  0.6180  0.0484  0.4156
    6CHL1   H25  436   5.124   5.579   8.262  1.4266  2.3853  2.5424
    6CHL1   C26  437   4.920   5.492   8.250 -0.4602  0.0219  0.0869
    6CHL1  H26A  438   4.910   5.444   8.150 -3.1668 -0.5475  0.5406
    6CHL1  H26B  439   4.954   5.418   8.326 -0.8818 -0.4573 -0.1756
    6CHL1  H26C  440   4.824   5.539   8.280 -0.1510  0.8540 -0.2116
    6CHL1   C27  441   4.972   5.709   8.155  0.3872 -0.6728  0.0281
    6CHL1  H27A  442   4.950   5.657   8.059  0.8911 -0.4455 -0.2123
    6CHL1  H27B  443   4.881   5.769   8.175  1.5045  1.8443 -1.8743
    6CHL1  H27C  444   5.051   5.784   8.132  0.0323 -0.7505 -1.6203
    7CHL1    C3  445   6.143   2.388   9.554 -0.0637  0.2096  0.3426
    7CHL1    H3  446   6.163   2.280   9.535 -3.1140 -0.3313 -0.2706
    7CHL1    O3  447   6.171   2.414   9.690  0.7563 -0.6972  0.2446
    7CHL1   H3'  448   6.100   2.477   9.706  2.0537  0.9662 -0.3090
    7CHL1    C4  449   6.228   2.479   9.457 -0.3163 -0.2372 -0.0780
    7CHL1   H4A  450   6.213   2.589   9.466 -0.0744 -0.2045 -0.0522
    7CHL1   H4B  451   6.334   2.467   9.491  0.2279 -0.6335 -1.8212
    7CHL1    C5  452   6.219   2.437   9.311  1.0747 -0.1701 -0.2608
    7CHL1    C6  453   6.325   2.393   9.248 -0.3743  0.1083 -0.2469
    7CHL1    H6  454   6.417   2.393   9.309 -0.6184 -0.1233  0.1272
    7CHL1    C7  455   6.322   2.359   9.101  0.1427 -0.7399  0.5727
    7CHL1   H7A  456   6.399   2.423   9.054 -1.5482 -0.3866 -1.9221
    7CHL1   H7B  457   6.352   2.254   9.084  1.5444  0.1416 -3.4950
    7CHL1    C8  458   6.187   2.404   9.027 -0.3105 -0.2915  0.5417
    7CHL1    H8  459   6.199   2.513   9.009 -1.9578 -0.2273 -0.3813
    7CHL1   C14  460   6.166   2.319   8.902 -0.4538  0.6191  0.2908
    7CHL1   H14  461   6.150   2.215   8.937  0.8829  0.2677 -0.0853
    7CHL1   C15  462   6.280   2.315   8.800 -0.4446  0.1300 -1.4654
    7CHL1  H15A  463   6.339   2.408   8.792 -0.1293  0.1497  0.5031
    7CHL1  H15B  464   6.356   2.242   8.835 -0.2146  1.3466  0.7352
    7CHL1   C16  465   6.210   2.268   8.674  0.5266  0.1656 -0.0767
    7CHL1  H16A  466   6.244   2.333   8.590 -1.5544  1.0332 -0.3162
    7CHL1  H16B  467   6.233   2.163   8.647 -1.4532 -0.4583  0.4603
    7CHL1   C17  468   6.058   2.299   8.693 -0.0101  1.0078  0.0130
    7CHL1   H17  469   6.023   2.197   8.718  0.8540  0.6198 -0.3465
    7CHL1   C13  470   6.048   2.371   8.821 -0.2150 -0.6554  0.1442
    7CHL1   C18  471   6.062   2.522   8.789  0.1356  0.0456 -0.7866
    7CHL1  H18A  472   6.142   2.541   8.714  1.2843 -0.8716  0.1602
    7CHL1  H18B  473   5.971   2.558   8.738 -0.3523 -0.9562 -0.6455
    7CHL1  H18C  474   6.082   2.582   8.881  0.3741 -1.2021  0.0094
    7CHL1   C12  475   5.923   2.343   8.897  0.4289  1.1312  0.5725
    7CHL1  H12A  476   5.829   2.361   8.842  0.1060 -1.7920 -0.0026
    7CHL1  H12B  477   5.910   2.234   8.910  4.0410  0.7174  1.9809
    7CHL1   C11  478   5.926   2.406   9.039 -0.8769  0.2630 -0.3250
    7CHL1  H11A  479   5.912   2.516   9.043 -1.2385  0.2543  4.1131
    7CHL1  H11B  480   5.841   2.361   9.095 -0.6588  0.3681  0.0948
    7CHL1    C9  481   6.065   2.377   9.114 -0.2582 -0.0411  0.0316
    7CHL1    H9  482   6.064   2.270   9.144 -1.2104  0.6807  2.9423
    7CHL1   C10  483   6.075   2.445   9.257 -0.0006  0.1805 -0.1051
    7CHL1   C19  484   6.033   2.596   9.252 -0.0534 -0.3808  0.5078
    7CHL1  H19A  485   6.049   2.649   9.349  0.5196 -1.7176  1.1751
    7CHL1  H19B  486   6.075   2.654   9.168 -0.9314  0.5825  0.7155
    7CHL1  H19C  487   5.922   2.600   9.243  0.1374 -0.2280 -2.6312
    7CHL1    C1  488   5.987   2.375   9.354  0.1712  0.3442  0.2403
    7CHL1   H1A  489   5.881   2.394   9.326  0.7539  1.9541 -1.0050
    7CHL1   H1B  490   6.001   2.265   9.351  0.8784  0.4511 -1.3255
    7CHL1    C2  491   5.995   2.411   9.510  0.2705  0.9133  0.2966
    7CHL1   H2A  492   5.932   2.349   9.578  1.5574 -0.7093  0.0655
    7CHL1   H2B  493   5.968   2.518   9.523  0.5546  0.8410  1.6616
    7CHL1   C20  494   5.983   2.346   8.566  0.2743 -0.7229 -0.5698
    7CHL1   H20  495   6.014   2.450   8.544 -2.6460  0.8600  1.8692
    7CHL1   C21  496   5.832   2.362   8.582 -0.0003  0.5841  0.0505
    7CHL1  H21A  497   5.793   2.407   8.488  0.5211  1.1285  0.0898
    7CHL1  H21B  498   5.807   2.434   8.664 -2.4432  1.1757 -1.1121
    7CHL1  H21C  499   5.784   2.265   8.607  2.9334 -1.8863 -2.9823
    7CHL1   C22  500   6.005   2.261   8.441  0.0977 -0.2679  1.0271
    7CHL1  H22A  501   5.932   2.303   8.369 -0.6200 -3.1496 -0.0436
    7CHL1  H22B  502   6.110   2.277   8.408  0.3099 -1.4864  1.0630
    7CHL1   C23  503   5.969   2.106   8.453  0.1347  0.1011  0.1613
    7CHL1  H23A  504   6.053   2.054   8.502  1.5500  1.0318 -1.1827
    7CHL1  H23B  505   5.882   2.101   8.522  1.2437 -0.1629  1.5787
    7CHL1   C24  506   5.941   2.046   8.321  0.2730  0.5073 -0.6935
    7CHL1  H24A  507   5.885   1.953   8.345 -2.0209  2.2711  1.3320
    7CHL1  H24B  508   5.873   2.121   8.274  0.7518  0.8502 -0.8447
    7CHL1   C25  509   6.060   2.013   8.238  0.2425  0.7872 -0.8756
    7CHL1   H25  510   6.122   1.943   8.298  0.2398  3.6422  2.8315
    7CHL1   C26  511   6.018   1.926   8.114 -0.1686 -0.0329  0.1053
    7CHL1  H26A  512   5.962   1.986   8.039  1.3740 -0.2260 -1.2595
    7CHL1  H26B  513   6.112   1.897   8.062 -0.0243 -2.0381  1.3705
    7CHL1  H26C  514   5.954   1.842   8.147 -0.0046 -0.1655  0.0846
    7CHL1   C27  515   6.162   2.121   8.197 -0.3858 -0.6185 -0.5357
    7CHL1  H27A  516   6.111   2.205   8.144 -3.0201 -2.0528 -0.4414
    7CHL1  H27B  517   6.213   2.157   8.289 -2.0129 -0.5955  0.3888
    7CHL1  H27C  518   6.245   2.081   8.135 -0.8789 -1.5403 -0.6244
    8CHL1    C3  519   0.306   1.843   9.376 -0.0546 -0.1947 -0.3135
    8CHL1    H3  520   0.400   1.785   9.383  0.9806  1.4926  0.6406
    8CHL1    O3  521   0.262   1.862   9.508 -0.3266 -1.0773  0.2251
    8CHL1   H3'  522   0.191   1.927   9.513  0.7257  0.0772  0.9650
    8CHL1    C4  523   0.324   1.970   9.305  0.3703 -0.0696  0.3036
    8CHL1   H4A  524   0.229   2.027   9.302  0.7970  0.7044  0.9268
    8CHL1   H4B  525   0.396   2.030   9.365  0.8711 -0.9569  0.6078
    8CHL1    C5  526   0.364   1.963   9.159  0.5533  0.0866 -0.2662
    8CHL1    C6  527   0.475   2.023   9.114 -0.5969 -0.1689  0.5183
    8CHL1    H6  528   0.534   2.073   9.192  0.2194  0.0463 -0.2288
    8CHL1    C7  529   0.528   1.997   8.977  0.1552  0.9359 -0.1214
    8CHL1   H7A  530   0.577   2.087   8.934  2.3518 -1.1398 -2.2562
    8CHL1   H7B  531   0.602   1.917   8.998 -1.0588 -0.2034 -0.0595
    8CHL1    C8  532   0.421   1.942   8.875  0.7105 -0.3712 -0.8616
    8CHL1    H8  533   0.347   2.022   8.855  0.3596 -0.1036  1.3213
    8CHL1   C14  534   0.484   1.902   8.744 -0.1599  0.4195 -0.5458
    8CHL1   H14  535   0.545   1.819   8.784  0.8593 -0.7183 -4.0498
    8CHL1   C15  536   0.572   2.002   8.670  0.4406 -0.0904  0.2464
    8CHL1  H15A  537   0.520   2.100   8.665 -1.1694 -0.9563 -0.6788
    8CHL1  H15B  538   0.665   2.023   8.728  1.7080 -3.4030 -0.3532
    8CHL1   C16  539   0.589   1.929   8.536 -0.2926 -0.2464  0.3335
    8CHL1  H16A  540   0.554   2.001   8.459 -1.3974  0.6729  1.6457
    8CHL1  H16B  541   0.696   1.902   8.525 -0.6816 -1.6721 -0.2755
    8CHL1   C17  542   0.500   1.810   8.537  0.4019 -0.3060 -0.5673
    8CHL1   H17  543   0.551   1.724   8.587  0.2731 -1.2974 -2.0483
    8CHL1   C13  544   0.390   1.848   8.634  0.5072  0.4744 -0.2943
    8CHL1   C18  545   0.304   1.965   8.581 -0.2113  0.5821 -0.7759
    8CHL1  H18A  546   0.228   1.922   8.511  0.0348 -1.0803 -0.0653
    8CHL1  H18B  547   0.237   2.014   8.656  0.9660  1.3329 -0.1911
    8CHL1  H18C  548   0.357   2.049   8.532  1.3336  0.3455  0.4263
    8CHL1   C12  549   0.298   1.745   8.697 -0.2457  0.0093 -0.5177
    8CHL1  H12A  550   0.217   1.720   8.625 -2.0717  2.2581  0.6529
    8CHL1  H12B  551   0.360   1.657   8.725 -0.4580 -0.3513 -1.1624
    8CHL1   C11  552   0.235   1.792   8.829 -0.3523 -0.0101  0.5086
    8CHL1  H11A  553   0.151   1.858   8.799  0.7913  0.3131 -2.3176
    8CHL1  H11B  554   0.177   1.707   8.871  0.5172 -0.1167  1.5583
    8CHL1    C9  555   0.338   1.835   8.937  0.2565 -0.2775 -0.2438
    8CHL1    H9  556   0.404   1.746   8.949  0.7524  0.0979 -0.1335
    8CHL1   C10  557   0.279   1.869   9.076  0.0450 -0.3263  0.0977
    8CHL1   C19  558   0.146   1.939   9.047  0.2298  0.3287  0.7200
    8CHL1  H19A  559   0.156   2.029   8.981 -0.5459  2.9680  3.9392
    8CHL1  H19B  560   0.071   1.871   9.002  0.1172 -0.6395  2.3135
    8CHL1  H19C  561   0.094   1.971   9.139 -2.1564 -0.3429 -0.3340
    8CHL1    C1  562   0.253   1.738   9.157 -0.7796 -0.0654 -0.2708
    8CHL1   H1A  563   0.168   1.687   9.108 -0.4850  0.6640 -1.6133
    8CHL1   H1B  564   0.338   1.666   9.151  0.0225  0.7458  0.9121
    8CHL1    C2  565   0.206   1.756   9.302  0.0035 -0.0885 -0.5198
    8CHL1   H2A  566   0.192   1.661   9.359  0.9454  1.3227  2.2720
    8CHL1   H2B  567   0.115   1.819   9.295 -0.9993 -1.6361 -2.5752
    8CHL1   C20  568   0.455   1.767   8.397 -0.2268 -0.5593  0.3468
    8CHL1   H20  569   0.421   1.863   8.354 -1.2704  0.2607  2.8566
    8CHL1   C21  570   0.353   1.659   8.397  0.6348  0.0873  0.0913
    8CHL1  H21A  571   0.372   1.584   8.477 -0.2783  0.5661  0.7766
    8CHL1  H21B  572   0.345   1.605   8.300  0.2163 -0.2022  0.2819
    8CHL1  H21C  573   0.259   1.716   8.414  0.0700 -0.6567 -0.4374
    8CHL1   C22  574   0.574   1.726   8.311 -0.0026 -0.0402  0.4892
    8CHL1  H22A  575   0.536   1.682   8.216  0.9252 -0.5559  0.3396
    8CHL1  H22B  576   0.628   1.821   8.287 -1.3868  1.1686  1.9754
    8CHL1   C23  577   0.671   1.620   8.366 -0.2797  0.1580  0.2223
    8CHL1  H23A  578   0.696   1.645   8.471 -0.3041  0.2016  0.2174
    8CHL1  H23B  579   0.616   1.524   8.364  2.5314 -1.6001 -2.5229
    8CHL1   C24  580   0.803   1.598   8.289  0.2186 -0.3383  0.1917
    8CHL1  H24A  581   0.786   1.622   8.182  1.8619  1.0085  0.2003
    8CHL1  H24B  582   0.883   1.669   8.319 -0.0636 -1.0116  2.8557
    8CHL1   C25  583   0.879   1.470   8.334  0.0528 -0.1975 -0.4063
    8CHL1   H25  584   0.807   1.385   8.332  0.5113 -0.5983 -0.1002
    8CHL1   C26  585   0.991   1.437   8.231 -0.1934  0.3356  0.0807
    8CHL1  H26A  586   0.940   1.422   8.133 -0.2706 -0.9164  0.3012
    8CHL1  H26B  587   1.062   1.521   8.219 -0.0843  0.6981  2.6926
    8CHL1  H26C  588   1.038   1.337   8.242  0.7466  0.8422  0.8608
    8CHL1   C27  589   0.945   1.487   8.472 -0.3627  0.4269 -0.8091
    8CHL1  H27A  590   1.019   1.569   8.467  2.4764 -1.8088  1.0189
    8CHL1  H27B  591   0.880   1.513   8.558 -1.8789 -3.6019 -0.5263
    8CHL1  H27C  592   1.004   1.399   8.507 -1.9520 -0.0945  0.6930
    9CHL1    C3  593   2.987   5.428   9.673 -0.4011 -0.0407 -0.1575
    9CHL1    H3  594   2.881   5.397   9.669 -0.4274  0.1598 -1.7430
    9CHL1    O3  595   3.010   5.491   9.800 -0.2561  0.4744 -0.1971
    9CHL1   H3'  596   3.087   5.541   9.774  1.1452 -1.7288 -0.5493
    9CHL1    C4  597   3.090   5.315   9.652  0.4979  0.2260  0.3235
    9CHL1   H4A  598   3.196   5.344   9.664  0.9898 -0.5171 -1.7362
    9CHL1   H4B  599   3.084   5.231   9.724  3.9807 -0.5308 -0.1357
    9CHL1    C5  600   3.081   5.254   9.515  0.1884 -0.9428  0.4104
    9CHL1    C6  601   3.061   5.124   9.498  0.6158  0.8697 -0.5288
    9CHL1    H6  602   3.058   5.057   9.586 -0.1817  3.3542  1.4685
    9CHL1    C7  603   3.049   5.056   9.367 -0.0641 -0.0996  0.3637
    9CHL1   H7A  604   3.123   4.973   9.372 -0.9827 -0.9578 -0.0194
    9CHL1   H7B  605   2.948   5.024   9.337  1.2557 -2.6444 -1.7492
    9CHL1    C8  606   3.103   5.154   9.258  0.7649  0.2368 -0.4401
    9CHL1    H8  607   3.211   5.155   9.284  0.7387  0.1341 -0.3218
    9CHL1   C14  608   3.097   5.087   9.123 -0.1560  0.5555  0.0480
    9CHL1   H14  609   2.992   5.054   9.105  0.6085 -0.0772 -4.0905
    9CHL1   C15  610   3.179   4.954   9.102  0.8126  0.1391  0.1332
    9CHL1  H15A  611   3.281   4.970   9.143  0.5105 -1.0894  1.4716
    9CHL1  H15B  612   3.137   4.872   9.165  1.8619 -0.4612  0.0902
    9CHL1   C16  613   3.158   4.936   8.959 -0.6118 -0.0543  0.2652
    9CHL1  H16A  614   3.244   4.898   8.899 -1.6270  2.1029 -2.7666
    9CHL1  H16B  615   3.081   4.857   8.945 -1.2615  0.5425  0.4279
    9CHL1   C17  616   3.114   5.077   8.895 -0.3892 -0.0403 -0.2546
    9CHL1   H17  617   3.004   5.082   8.880 -0.5020  4.5364  0.5681
    9CHL1   C13  618   3.129   5.172   9.009  0.3670 -0.1533  0.4633
    9CHL1   C18  619   3.275   5.221   9.018  0.2660  0.2663  0.1386
    9CHL1  H18A  620   3.353   5.147   8.992  0.6685 -0.3817  2.9070
    9CHL1  H18B  621   3.300   5.300   8.943 -1.2055  1.7473  1.1154
    9CHL1  H18C  622   3.306   5.264   9.116 -0.4264  0.8293  0.1247
    9CHL1   C12  623   3.025   5.296   9.007  0.1855  0.0795  0.2874
    9CHL1  H12A  624   3.045   5.358   8.917  0.3142 -0.0963  0.1950
    9CHL1  H12B  625   2.918   5.263   9.008 -0.0041  0.6732 -0.1336
    9CHL1   C11  626   3.051   5.376   9.132  0.8627  0.1774 -0.0763
    9CHL1  H11A  627   3.153   5.419   9.138 -0.0730  2.4570  0.6200
    9CHL1  H11B  628   2.986   5.466   9.135  0.0045 -0.4539  0.8084
    9CHL1    C9  629   3.037   5.296   9.269 -0.2182  0.3648 -0.2679
    9CHL1    H9  630   2.929   5.283   9.291 -0.0279 -1.1988 -0.1016
    9CHL1   C10  631   3.080   5.359   9.395 -0.2201  0.4286 -0.4461
    9CHL1   C19  632   3.224   5.408   9.385  0.0654  0.1907 -0.2113
    9CHL1  H19A  633   3.283   5.326   9.338 -0.1331 -1.2604  1.9357
    9CHL1  H19B  634   3.221   5.504   9.329 -1.4286  1.8049  2.4467
    9CHL1  H19C  635   3.263   5.435   9.485 -2.9755  0.2713  1.0549
    9CHL1    C1  636   2.980   5.476   9.424 -0.3214  0.2374  0.0426
    9CHL1   H1A  637   2.982   5.556   9.347  0.0100 -0.8275 -1.0780
    9CHL1   H1B  638   2.873   5.446   9.428  0.1126 -1.2700  1.8561
    9CHL1    C2  639   3.003   5.540   9.567 -0.7799  0.2782 -0.2070
    9CHL1   H2A  640   2.925   5.617   9.587 -0.5428  0.0271  1.8951
    9CHL1   H2B  641   3.103   5.588   9.577 -1.4288  1.5033  0.6645
    9CHL1   C20  642   3.163   5.119   8.758 -0.1220  0.8768 -0.2373
    9CHL1   H20  643   3.144   5.228   8.744 -0.4423  0.7659 -0.6971
    9CHL1   C21  644   3.069   5.046   8.656 -0.0165  0.6177 -0.7198
    9CHL1  H21A  645   2.969   5.094   8.647  0.1835  1.0718 -0.5328
    9CHL1  H21B  646   3.045   4.942   8.686  1.5691  1.1077  2.7565
    9CHL1  H21C  647   3.116   5.041   8.555  0.2441 -2.3994 -0.5448
    9CHL1   C22  648   3.307   5.095   8.715  0.3106  0.5081 -0.3316
    9CHL1  H22A  649   3.373   5.115   8.802  1.1874 -2.9598 -0.0208
    9CHL1  H22B  650   3.314   4.989   8.683 -0.5514  0.4722 -0.4353
    9CHL1   C23  651   3.347   5.179   8.595 -0.0562 -0.4972 -0.1632
    9CHL1  H23A  652   3.275   5.157   8.513 -0.1056 -1.3257  0.0940
    9CHL1  H23B  653   3.350   5.288   8.615 -0.0870  0.0503 -2.8250
    9CHL1   C24  654   3.496   5.136   8.554 -0.2959 -0.4926 -0.4404
    9CHL1  H24A  655   3.549   5.153   8.650  0.5548 -1.0280 -0.8054
    9CHL1  H24B  656   3.507   5.027   8.539 -1.5348 -0.6545 -0.3432
    9CHL1   C25  657   3.533   5.213   8.432 -0.7787 -0.2463 -0.9865
    9CHL1   H25  658   3.484   5.313   8.434  1.3049  0.8618 -1.8898
    9CHL1   C26  659   3.686   5.239   8.404 -0.2810 -0.1610  0.7788
    9CHL1  H26A  660   3.701   5.299   8.312  1.1464 -2.5286 -0.6275
    9CHL1  H26B  661   3.729   5.286   8.495 -0.1263 -0.1297  0.6900
    9CHL1  H26C  662   3.739   5.142   8.391 -1.9919 -1.2163  1.3222
    9CHL1   C27  663   3.483   5.129   8.311  0.6666  0.1661 -0.4905
    9CHL1  H27A  664   3.374   5.116   8.329  0.5864  0.3830 -0.7931
    9CHL1  H27B  665   3.482   5.200   8.225  0.3543  0.5512 -0.1726
    9CHL1  H27C  666   3.524   5.026   8.303  0.9404  0.1773  0.6408
   10CHL1    C3  667   4.526   3.194   9.831 -1.4616 -0.2127 -0.4085
   10CHL1    H3  668   4.588   3.280   9.797  0.8672 -1.2579  0.9439
   10CHL1    O3  669   4.560   3.164   9.969  0.2921 -0.2510 -0.1252
   10CHL1   H3'  670   4.656   3.154   9.966  0.2020 -1.0316 -1.1064
   10CHL1    C4  671   4.380   3.232   9.831  0.0043 -0.2202  0.3562
   10CHL1   H4A  672   4.324   3.147   9.875 -0.2435 -0.5409 -0.5431
   10CHL1   H4B  673   4.377   3.318   9.900  4.1695 -0.2927  0.8372
   10CHL1    C5  674   4.330   3.263   9.695 -0.2656 -0.4460 -0.6976
   10CHL1    C6  675   4.278   3.383   9.664  0.6027 -0.2673 -0.5561
   10CHL1    H6  676   4.266   3.467   9.735 -2.6403  0.4384 -1.7178
   10CHL1    C7  677   4.207   3.413   9.527  0.0705  0.5880  0.3006
   10CHL1   H7A  678   4.102   3.440   9.549 -0.3030  0.2040 -0.9319
   10CHL1   H7B  679   4.258   3.497   9.475 -1.9926  2.1562  0.6754
   10CHL1    C8  680   4.198   3.291   9.428  0.6559  0.1993 -0.1978
   10CHL1    H8  681   4.117   3.219   9.454 -0.4343  1.5746  0.3151
   10CHL1   C14  682   4.184   3.345   9.288 -0.3376 -0.1104 -0.4320
   10CHL1   H14  683   4.276   3.402   9.266 -1.2339  1.4080 -0.4044
   10CHL1   C15  684   4.063   3.433   9.257  0.9347 -0.1139 -0.0021
   10CHL1  H15A  685   3.972   3.390   9.303  1.2502 -1.8588 -0.9183
   10CHL1  H15B  686   4.069   3.540   9.287  0.2950 -0.1480  0.2602
   10CHL1   C16  687   4.035   3.423   9.108 -0.6356 -0.5310 -0.6377
   10CHL1  H16A  688   3.939   3.369   9.094 -1.9489  1.3494  0.7098
   10CHL1  H16B  689   4.040   3.519   9.051  1.3785 -0.5619 -0.5927
   10CHL1   C17  690   4.154   3.332   9.059  0.5355  0.1761  0.1660
   10CHL1   H17  691   4.236   3.406   9.050 -1.4044  2.1910 -2.3613
   10CHL1   C13  692   4.193   3.237   9.183  0.4099 -0.2152  0.4891
   10CHL1   C18  693   4.084   3.129   9.193 -0.3968 -0.4686 -0.2328
   10CHL1  H18A  694   4.097   3.060   9.279 -2.2211 -1.9153 -1.0244
   10CHL1  H18B  695   3.983   3.175   9.195  0.0168  0.6483 -2.3724
   10CHL1  H18C  696   4.100   3.058   9.109  3.3780 -0.4894  0.3353
   10CHL1   C12  697   4.329   3.169   9.185 -0.7334  0.5155  0.0410
   10CHL1  H12A  698   4.337   3.083   9.115 -0.0598 -1.3136  2.2366
   10CHL1  H12B  699   4.412   3.239   9.161 -0.0102 -0.8940 -1.7765
   10CHL1   C11  700   4.355   3.108   9.323 -0.5795  0.0727 -0.6022
   10CHL1  H11A  701   4.295   3.017   9.342 -2.2715  0.8137 -2.1078
   10CHL1  H11B  702   4.461   3.074   9.324 -0.9542 -1.1415 -0.8461
   10CHL1    C9  703   4.330   3.209   9.443 -0.8149  0.1063  0.1110
   10CHL1    H9  704   4.403   3.292   9.429 -0.8607  0.3119  1.0507
   10CHL1   C10  705   4.354   3.158   9.587  0.3337 -0.2520 -0.4289
   10CHL1   C19  706   4.263   3.037   9.615 -0.4553 -0.0727  0.0629
   10CHL1  H19A  707   4.156   3.064   9.627 -0.2371  0.4239  0.9265
   10CHL1  H19B  708   4.273   2.958   9.537  1.2610  1.0269 -0.9089
   10CHL1  H19C  709   4.289   2.983   9.709 -0.2410 -0.9505 -0.4872
   10CHL1    C1  710   4.503   3.107   9.592 -0.0754 -0.5949 -1.2258
   10CHL1   H1A  711   4.521   3.022   9.522  1.3018  1.7303 -3.8668
   10CHL1   H1B  712   4.568   3.193   9.566 -1.9130  1.8455  1.6930
   10CHL1    C2  713   4.548   3.073   9.734  1.2423 -0.8396 -0.3970
   10CHL1   H2A  714   4.656   3.051   9.750  1.3837  0.2216  0.2238
   10CHL1   H2B  715   4.490   2.984   9.764 -0.2256 -0.0377 -0.7873
   10CHL1   C20  716   4.125   3.273   8.930  0.2434 -0.3193 -0.3478
   10CHL1   H20  717   4.078   3.174   8.949  0.7650 -0.8272 -1.5564
   10CHL1   C21  718   4.264   3.256   8.863 -0.0480 -0.4347  0.1479
   10CHL1  H21A  719   4.313   3.355   8.863 -0.0633 -0.3591 -2.3065
   10CHL1  H21B  720   4.244   3.227   8.757  0.7687  0.9031 -0.3990
   10CHL1  H21C  721   4.322   3.170   8.904 -0.5186 -1.8892 -2.0095
   10CHL1   C22  722   4.034   3.358   8.834  0.1986  0.5972 -0.1567
   10CHL1  H22A  723   3.939   3.394   8.878 -0.3773 -0.3487 -0.5790
   10CHL1  H22B  724   4.089   3.446   8.794  0.7064  0.7382  0.8153
   10CHL1   C23  725   3.985   3.288   8.702  0.0930 -0.6269 -0.9912
   10CHL1  H23A  726   4.079   3.270   8.645 -0.1288 -1.1474 -1.1972
   10CHL1  H23B  727   3.940   3.188   8.721  0.9091 -1.0910 -1.4396
   10CHL1   C24  728   3.897   3.371   8.604 -0.1911 -0.5345  0.4715
   10CHL1  H24A  729   3.799   3.384   8.654 -1.2941  0.5495 -1.8153
   10CHL1  H24B  730   3.956   3.462   8.581  0.2564 -1.4679 -2.5658
   10CHL1   C25  731   3.860   3.300   8.468 -0.4143  0.1213 -0.2738
   10CHL1   H25  732   3.797   3.377   8.418 -0.7331 -1.6920 -2.9016
   10CHL1   C26  733   3.978   3.252   8.389 -0.3472 -0.0116  0.1106
   10CHL1  H26A  734   3.942   3.192   8.302 -1.2685  3.4597 -2.1474
   10CHL1  H26B  735   4.045   3.329   8.344 -0.0897 -0.6359 -0.5817
   10CHL1  H26C  736   4.039   3.192   8.458  0.8389  0.9990 -0.0186
   10CHL1   C27  737   3.767   3.178   8.487 -0.3633  0.2680  0.6523
   10CHL1  H27A  738   3.685   3.207   8.557  0.3620  1.7126  0.9470
   10CHL1  H27B  739   3.728   3.151   8.386 -0.0322 -0.2963  0.6751
   10CHL1  H27C  740   3.815   3.089   8.532 -0.3426  0.6743  1.4485
   11CHL1    C3  741   5.916   3.080   9.289  0.2140 -0.4518  0.1637
   11CHL1    H3  742   6.001   3.147   9.262  1.0520 -1.7109 -0.4282
   11CHL1    O3  743   5.896   3.070   9.432  0.1149 -0.0136  0.6218
   11CHL1   H3'  744   5.981   3.042   9.469 -0.1274 -1.6315  0.0454
   11CHL1    C4  745   5.785   3.124   9.217 -0.6032 -0.7505 -0.4529
   11CHL1   H4A  746   5.702   3.060   9.253 -0.8202 -1.1126 -1.5503
   11CHL1   H4B  747   5.782   3.226   9.259  3.3087 -1.0333  1.0091
   11CHL1    C5  748   5.795   3.115   9.065  0.2040 -0.3187 -0.3005
   11CHL1    C6  749   5.761   3.218   8.988 -0.3045 -0.1299 -0.0545
   11CHL1    H6  750   5.734   3.310   9.041  1.4578 -0.3473  1.3100
   11CHL1    C7  751   5.750   3.205   8.840  0.0593 -0.3420 -0.1709
   11CHL1   H7A  752   5.658   3.258   8.807  0.7930  0.0691 -1.6515
   11CHL1   H7B  753   5.829   3.262   8.786  0.7192 -0.7258  0.3701
   11CHL1    C8  754   5.739   3.056   8.783 -0.5651 -0.3326  0.6375
   11CHL1    H8  755   5.642   3.016   8.819  0.2858 -0.9015  2.4393
   11CHL1   C14  756   5.749   3.054   8.634  0.1968  0.2363 -0.7879
   11CHL1   H14  757   5.840   3.106   8.599 -0.3916  0.1702 -2.5304
   11CHL1   C15  758   5.634   3.135   8.568 -0.3650 -0.1351 -0.8030
   11CHL1  H15A  759   5.535   3.110   8.613 -0.5852  2.1022  0.0748
   11CHL1  H15B  760   5.654   3.243   8.554  1.2894 -0.3809 -0.5329
   11CHL1   C16  761   5.650   3.065   8.421  0.0002 -0.1473  0.9552
   11CHL1  H16A  762   5.545   3.045   8.388  0.0194 -0.8735  1.3024
   11CHL1  H16B  763   5.694   3.131   8.344 -3.1219  1.0374  0.0086
   11CHL1   C17  764   5.742   2.944   8.431  1.0849  0.3194  0.1787
   11CHL1   H17  765   5.846   2.980   8.420  1.1335  0.4831  1.0807
   11CHL1   C13  766   5.746   2.914   8.577 -0.3990 -0.3275 -0.1624
   11CHL1   C18  767   5.625   2.828   8.620 -0.2720  0.4478  0.1171
   11CHL1  H18A  768   5.610   2.821   8.730  1.6339 -0.0065  0.3758
   11CHL1  H18B  769   5.529   2.871   8.585 -0.7447 -0.6761 -0.0332
   11CHL1  H18C  770   5.613   2.725   8.581 -1.1444  0.3652  0.5807
   11CHL1   C12  771   5.871   2.838   8.625  0.4934  0.7304 -0.1263
   11CHL1  H12A  772   5.869   2.733   8.587 -2.2501 -0.0136  1.7923
   11CHL1  H12B  773   5.957   2.893   8.581  2.3583  0.6388  3.0571
   11CHL1   C11  774   5.873   2.837   8.779  0.5239 -0.4746  0.4342
   11CHL1  H11A  775   5.799   2.761   8.813 -0.5115  1.2616  2.2923
   11CHL1  H11B  776   5.973   2.804   8.817  0.8856  0.0135 -0.0840
   11CHL1    C9  777   5.854   2.971   8.851 -0.0741 -0.9253  0.2481
   11CHL1    H9  778   5.940   3.041   8.844 -1.1107  0.3023 -0.6711
   11CHL1   C10  779   5.834   2.975   9.007 -0.2225 -0.1938  0.0787
   11CHL1   C19  780   5.726   2.868   9.045 -0.3159  0.6724  0.2740
   11CHL1  H19A  781   5.633   2.869   8.985  0.3592 -0.1497 -0.8208
   11CHL1  H19B  782   5.766   2.765   9.034 -0.4690  0.7797 -1.7234
   11CHL1  H19C  783   5.697   2.867   9.152  0.6977  0.0335  0.5525
   11CHL1    C1  784   5.964   2.941   9.083  0.2087 -0.5251 -0.0710
   11CHL1   H1A  785   5.990   2.838   9.048  3.5006  0.2650 -0.3418
   11CHL1   H1B  786   6.043   3.012   9.050  1.4524 -0.8274  2.0545
   11CHL1    C2  787   5.953   2.940   9.236  0.1365  0.2159  0.3512
   11CHL1   H2A  788   6.055   2.920   9.274  0.4511  1.4499  0.1907
   11CHL1   H2B  789   5.876   2.867   9.268  2.5510 -2.9253 -0.5227
   11CHL1   C20  790   5.718   2.831   8.335 -0.8127 -0.1407 -0.0450
   11CHL1   H20  791   5.758   2.738   8.381  0.4379  0.9871  1.2051
   11CHL1   C21  792   5.801   2.857   8.208 -0.4946 -0.2283  0.3674
   11CHL1  H21A  793   5.776   2.797   8.118 -0.8361  0.8839 -0.2943
   11CHL1  H21B  794   5.910   2.856   8.230 -0.2984  1.0283 -0.4558
   11CHL1  H21C  795   5.779   2.963   8.182 -0.6026 -0.1608  0.7175
   11CHL1   C22  796   5.574   2.804   8.291  0.2313 -0.1971  0.1782
   11CHL1  H22A  797   5.508   2.785   8.378  1.0540 -0.9976  0.6452
   11CHL1  H22B  798   5.529   2.888   8.234 -0.2328  1.2277  2.5177
   11CHL1   C23  799   5.572   2.674   8.205  0.7344  0.2428 -0.4665
   11CHL1  H23A  800   5.623   2.694   8.108  1.6987  3.9054  0.6076
   11CHL1  H23B  801   5.636   2.603   8.261 -0.2209  1.2039  1.9655
   11CHL1   C24  802   5.433   2.618   8.170 -0.3102  0.7700 -0.5410
   11CHL1  H24A  803   5.377   2.574   8.256 -3.4352  0.7496 -2.4373
   11CHL1  H24B  804   5.364   2.703   8.152  0.5066  1.4569 -0.4522
   11CHL1   C25  805   5.433   2.527   8.051  0.6618  0.1567 -0.7766
   11CHL1   H25  806   5.479   2.581   7.965 -3.0049  1.1575 -2.2978
   11CHL1   C26  807   5.493   2.394   8.084 -0.6212 -0.8190 -0.6516
   11CHL1  H26A  808   5.599   2.409   8.113 -0.5469 -0.9259 -0.8621
   11CHL1  H26B  809   5.448   2.339   8.169 -0.9945  0.8228  0.2565
   11CHL1  H26C  810   5.505   2.323   7.999 -0.5804  2.0571 -3.2025
   11CHL1   C27  811   5.279   2.513   8.012  0.0031  0.2392 -0.0925
   11CHL1  H27A  812   5.231   2.611   7.994 -0.2976  0.2487  0.7089
   11CHL1  H27B  813   5.274   2.452   7.919 -0.7086  1.5449 -0.9337
   11CHL1  H27C  814   5.235   2.447   8.090 -0.6588 -0.1169 -0.7588
   12CHL1    C3  815   2.012   3.388   9.926  0.1334  0.4751 -0.4883
   12CHL1    H3  816   1.927   3.427   9.866 -2.2851 -2.9299  0.4108
   12CHL1    O3  817   1.989   3.395  10.071 -0.8272 -0.1412  0.8598
   12CHL1   H3'  818   2.075   3.393  10.113 -0.2700  0.4541 -0.2303
   12CHL1    C4  819   2.021   3.244   9.884 -0.3976  0.1959 -0.3298
   12CHL1   H4A  820   2.101   3.200   9.947 -0.8979 -0.1953  0.0415
   12CHL1   H4B  821   1.930   3.189   9.916 -2.7048  2.4843 -2.5209
   12CHL1    C5  822   2.047   3.232   9.732 -0.1883 -0.0891 -1.0147
   12CHL1    C6  823   1.955   3.180   9.654 -0.1096  0.0793 -0.3004
   12CHL1    H6  824   1.855   3.157   9.695 -0.7067  3.5210  0.4712
   12CHL1    C7  825   1.974   3.159   9.508 -0.1480  0.1579  0.1556
   12CHL1   H7A  826   1.941   3.065   9.458 -0.7417  1.2949 -1.6852
   12CHL1   H7B  827   1.915   3.243   9.466  1.1769  1.3945  0.6925
   12CHL1    C8  828   2.128   3.167   9.472  0.1748 -0.5909 -0.3823
   12CHL1    H8  829   2.182   3.078   9.511  1.0128 -0.0056 -0.1693
   12CHL1   C14  830   2.141   3.166   9.323 -0.2104 -0.3546  0.0162
   12CHL1   H14  831   2.067   3.242   9.290 -2.0613 -1.0140  2.2740
   12CHL1   C15  832   2.094   3.041   9.240  0.2626 -0.5159  0.3256
   12CHL1  H15A  833   2.148   2.957   9.288 -1.1445 -1.0388  1.0501
   12CHL1  H15B  834   1.985   3.024   9.249 -0.3289  1.7353 -1.5875
   12CHL1   C16  835   2.138   3.068   9.099 -0.4155 -0.0701 -0.1888
   12CHL1  H16A  836   2.189   2.975   9.067 -0.3867  0.8318 -3.0068
   12CHL1  H16B  837   2.048   3.102   9.043 -1.1477  1.4683  1.8068
   12CHL1   C17  838   2.243   3.186   9.103  0.4958 -0.2947 -0.3575
   12CHL1   H17  839   2.194   3.284   9.087  1.8984  0.2257 -1.6151
   12CHL1   C13  840   2.278   3.190   9.259 -0.4566  0.3941  0.4685
   12CHL1   C18  841   2.379   3.072   9.291  0.2838 -0.0755  0.9115
   12CHL1  H18A  842   2.398   3.058   9.400 -3.0984  1.4938  1.8410
   12CHL1  H18B  843   2.351   2.974   9.248  1.8318 -0.6812  1.2290
   12CHL1  H18C  844   2.482   3.098   9.258  0.5662 -1.5322  0.5447
   12CHL1   C12  845   2.331   3.323   9.321  0.1218  0.3541  0.2024
   12CHL1  H12A  846   2.433   3.345   9.283 -0.4482  0.4119 -1.3594
   12CHL1  H12B  847   2.253   3.401   9.307  1.9339  1.8829 -2.4514
   12CHL1   C11  848   2.337   3.311   9.470  0.0937  0.6832  0.2623
   12CHL1  H11A  849   2.408   3.231   9.501  0.4909  0.5129 -1.0248
   12CHL1  H11B  850   2.384   3.400   9.516 -1.5509  2.3963 -1.1595
   12CHL1    C9  851   2.197   3.292   9.535  0.4661  0.2261  0.0285
   12CHL1    H9  852   2.125   3.369   9.501 -0.7220  0.1027  2.1155
   12CHL1   C10  853   2.183   3.294   9.687  0.4294  0.1616  0.4062
   12CHL1   C19  854   2.303   3.210   9.746 -0.5821  0.4287 -0.2581
   12CHL1  H19A  855   2.403   3.252   9.724 -0.8144  0.0934 -2.1424
   12CHL1  H19B  856   2.290   3.227   9.855  6.2514  0.7765  0.9678
   12CHL1  H19C  857   2.298   3.102   9.721 -0.6785  0.5838 -0.9228
   12CHL1    C1  858   2.191   3.442   9.741  0.2094 -0.1632 -0.4270
   12CHL1   H1A  859   2.298   3.474   9.739  0.3804 -0.7606 -2.8121
   12CHL1   H1B  860   2.141   3.502   9.662  0.5182  0.2701 -0.2966
   12CHL1    C2  861   2.146   3.461   9.891  0.2432  0.7082  1.1181
   12CHL1   H2A  862   2.154   3.566   9.926  2.1799  0.7047  0.7965
   12CHL1   H2B  863   2.224   3.409   9.951  3.7761  3.1333 -1.0107
   12CHL1   C20  864   2.351   3.172   9.003  0.3106  0.1245 -0.4321
   12CHL1   H20  865   2.428   3.103   9.043 -1.2599 -2.3644 -1.4638
   12CHL1   C21  866   2.424   3.310   8.993 -0.3631 -0.6782  0.1302
   12CHL1  H21A  867   2.352   3.393   8.972 -0.4476 -1.0854 -1.2960
   12CHL1  H21B  868   2.498   3.311   8.910 -0.6957  1.4888 -0.1971
   12CHL1  H21C  869   2.476   3.343   9.086 -0.6060  1.7200 -0.5042
   12CHL1   C22  870   2.310   3.128   8.868  0.2283  1.0591 -0.2601
   12CHL1  H22A  871   2.400   3.120   8.803  0.9545 -1.5039  0.9341
   12CHL1  H22B  872   2.260   3.029   8.870  0.4162  0.9603 -0.3608
   12CHL1   C23  873   2.208   3.222   8.805 -0.0129 -0.2944  0.4288
   12CHL1  H23A  874   2.118   3.234   8.870  0.4622  0.0215  1.0355
   12CHL1  H23B  875   2.241   3.327   8.792 -0.6568 -0.3310 -1.9394
   12CHL1   C24  876   2.155   3.166   8.674  0.9858  0.4712  0.0678
   12CHL1  H24A  877   2.242   3.164   8.604 -0.8296 -0.8842 -2.3026
   12CHL1  H24B  878   2.122   3.061   8.686  1.5724  0.4202  1.4134
   12CHL1   C25  879   2.054   3.258   8.602 -0.3326  0.6303 -0.0485
   12CHL1   H25  880   2.077   3.358   8.645 -0.0347 -0.3253  2.1633
   12CHL1   C26  881   2.065   3.266   8.444  0.0610  0.3772 -0.3972
   12CHL1  H26A  882   2.014   3.179   8.398 -1.1394  0.8528  0.0083
   12CHL1  H26B  883   2.017   3.358   8.406  1.3601  1.9451  1.5710
   12CHL1  H26C  884   2.166   3.290   8.404 -0.4405  2.1139 -0.7103
   12CHL1   C27  885   1.908   3.227   8.648 -0.2278 -0.2638 -0.2751
   12CHL1  H27A  886   1.841   3.311   8.622  0.9006  0.4486 -0.9281
   12CHL1  H27B  887   1.876   3.145   8.580  0.7268  0.4378 -1.6047
   12CHL1  H27C  888   1.916   3.195   8.754  0.7557 -1.0742 -0.5730
   13CHL1    C3  889   2.310   4.937  10.012 -0.6189  0.0720 -0.3297
   13CHL1    H3  890   2.211   4.985  10.025 -0.7087 -0.5622  1.5088
   13CHL1    O3  891   2.369   4.959  10.139 -0.4839  0.2367 -0.0455
   13CHL1   H3'  892   2.459   4.993  10.140 -0.3018 -0.2275  1.2346
   13CHL1    C4  893   2.307   4.791   9.965  0.5719  0.1104 -0.1508
   13CHL1   H4A  894   2.409   4.748   9.972  0.7311  0.4881 -0.1391
   13CHL1   H4B  895   2.237   4.745  10.038 -0.1368  1.9329  0.3667
   13CHL1    C5  896   2.245   4.775   9.826 -1.0035  0.0004  0.3146
   13CHL1    C6  897   2.134   4.704   9.804  0.3122 -0.2327  0.0015
   13CHL1    H6  898   2.086   4.641   9.881 -1.6641  0.5602 -0.5453
   13CHL1    C7  899   2.080   4.682   9.668  0.2878  0.8843 -0.5119
   13CHL1   H7A  900   2.037   4.580   9.654 -0.2301  1.1807 -1.1264
   13CHL1   H7B  901   1.994   4.749   9.647  0.3723  0.9349 -0.6937
   13CHL1    C8  902   2.176   4.715   9.547  0.0512  0.5021  0.0088
   13CHL1    H8  903   2.254   4.637   9.548 -0.4804 -0.0337  0.8890
   13CHL1   C14  904   2.106   4.709   9.409  0.3055  0.0031  0.3773
   13CHL1   H14  905   2.026   4.786   9.411  1.3794  1.4429 -3.4381
   13CHL1   C15  906   2.024   4.585   9.372 -0.4089 -0.0232 -0.3334
   13CHL1  H15A  907   2.072   4.490   9.405 -1.0889  0.2883  1.6844
   13CHL1  H15B  908   1.925   4.594   9.421  0.3079 -0.4683  1.2854
   13CHL1   C16  909   2.013   4.605   9.220  0.3043  0.1891  0.1830
   13CHL1  H16A  910   2.047   4.509   9.176 -1.7458 -0.1788 -0.7335
   13CHL1  H16B  911   1.905   4.611   9.193 -0.1845 -1.7290  1.5315
   13CHL1   C17  912   2.100   4.728   9.179 -0.3206  0.0545  0.6464
   13CHL1   H17  913   2.037   4.819   9.194  1.3502  1.2645  0.7014
   13CHL1   C13  914   2.200   4.751   9.295 -0.3315  0.3518  0.4334
   13CHL1   C18  915   2.320   4.652   9.285  0.0781  0.6400  0.0118
   13CHL1  H18A  916   2.373   4.619   9.377  1.0417 -2.1065 -1.4104
   13CHL1  H18B  917   2.289   4.563   9.226  2.0406 -0.5863  0.7449
   13CHL1  H18C  918   2.390   4.717   9.228 -3.1289  5.4067  0.9536
   13CHL1   C12  919   2.253   4.902   9.319 -0.2270  0.3918 -0.6581
   13CHL1  H12A  920   2.332   4.925   9.244 -0.7248 -3.6616 -2.6957
   13CHL1  H12B  921   2.170   4.975   9.307 -1.6340 -1.5901 -3.9674
   13CHL1   C11  922   2.321   4.913   9.461  0.3113 -0.9676  0.4205
   13CHL1  H11A  923   2.409   4.848   9.444  0.8732 -0.3481  0.9139
   13CHL1  H11B  924   2.358   5.015   9.484 -2.0467  0.0838 -0.1533
   13CHL1    C9  925   2.244   4.851   9.579  0.0063  0.4120 -0.9393
   13CHL1    H9  926   2.155   4.916   9.586 -1.6582 -1.7116 -1.1451
   13CHL1   C10  927   2.316   4.854   9.717 -0.1793  0.8428 -0.8171
   13CHL1   C19  928   2.458   4.784   9.704  0.0327  0.1436 -0.7337
   13CHL1  H19A  929   2.444   4.688   9.650  0.1961 -0.5874  0.5069
   13CHL1  H19B  930   2.533   4.848   9.651 -0.3169  1.4607  0.3195
   13CHL1  H19C  931   2.511   4.773   9.801 -0.2083 -2.4096 -0.8357
   13CHL1    C1  932   2.332   5.001   9.773 -0.3474 -0.2306  0.0347
   13CHL1   H1A  933   2.392   5.057   9.698  1.2511 -0.7902  0.8236
   13CHL1   H1B  934   2.233   5.051   9.767  0.3934  1.1082 -2.1122
   13CHL1    C2  935   2.396   5.020   9.909  1.4179  0.4035  0.5933
   13CHL1   H2A  936   2.383   5.125   9.943  1.5823 -0.6222  4.1811
   13CHL1   H2B  937   2.504   4.993   9.914  1.0806 -0.8279  1.6451
   13CHL1   C20  938   2.148   4.703   9.035  1.7030 -0.0259 -0.2500
   13CHL1   H20  939   2.205   4.607   9.033 -0.3413 -1.5476  3.7099
   13CHL1   C21  940   2.230   4.829   8.991  0.9294  0.2125 -0.7341
   13CHL1  H21A  941   2.282   4.800   8.896 -1.3968  0.1475 -2.0609
   13CHL1  H21B  942   2.309   4.859   9.063  1.4585 -2.1170 -0.2613
   13CHL1  H21C  943   2.174   4.914   8.948  0.9382  0.7594  0.3180
   13CHL1   C22  944   2.025   4.701   8.940 -0.1117  0.2987 -0.2380
   13CHL1  H22A  945   1.959   4.616   8.970  1.7993 -0.7086  1.3979
   13CHL1  H22B  946   1.963   4.793   8.948  0.0493  0.4662 -0.8690
   13CHL1   C23  947   2.068   4.674   8.794 -0.0173 -0.3365 -0.8505
   13CHL1  H23A  948   2.115   4.769   8.760  2.2599 -0.6042  1.2916
   13CHL1  H23B  949   2.142   4.591   8.790 -2.7597 -3.0237  0.1386
   13CHL1   C24  950   1.953   4.633   8.707  0.0442 -0.7702  0.9635
   13CHL1  H24A  951   1.915   4.530   8.724 -0.2487 -1.1092 -1.4148
   13CHL1  H24B  952   1.871   4.699   8.742  1.1230  0.3718  1.4092
   13CHL1   C25  953   1.961   4.656   8.553 -0.5237  0.0340 -0.4291
   13CHL1   H25  954   1.977   4.765   8.541 -2.8240  0.5008  0.2169
   13CHL1   C26  955   2.068   4.574   8.476  0.1663  0.0992 -0.2866
   13CHL1  H26A  956   2.089   4.617   8.376  0.5575  0.1669 -0.1756
   13CHL1  H26B  957   2.156   4.590   8.542 -0.9870  0.7298  1.1617
   13CHL1  H26C  958   2.054   4.464   8.481  0.8423  0.0506  1.1340
   13CHL1   C27  959   1.822   4.635   8.489 -0.8174  0.1851 -0.2372
   13CHL1  H27A  960   1.823   4.648   8.379  0.8760 -2.8451 -0.7126
   13CHL1  H27B  961   1.775   4.538   8.516 -0.2512  0.0596  0.3212
   13CHL1  H27C  962   1.759   4.714   8.535 -2.1257 -1.9850  1.9310
   14CHL1    C3  963   5.415   1.687   9.608 -0.0295  0.2231 -0.2781
   14CHL1    H3  964   5.309   1.653   9.610 -0.3484  1.0844 -1.3944
   14CHL1    O3  965   5.429   1.745   9.734  0.1039  0.0082 -0.2912
   14CHL1   H3'  966   5.391   1.684   9.798  1.3854 -1.6806 -1.0547
   14CHL1    C4  967   5.497   1.555   9.589 -0.2633 -0.5091  0.6154
   14CHL1   H4A  968   5.604   1.582   9.600 -0.5140  0.6909  0.2257
   14CHL1   H4B  969   5.458   1.482   9.663 -0.5910 -1.4932 -0.4965
   14CHL1    C5  970   5.486   1.502   9.445 -0.5594  0.1014  0.8049
   14CHL1    C6  971   5.452   1.372   9.425  0.4527 -0.0920 -0.0624
   14CHL1    H6  972   5.433   1.310   9.515 -2.5493  1.5878  0.5949
   14CHL1    C7  973   5.421   1.312   9.289 -0.4416  0.1869  0.3609
   14CHL1   H7A  974   5.462   1.209   9.296  0.9257  0.8020  2.5470
   14CHL1   H7B  975   5.313   1.316   9.264 -0.2562 -1.4475 -0.7990
   14CHL1    C8  976   5.491   1.390   9.182  0.0253 -0.3841 -0.0775
   14CHL1    H8  977   5.601   1.377   9.189  0.2273  0.9591 -0.4501
   14CHL1   C14  978   5.465   1.325   9.042  0.2795 -0.0824 -0.1928
   14CHL1   H14  979   5.356   1.339   9.026 -0.2981 -3.6662 -0.1197
   14CHL1   C15  980   5.505   1.173   9.019  0.6335  0.1834  0.1168
   14CHL1  H15A  981   5.606   1.155   9.064 -0.3575 -2.2976  1.5597
   14CHL1  H15B  982   5.431   1.111   9.074 -1.2373  1.7163 -0.5608
   14CHL1   C16  983   5.493   1.155   8.866 -0.1436 -0.6335 -0.7791
   14CHL1  H16A  984   5.589   1.119   8.823  2.0132  4.2294 -0.7112
   14CHL1  H16B  985   5.402   1.102   8.830 -0.2354 -0.2029 -1.1952
   14CHL1   C17  986   5.465   1.304   8.812  0.0873  0.1556 -0.9573
   14CHL1   H17  987   5.354   1.308   8.816 -0.1890 -3.6920  2.4821
   14CHL1   C13  988   5.518   1.398   8.922 -0.2052 -0.4294 -0.0916
   14CHL1   C18  989   5.675   1.396   8.912 -0.2283  0.4102  0.2510
   14CHL1  H18A  990   5.713   1.438   8.816  0.9450 -2.6190 -0.7034
   14CHL1  H18B  991   5.729   1.446   8.996  0.8355 -2.6774  1.5228
   14CHL1  H18C  992   5.714   1.292   8.909 -1.1989  0.0046  1.1834
   14CHL1   C12  993   5.465   1.545   8.932  0.0009  0.2019  0.4066
   14CHL1  H12A  994   5.516   1.604   8.853  0.6703 -3.3556 -2.0571
   14CHL1  H12B  995   5.355   1.543   8.916  0.1572  0.4273 -0.8163
   14CHL1   C11  996   5.520   1.609   9.064 -0.2605 -0.5018 -0.2521
   14CHL1  H11A  997   5.631   1.609   9.067 -0.2660 -0.9133  2.9093
   14CHL1  H11B  998   5.500   1.718   9.068  1.9348  0.0915 -2.4006
   14CHL1    C9  999   5.466   1.539   9.191  0.6958 -0.2616  0.1566
   14CHL1    H9 1000   5.355   1.546   9.188  0.6943 -0.0702  0.5685
   14CHL1   C10 1001   5.516   1.596   9.329 -0.5667 -0.5552  0.5590
   14CHL1   C19 1002   5.669   1.625   9.318  0.7275 -0.4447  0.1463
   14CHL1  H19A 1003   5.734   1.542   9.285 -0.7835 -1.2667 -0.8700
   14CHL1  H19B 1004   5.695   1.709   9.249  0.1655  0.1416  0.6272
   14CHL1  H19C 1005   5.692   1.652   9.423 -0.3481 -0.0435  0.2964
   14CHL1    C1 1006   5.437   1.731   9.357 -0.3385 -0.0787  0.4264
   14CHL1   H1A 1007   5.478   1.811   9.291 -0.3117  1.0104  1.7245
   14CHL1   H1B 1008   5.331   1.702   9.342  0.1417 -0.7498 -2.1465
   14CHL1    C2 1009   5.455   1.788   9.503  0.0648 -0.1807 -0.0571
   14CHL1   H2A 1010   5.385   1.875   9.507  1.6772  1.1518  0.0212
   14CHL1   H2B 1011   5.558   1.827   9.519 -0.5017  1.2313  0.3153
   14CHL1   C20 1012   5.507   1.330   8.671 -0.1112 -0.2738  0.6007
   14CHL1   H20 1013   5.609   1.374   8.667  0.5785 -1.8811 -1.3133
   14CHL1   C21 1014   5.407   1.445   8.626 -0.0301  0.3915  1.2614
   14CHL1  H21A 1015   5.302   1.413   8.645 -0.8601  2.4570  0.5160
   14CHL1  H21B 1016   5.413   1.467   8.518 -0.8444  0.3201  1.1949
   14CHL1  H21C 1017   5.425   1.546   8.670  0.2708  0.6062  0.6556
   14CHL1   C22 1018   5.506   1.196   8.582 -0.8655 -0.1393 -0.1295
   14CHL1  H22A 1019   5.590   1.140   8.628 -0.2546  0.9947  0.1835
   14CHL1  H22B 1020   5.404   1.154   8.592 -2.1225  2.1999 -2.0296
   14CHL1   C23 1021   5.529   1.220   8.429 -0.0574 -0.1453  0.4023
   14CHL1  H23A 1022   5.453   1.293   8.393  0.5352 -0.4074 -1.5159
   14CHL1  H23B 1023   5.629   1.267   8.419 -0.0292 -0.3601 -0.4587
   14CHL1   C24 1024   5.522   1.086   8.352 -0.2632 -0.1592  0.4711
   14CHL1  H24A 1025   5.595   1.012   8.391  0.7808 -0.4942 -1.8979
   14CHL1  H24B 1026   5.424   1.039   8.376 -0.2075 -0.3338  0.3645
   14CHL1   C25 1027   5.557   1.092   8.202 -0.4111  0.0404  0.3642
   14CHL1   H25 1028   5.491   1.166   8.152 -0.2112 -2.4639 -4.1092
   14CHL1   C26 1029   5.704   1.141   8.166 -0.4239  0.6629 -1.4552
   14CHL1  H26A 1030   5.774   1.062   8.200  0.0927  1.5055 -0.5165
   14CHL1  H26B 1031   5.722   1.146   8.056  1.2754 -0.0149 -1.2326
   14CHL1  H26C 1032   5.727   1.241   8.210 -1.0402  0.7354 -1.2900
   14CHL1   C27 1033   5.535   0.948   8.151 -0.9125  0.1965  0.1020
   14CHL1  H27A 1034   5.564   0.947   8.044  1.1806  0.7701  0.6082
   14CHL1  H27B 1035   5.598   0.882   8.216  0.0296 -0.1640 -1.1414
   14CHL1  H27C 1036   5.433   0.911   8.172 -0.1076 -0.6476  3.1467
   15CHL1    C3 1037   6.698   0.906   9.908 -0.0846  0.3591  0.8197
   15CHL1    H3 1038   6.617   0.980   9.891  0.5174  0.8745  0.1510
   15CHL1    O3 1039   6.717   0.900  10.044 -0.6509 -0.2794  0.2261
   15CHL1   H3' 1040   6.746   0.985  10.076 -2.0799  0.0710  0.6754
   15CHL1    C4 1041   6.658   0.771   9.851  0.4822 -0.0687  0.1474
   15CHL1   H4A 1042   6.746   0.705   9.867  0.5804  0.0845  0.2329
   15CHL1   H4B 1043   6.568   0.722   9.895 -0.1048 -0.8660 -1.8167
   15CHL1    C5 1044   6.633   0.774   9.698 -0.0021  0.3055  0.5418
   15CHL1    C6 1045   6.520   0.725   9.637  0.3004  0.3672 -0.1742
   15CHL1    H6 1046   6.437   0.684   9.696  0.3641 -0.8268 -0.8917
   15CHL1    C7 1047   6.502   0.716   9.490  0.5235  0.2401  0.7769
   15CHL1   H7A 1048   6.454   0.622   9.454  1.3028 -0.7792  2.3026
   15CHL1   H7B 1049   6.421   0.788   9.464 -0.9037 -1.7778 -0.6066
   15CHL1    C8 1050   6.628   0.755   9.400  0.0427  0.5609  0.5136
   15CHL1    H8 1051   6.697   0.668   9.406 -1.8951 -0.9932  0.8508
   15CHL1   C14 1052   6.587   0.801   9.259  0.2566  0.2566 -0.4296
   15CHL1   H14 1053   6.533   0.898   9.260  1.0900  0.8313 -3.0384
   15CHL1   C15 1054   6.499   0.710   9.175 -0.4161  0.2229 -0.3275
   15CHL1  H15A 1055   6.545   0.610   9.188 -1.8676 -0.6450 -1.5357
   15CHL1  H15B 1056   6.392   0.705   9.204 -0.2730 -2.0639 -0.0212
   15CHL1   C16 1057   6.531   0.747   9.031  0.0669 -0.1609  0.4517
   15CHL1  H16A 1058   6.541   0.662   8.960  0.0973  0.1533  0.0825
   15CHL1  H16B 1059   6.449   0.807   8.988  1.1511  1.0829  0.0738
   15CHL1   C17 1060   6.649   0.850   9.034 -0.4563 -0.7449 -0.4531
   15CHL1   H17 1061   6.607   0.953   9.033  1.8843  0.3002  0.7386
   15CHL1   C13 1062   6.712   0.834   9.172 -0.0060 -0.1423 -0.5024
   15CHL1   C18 1063   6.807   0.717   9.156  0.3090  0.1886 -0.1540
   15CHL1  H18A 1064   6.895   0.755   9.100  0.4591  1.3102  0.8133
   15CHL1  H18B 1065   6.855   0.670   9.245 -0.6214 -0.7411 -0.1195
   15CHL1  H18C 1066   6.756   0.635   9.101  0.2017  1.1524 -1.5427
   15CHL1   C12 1067   6.785   0.953   9.234 -0.1339  0.3402 -0.5890
   15CHL1  H12A 1068   6.881   0.974   9.183  2.3378  0.7227  3.7811
   15CHL1  H12B 1069   6.717   1.041   9.236  2.5824  2.5605  1.9533
   15CHL1   C11 1070   6.828   0.929   9.377 -0.5335  0.4117 -0.9394
   15CHL1  H11A 1071   6.905   0.849   9.377 -0.5171  0.4199 -0.2951
   15CHL1  H11B 1072   6.867   1.022   9.422  0.0543  0.6924 -2.0146
   15CHL1    C9 1073   6.708   0.870   9.468 -0.4127  0.2824  0.3319
   15CHL1    H9 1074   6.635   0.954   9.475  0.3166  1.0069 -0.4722
   15CHL1   C10 1075   6.749   0.829   9.618  0.9168 -0.3172 -0.4957
   15CHL1   C19 1076   6.869   0.728   9.617 -0.3158  0.0892  0.2488
   15CHL1  H19A 1077   6.840   0.624   9.591  0.4906  0.1122 -0.7971
   15CHL1  H19B 1078   6.949   0.742   9.542  0.7171 -1.1731  1.0459
   15CHL1  H19C 1079   6.919   0.707   9.715 -0.3611 -1.0706  0.0431
   15CHL1    C1 1080   6.798   0.964   9.680 -0.1221  0.9202 -0.2739
   15CHL1   H1A 1081   6.889   0.996   9.624 -0.1815 -2.4066 -2.6367
   15CHL1   H1B 1082   6.722   1.044   9.673 -0.5738  0.5849  0.7275
   15CHL1    C2 1083   6.830   0.958   9.833  0.0909 -0.4584 -0.7302
   15CHL1   H2A 1084   6.857   1.058   9.872  0.0348 -0.9042  0.4860
   15CHL1   H2B 1085   6.914   0.888   9.854  1.9016  2.4074  2.6707
   15CHL1   C20 1086   6.740   0.854   8.910 -0.0798 -0.4883 -0.1898
   15CHL1   H20 1087   6.810   0.769   8.894  0.6987  0.0670  0.1840
   15CHL1   C21 1088   6.824   0.976   8.912 -0.2997 -0.0957  0.3896
   15CHL1  H21A 1089   6.856   1.013   8.812 -0.6714  0.0572  0.3251
   15CHL1  H21B 1090   6.921   0.962   8.963  0.0899 -1.7108 -0.7367
   15CHL1  H21C 1091   6.767   1.066   8.945 -1.4704 -0.5023 -0.4459
   15CHL1   C22 1092   6.643   0.857   8.777 -0.6650 -0.6663 -0.2251
   15CHL1  H22A 1093   6.557   0.786   8.783 -0.4723 -0.8743  0.0674
   15CHL1  H22B 1094   6.599   0.959   8.775 -1.3139 -0.9220  0.3489
   15CHL1   C23 1095   6.702   0.838   8.639 -0.1016  0.2346 -0.3964
   15CHL1  H23A 1096   6.764   0.923   8.603  0.6197  0.2521  0.8472
   15CHL1  H23B 1097   6.769   0.750   8.641 -1.2723 -0.7032 -0.9411
   15CHL1   C24 1098   6.592   0.828   8.532  0.7299  0.0409 -0.2417
   15CHL1  H24A 1099   6.530   0.740   8.557 -0.9816  1.6163  1.3593
   15CHL1  H24B 1100   6.524   0.916   8.527  1.2270  0.4136 -0.4860
   15CHL1   C25 1101   6.647   0.810   8.388  0.6043 -0.6592  0.8186
   15CHL1   H25 1102   6.697   0.907   8.366  0.5222 -0.7934  0.0009
   15CHL1   C26 1103   6.737   0.686   8.371  0.1903  0.1206 -0.0247
   15CHL1  H26A 1104   6.773   0.678   8.266  1.3936 -0.7210  0.4270
   15CHL1  H26B 1105   6.829   0.695   8.433  0.4969 -1.6948 -0.1587
   15CHL1  H26C 1106   6.681   0.593   8.395  0.4332 -0.5468 -1.8992
   15CHL1   C27 1107   6.522   0.797   8.286 -0.2298 -1.0491 -0.3526
   15CHL1  H27A 1108   6.555   0.784   8.180 -2.2083 -0.4829 -1.0756
   15CHL1  H27B 1109   6.477   0.700   8.314 -0.9705 -0.1891  1.6214
   15CHL1  H27C 1110   6.459   0.889   8.285  1.8850  0.4776 -0.3292
   16CHL1    C3 1111   0.766   1.491   9.572 -0.8236 -0.1099 -0.0621
   16CHL1    H3 1112   0.862   1.543   9.550  0.7658 -1.5522  2.8899
   16CHL1    O3 1113   0.743   1.518   9.710 -0.2548  0.1571  0.1387
   16CHL1   H3' 1114   0.752   1.614   9.716  2.2497 -0.0563  1.0350
   16CHL1    C4 1115   0.652   1.544   9.490 -0.3425 -0.1417 -0.8726
   16CHL1   H4A 1116   0.552   1.512   9.527 -0.4347 -0.0368 -1.0260
   16CHL1   H4B 1117   0.646   1.654   9.504  2.5401 -0.0344  0.0510
   16CHL1    C5 1118   0.656   1.512   9.340  0.0102  0.0894 -0.1033
   16CHL1    C6 1119   0.648   1.605   9.246 -0.6346 -0.4070  0.4913
   16CHL1    H6 1120   0.629   1.711   9.270 -3.5065 -0.6899 -0.1358
   16CHL1    C7 1121   0.656   1.571   9.101  0.1144  0.3166  0.1242
   16CHL1   H7A 1122   0.571   1.614   9.045 -1.0133  1.0242  2.2472
   16CHL1   H7B 1123   0.760   1.575   9.062  0.9065 -0.4495  2.0063
   16CHL1    C8 1124   0.636   1.426   9.076  0.5449  0.3645 -0.0478
   16CHL1    H8 1125   0.529   1.400   9.090  0.4882  0.7562  0.2365
   16CHL1   C14 1126   0.658   1.395   8.923  0.5029 -0.4281  0.1771
   16CHL1   H14 1127   0.767   1.410   8.903  0.0952  0.9596 -1.2104
   16CHL1   C15 1128   0.583   1.468   8.818  0.3439 -0.2712  0.2513
   16CHL1  H15A 1129   0.474   1.471   8.843  0.3692  1.4088  0.3197
   16CHL1  H15B 1130   0.615   1.573   8.803 -0.7445 -0.0163 -0.3945
   16CHL1   C16 1131   0.597   1.382   8.690 -0.8451 -0.1903 -0.3417
   16CHL1  H16A 1132   0.501   1.353   8.643 -1.7827  1.0172  0.7265
   16CHL1  H16B 1133   0.658   1.433   8.612 -0.0458 -1.7550 -0.7708
   16CHL1   C17 1134   0.683   1.260   8.732  0.0889  0.8625  0.1738
   16CHL1   H17 1135   0.791   1.284   8.725  0.9222 -1.9982  1.8609
   16CHL1   C13 1136   0.653   1.248   8.885 -0.1310  0.1636  0.5808
   16CHL1   C18 1137   0.511   1.197   8.902 -0.5706  0.3468 -0.2390
   16CHL1  H18A 1138   0.508   1.091   8.868 -1.1303  0.3411 -0.1673
   16CHL1  H18B 1139   0.470   1.196   9.005 -1.6206 -0.9948 -0.6433
   16CHL1  H18C 1140   0.435   1.250   8.841  0.1718  0.2590 -1.2726
   16CHL1   C12 1141   0.757   1.173   8.976 -0.3823 -0.7954  0.2617
   16CHL1  H12A 1142   0.734   1.066   8.961 -3.1129 -0.4663  1.4707
   16CHL1  H12B 1143   0.860   1.212   8.960 -1.8205  3.8397  0.6516
   16CHL1   C11 1144   0.731   1.184   9.128 -0.1930  0.6837 -0.1909
   16CHL1  H11A 1145   0.640   1.123   9.147  0.9639 -1.1734 -0.4658
   16CHL1  H11B 1146   0.819   1.145   9.182 -0.6212  2.3979  1.8766
   16CHL1    C9 1147   0.716   1.334   9.166  0.3165 -0.5463 -0.0543
   16CHL1    H9 1148   0.821   1.370   9.155  0.3576 -0.2713  1.1652
   16CHL1   C10 1149   0.685   1.358   9.315 -0.0739 -0.1070  0.3060
   16CHL1   C19 1150   0.566   1.272   9.356 -0.6359 -0.9203  0.4271
   16CHL1  H19A 1151   0.598   1.166   9.353 -0.0902 -0.7866  1.1741
   16CHL1  H19B 1152   0.525   1.291   9.457  0.6973 -0.4149  0.8969
   16CHL1  H19C 1153   0.475   1.291   9.296 -0.8815  2.8658  1.7202
   16CHL1    C1 1154   0.807   1.317   9.396 -0.0442 -0.4082  0.5266
   16CHL1   H1A 1155   0.832   1.209   9.388  0.3118 -0.3757  1.1113
   16CHL1   H1B 1156   0.890   1.374   9.350 -1.6981  0.2297 -1.8540
   16CHL1    C2 1157   0.797   1.347   9.546 -0.1117  0.7344  0.0826
   16CHL1   H2A 1158   0.894   1.313   9.590 -0.5718  1.8040  2.0141
   16CHL1   H2B 1159   0.722   1.285   9.598  0.0922 -1.0115 -1.5686
   16CHL1   C20 1160   0.662   1.137   8.642  0.0381 -0.2775  0.5141
   16CHL1   H20 1161   0.559   1.102   8.661 -0.5421  1.2543  0.2719
   16CHL1   C21 1162   0.755   1.021   8.675 -0.2924  0.3682  0.3620
   16CHL1  H21A 1163   0.861   1.054   8.671 -0.1074 -0.1372 -4.3370
   16CHL1  H21B 1164   0.742   0.931   8.611 -1.2518 -0.0957  1.1718
   16CHL1  H21C 1165   0.721   0.982   8.774 -1.6772 -1.1575 -0.6494
   16CHL1   C22 1166   0.690   1.176   8.487  0.9569  0.0769 -0.3121
   16CHL1  H22A 1167   0.628   1.264   8.459 -0.9926 -1.3995 -0.8205
   16CHL1  H22B 1168   0.793   1.217   8.487  0.1417  2.2619  0.1461
   16CHL1   C23 1169   0.654   1.068   8.386  0.4038  0.5772  0.1923
   16CHL1  H23A 1170   0.678   0.965   8.422 -1.0571  0.3986  0.7198
   16CHL1  H23B 1171   0.543   1.070   8.382  0.2186 -3.2735 -0.4821
   16CHL1   C24 1172   0.714   1.101   8.256 -0.0884 -0.3102 -0.0317
   16CHL1  H24A 1173   0.654   1.190   8.227 -3.0285 -2.2913 -0.3867
   16CHL1  H24B 1174   0.822   1.125   8.273  0.1555 -0.2644 -1.4727
   16CHL1   C25 1175   0.710   0.993   8.145 -0.3801 -0.5866 -0.3508
   16CHL1   H25 1176   0.604   0.960   8.142 -1.0391  1.4034 -0.6175
   16CHL1   C26 1177   0.743   1.061   8.009 -0.7195 -0.2222 -0.4192
   16CHL1  H26A 1178   0.851   1.088   8.007 -0.4986 -1.0904 -0.4850
   16CHL1  H26B 1179   0.714   1.002   7.920 -2.3345 -1.1209  0.6501
   16CHL1  H26C 1180   0.685   1.155   7.994 -0.5705  0.0866  0.7924
   16CHL1   C27 1181   0.813   0.874   8.161  0.3703  1.0871 -0.0413
   16CHL1  H27A 1182   0.808   0.803   8.076  0.2147  0.4118  0.5249
   16CHL1  H27B 1183   0.920   0.901   8.177  1.1520 -1.8440  0.1781
   16CHL1  H27C 1184   0.791   0.829   8.260 -0.6124  1.2435 -0.1775
   17CHL1    C3 1185   4.923   6.387   9.627 -1.0265 -0.3980  0.9552
   17CHL1    H3 1186   4.907   6.280   9.603 -0.9940 -0.0048 -1.0019
   17CHL1    O3 1187   4.956   6.420   9.759  0.5527 -0.4878  1.5035
   17CHL1   H3' 1188   4.969   6.515   9.762  0.8886 -0.4528 -0.1856
   17CHL1    C4 1189   5.038   6.426   9.534  0.7677  0.0632  0.1580
   17CHL1   H4A 1190   5.051   6.535   9.547  0.9677  0.2496 -1.4826
   17CHL1   H4B 1191   5.132   6.389   9.581  0.9386  1.9023  1.3707
   17CHL1    C5 1192   5.009   6.401   9.385  0.3136  0.4443 -0.1819
   17CHL1    C6 1193   5.080   6.322   9.304 -0.6800  0.7494 -0.0014
   17CHL1    H6 1194   5.168   6.269   9.343  0.2548  2.1316 -0.1757
   17CHL1    C7 1195   5.046   6.307   9.158  0.5626  0.0474  0.3335
   17CHL1   H7A 1196   5.139   6.305   9.098  0.7698 -0.0227  0.6544
   17CHL1   H7B 1197   4.994   6.209   9.155  0.0432  0.3017  0.7024
   17CHL1    C8 1198   4.945   6.411   9.109 -0.0881  0.2007  0.0490
   17CHL1    H8 1199   4.998   6.508   9.099 -0.7875  0.9107  2.5180
   17CHL1   C14 1200   4.898   6.366   8.979  0.6260 -0.0193  0.5754
   17CHL1   H14 1201   4.838   6.274   8.989 -0.3413  0.4300 -0.6931
   17CHL1   C15 1202   5.011   6.331   8.879 -0.2326 -0.5418 -0.3997
   17CHL1  H15A 1203   5.089   6.409   8.891 -0.8000  0.3760 -2.2083
   17CHL1  H15B 1204   5.043   6.225   8.874  0.4294 -0.2991 -2.6499
   17CHL1   C16 1205   4.950   6.365   8.741  0.3572  0.0453 -0.1182
   17CHL1  H16A 1206   5.001   6.456   8.701  0.3734  0.6892  1.3023
   17CHL1  H16B 1207   4.964   6.286   8.664 -1.2148  2.6869 -3.4043
   17CHL1   C17 1208   4.798   6.403   8.768 -0.0755  0.0374 -0.0002
   17CHL1   H17 1209   4.740   6.309   8.755  0.3062  0.0583 -2.3284
   17CHL1   C13 1210   4.798   6.464   8.912  0.3205 -0.4673  0.3629
   17CHL1   C18 1211   4.861   6.605   8.906  0.2832 -1.1083  0.9254
   17CHL1  H18A 1212   4.778   6.671   8.872  1.2050 -0.7835 -0.7913
   17CHL1  H18B 1213   4.897   6.652   9.000 -0.3832  1.6463 -0.0918
   17CHL1  H18C 1214   4.953   6.625   8.848  1.0172  1.7204  2.8590
   17CHL1   C12 1215   4.672   6.459   8.999  0.6357  0.3996 -0.3542
   17CHL1  H12A 1216   4.601   6.532   8.954 -1.6843 -0.6479  1.3461
   17CHL1  H12B 1217   4.629   6.356   9.005  0.4689  0.5591  1.9533
   17CHL1   C11 1218   4.703   6.499   9.139  0.1085 -0.0900 -0.1663
   17CHL1  H11A 1219   4.719   6.609   9.126 -2.4667  0.1963 -1.4948
   17CHL1  H11B 1220   4.615   6.483   9.205  0.6040 -0.8437  0.3274
   17CHL1    C9 1221   4.829   6.421   9.200 -0.2158  0.2856  0.1794
   17CHL1    H9 1222   4.784   6.320   9.196 -2.2545  1.1391  0.0935
   17CHL1   C10 1223   4.871   6.474   9.340 -0.6772 -0.3336 -0.1684
   17CHL1   C19 1224   4.886   6.627   9.333  0.6392 -0.0049  0.3660
   17CHL1  H19A 1225   4.932   6.664   9.427  1.2621  0.4877 -0.1252
   17CHL1  H19B 1226   4.948   6.658   9.247  2.1564  0.6905  1.6540
   17CHL1  H19C 1227   4.783   6.668   9.323  1.7795  2.4754 -2.3311
   17CHL1    C1 1228   4.757   6.436   9.436 -0.7753 -0.2604  0.2726
   17CHL1   H1A 1229   4.663   6.486   9.406 -0.8320 -0.3917  0.2303
   17CHL1   H1B 1230   4.735   6.328   9.425 -1.5656  0.0989 -2.2465
   17CHL1    C2 1231   4.787   6.461   9.584  0.6620 -0.0968  0.1326
   17CHL1   H2A 1232   4.702   6.422   9.644 -0.0086  1.5118  0.2806
   17CHL1   H2B 1233   4.803   6.568   9.612 -1.2383  0.2959 -0.1539
   17CHL1   C20 1234   4.737   6.489   8.656  0.2456  0.3270  0.6269
   17CHL1   H20 1235   4.793   6.585   8.645  2.6826 -0.8984  1.4705
   17CHL1   C21 1236   4.588   6.512   8.682  0.2784 -1.0613  0.0260
   17CHL1  H21A 1237   4.534   6.539   8.589 -0.9235  3.4420  1.7858
   17CHL1  H21B 1238   4.577   6.591   8.760 -1.0427 -1.8905  0.7124
   17CHL1  H21C 1239   4.541   6.420   8.724 -0.5780 -0.5461  0.2233
   17CHL1   C22 1240   4.747   6.422   8.513  0.2045 -0.3051 -0.0878
   17CHL1  H22A 1241   4.688   6.483   8.441 -2.1040 -0.8259  1.2441
   17CHL1  H22B 1242   4.850   6.418   8.473  0.7048 -0.8212  1.2078
   17CHL1   C23 1243   4.700   6.270   8.501 -0.4994  0.2471  0.0838
   17CHL1  H23A 1244   4.767   6.208   8.564  0.6172  0.5743 -0.7379
   17CHL1  H23B 1245   4.594   6.257   8.533 -0.2524 -2.5677  0.0042
   17CHL1   C24 1246   4.709   6.220   8.356 -0.2908  0.2932  0.5121
   17CHL1  H24A 1247   4.651   6.292   8.294  0.6156  0.0583 -0.6380
   17CHL1  H24B 1248   4.814   6.229   8.323 -0.9543  1.0788 -1.5076
   17CHL1   C25 1249   4.661   6.076   8.314  0.4590  0.2037 -0.5044
   17CHL1   H25 1250   4.688   6.004   8.394 -2.5566 -3.1308 -2.2300
   17CHL1   C26 1251   4.512   6.053   8.285 -0.0381 -0.4814  0.1305
   17CHL1  H26A 1252   4.470   6.123   8.209  2.3326  0.4971 -0.3630
   17CHL1  H26B 1253   4.486   5.954   8.244 -2.9349 -0.4089  1.5473
   17CHL1  H26C 1254   4.446   6.053   8.375 -1.6101 -1.6416 -0.9746
   17CHL1   C27 1255   4.731   6.035   8.187  0.0971  0.8348 -0.6827
   17CHL1  H27A 1256   4.696   5.938   8.145 -1.6882  0.4183  1.5737
   17CHL1  H27B 1257   4.718   6.115   8.111 -0.2350  1.0485 -0.3997
   17CHL1  H27C 1258   4.840   6.030   8.208 -0.2087 -1.5126  0.7086
   18CHL1    C3 1259   3.149   2.288   9.614 -0.1968 -0.1753 -0.1984
   18CHL1    H3 1260   3.092   2.380   9.640 -0.6413 -0.7050  0.7218
   18CHL1    O3 1261   3.199   2.238   9.733  0.2943  0.1536 -0.1378
   18CHL1   H3' 1262   3.225   2.312   9.788  2.3405  0.1096 -0.9606
   18CHL1    C4 1263   3.040   2.198   9.547 -0.2572 -0.7958  0.7785
   18CHL1   H4A 1264   3.091   2.100   9.535  1.5989  0.2577 -0.5902
   18CHL1   H4B 1265   2.959   2.201   9.622  1.2252 -0.4048  2.4167
   18CHL1    C5 1266   2.996   2.248   9.411  0.1938  0.6878  1.0720
   18CHL1    C6 1267   2.860   2.281   9.383  0.0817  0.0574 -0.2818
   18CHL1    H6 1268   2.777   2.267   9.454  0.3552 -0.0449  0.0222
   18CHL1    C7 1269   2.808   2.340   9.258  0.2830 -0.1749 -0.1140
   18CHL1   H7A 1270   2.717   2.288   9.221  0.3739  0.3107 -1.0364
   18CHL1   H7B 1271   2.782   2.443   9.288 -1.8964 -1.4056  2.6997
   18CHL1    C8 1272   2.918   2.312   9.150  1.0828  0.2202  0.1918
   18CHL1    H8 1273   2.911   2.204   9.125  0.6593  0.0800  0.8764
   18CHL1   C14 1274   2.881   2.396   9.023 -0.1563 -0.2323  0.3676
   18CHL1   H14 1275   2.886   2.495   9.074  3.3307  0.0314 -0.2249
   18CHL1   C15 1276   2.737   2.372   8.970  0.2879 -0.5236 -0.7338
   18CHL1  H15A 1277   2.723   2.262   8.971 -2.4044 -0.2918 -2.3139
   18CHL1  H15B 1278   2.652   2.415   9.027  1.3107  0.3553  0.1724
   18CHL1   C16 1279   2.745   2.434   8.831  0.3038  0.0744 -0.2692
   18CHL1  H16A 1280   2.723   2.352   8.759 -1.1102 -0.0143  0.2401
   18CHL1  H16B 1281   2.675   2.518   8.814  0.1442 -0.0599 -0.2842
   18CHL1   C17 1282   2.888   2.486   8.810 -0.3020 -0.4869  0.0629
   18CHL1   H17 1283   2.881   2.583   8.864  0.1608  0.1007 -0.9199
   18CHL1   C13 1284   2.971   2.398   8.907  0.2099 -0.1096  0.0341
   18CHL1   C18 1285   2.977   2.257   8.834 -0.0584  0.0331  0.0507
   18CHL1  H18A 1286   3.022   2.183   8.903  0.8037  2.4565  2.2569
   18CHL1  H18B 1287   2.878   2.221   8.797  0.0623  0.1707 -0.4177
   18CHL1  H18C 1288   3.047   2.268   8.749 -1.4160 -1.8397 -1.4057
   18CHL1   C12 1289   3.110   2.448   8.953  0.4273  0.4417  0.2651
   18CHL1  H12A 1290   3.174   2.430   8.864 -1.5500  4.0183 -2.1292
   18CHL1  H12B 1291   3.104   2.554   8.985  1.2474  0.3787  0.6499
   18CHL1   C11 1292   3.157   2.366   9.076 -0.1788  0.2711  0.3823
   18CHL1  H11A 1293   3.165   2.259   9.046 -0.3308 -0.0765  1.5494
   18CHL1  H11B 1294   3.260   2.397   9.102  0.0783  1.0469 -1.3766
   18CHL1    C9 1295   3.056   2.362   9.193 -0.0575  0.1467  0.6523
   18CHL1    H9 1296   3.026   2.468   9.211 -0.1710  1.5878 -5.7841
   18CHL1   C10 1297   3.108   2.291   9.321 -0.0012  0.2902  0.9004
   18CHL1   C19 1298   3.165   2.156   9.274 -0.2528  0.0949  0.7295
   18CHL1  H19A 1299   3.088   2.099   9.217 -1.1621 -1.0055  2.9086
   18CHL1  H19B 1300   3.250   2.172   9.205 -0.9590 -0.4352 -0.2821
   18CHL1  H19C 1301   3.200   2.082   9.350  4.4831  1.6053  0.3197
   18CHL1    C1 1302   3.224   2.374   9.386  0.0620  0.1025 -0.5235
   18CHL1   H1A 1303   3.318   2.380   9.328  0.7451 -1.2282  0.3875
   18CHL1   H1B 1304   3.183   2.476   9.403  1.1159 -0.0397  4.3052
   18CHL1    C2 1305   3.267   2.319   9.520  0.1151  0.3112 -0.1081
   18CHL1   H2A 1306   3.332   2.389   9.576 -0.1297 -1.1852  2.1878
   18CHL1   H2B 1307   3.328   2.229   9.497  0.2111  0.6200 -1.0769
   18CHL1   C20 1308   2.928   2.522   8.674  0.2974  0.1054 -0.2020
   18CHL1   H20 1309   2.954   2.440   8.604 -2.5560 -0.8631 -0.2640
   18CHL1   C21 1310   3.048   2.613   8.678 -0.2757  0.0285  0.2276
   18CHL1  H21A 1311   3.087   2.636   8.577 -0.5331  0.2878  0.1873
   18CHL1  H21B 1312   3.134   2.572   8.736 -0.7796  0.1845  1.1112
   18CHL1  H21C 1313   3.024   2.709   8.729  1.6025 -0.0153  1.3052
   18CHL1   C22 1314   2.811   2.588   8.596  0.0507  0.1176 -0.1477
   18CHL1  H22A 1315   2.713   2.539   8.614 -0.6678  2.1062  1.7925
   18CHL1  H22B 1316   2.786   2.681   8.651 -2.5555 -0.9855  0.6744
   18CHL1   C23 1317   2.823   2.621   8.448  0.6257  0.7060 -0.3946
   18CHL1  H23A 1318   2.927   2.646   8.417  0.7414  0.1715 -0.4420
   18CHL1  H23B 1319   2.805   2.523   8.399 -2.6699  1.2508 -0.5228
   18CHL1   C24 1320   2.720   2.729   8.397 -0.2680 -0.9257  0.7419
   18CHL1  H24A 1321   2.618   2.697   8.427 -0.3825 -0.1273  1.2476
   18CHL1  H24B 1322   2.747   2.829   8.438 -0.2494 -2.1101  3.8786
   18CHL1   C25 1323   2.715   2.738   8.240  1.2987  0.2458  0.1071
   18CHL1   H25 1324   2.706   2.638   8.194 -3.4608  0.7764 -0.5732
   18CHL1   C26 1325   2.585   2.815   8.207  0.4175 -0.1123 -0.1189
   18CHL1  H26A 1326   2.582   2.821   8.096 -0.5478 -0.8788 -0.1467
   18CHL1  H26B 1327   2.498   2.762   8.250 -0.7377  0.5009 -1.5938
   18CHL1  H26C 1328   2.599   2.917   8.249  2.8174 -1.6504  3.2648
   18CHL1   C27 1329   2.840   2.796   8.175 -0.2518 -0.0565  0.0278
   18CHL1  H27A 1330   2.857   2.904   8.194  1.2050  0.6973 -4.3421
   18CHL1  H27B 1331   2.933   2.739   8.197  0.9698 -0.5871 -5.1845
   18CHL1  H27C 1332   2.838   2.785   8.064  0.6774 -0.1520  0.0164
   19CHL1    C3 1333   6.252   1.851   9.632 -0.0176  0.4557  0.4372
   19CHL1    H3 1334   6.352   1.891   9.603  0.2197  0.9679  1.8782
   19CHL1    O3 1335   6.239   1.877   9.772 -0.3778 -0.9042  0.3209
   19CHL1   H3' 1336   6.307   1.944   9.783 -1.1727 -0.2057  1.1101
   19CHL1    C4 1337   6.147   1.933   9.548 -0.0940 -0.0162 -0.3132
   19CHL1   H4A 1338   6.040   1.926   9.575 -0.2456  2.3117 -0.1536
   19CHL1   H4B 1339   6.173   2.038   9.571  0.6997 -0.2901  0.1069
   19CHL1    C5 1340   6.156   1.899   9.405 -0.6909 -0.4959 -0.0494
   19CHL1    C6 1341   6.178   1.998   9.318 -0.2247  0.2951 -0.2938
   19CHL1    H6 1342   6.184   2.099   9.361 -3.7842 -0.7803  3.2744
   19CHL1    C7 1343   6.179   1.979   9.170 -0.1300  0.1947 -0.1085
   19CHL1   H7A 1344   6.136   2.062   9.110  0.3637 -0.5318 -1.5065
   19CHL1   H7B 1345   6.287   1.974   9.141 -0.4969  0.9336 -1.7149
   19CHL1    C8 1346   6.122   1.847   9.120 -0.7316  1.0247  0.0064
   19CHL1    H8 1347   6.012   1.861   9.127 -0.6342  1.3991  0.9337
   19CHL1   C14 1348   6.171   1.810   8.978 -0.0791 -0.3475  0.0367
   19CHL1   H14 1349   6.281   1.792   8.977 -0.1610 -0.8949 -1.0063
   19CHL1   C15 1350   6.147   1.912   8.870  0.5434 -0.7107 -0.2859
   19CHL1  H15A 1351   6.040   1.938   8.884  0.5676 -1.2008  0.9382
   19CHL1  H15B 1352   6.223   1.994   8.872  0.4197 -0.4845 -2.4388
   19CHL1   C16 1353   6.158   1.838   8.738  0.0884 -0.4027  0.1202
   19CHL1  H16A 1354   6.074   1.868   8.672  1.0467  1.9989 -0.1060
   19CHL1  H16B 1355   6.256   1.854   8.686 -0.5747  1.0035 -0.7806
   19CHL1   C17 1356   6.150   1.686   8.769 -0.4848 -0.5037 -0.1702
   19CHL1   H17 1357   6.254   1.651   8.756 -1.1567 -1.5470 -3.7529
   19CHL1   C13 1358   6.101   1.689   8.917  0.6476 -0.1448  0.3912
   19CHL1   C18 1359   5.948   1.710   8.928 -0.0656 -0.6880 -0.3746
   19CHL1  H18A 1360   5.900   1.612   8.907  0.1671 -0.9301  0.1816
   19CHL1  H18B 1361   5.911   1.726   9.032 -0.3951 -0.0012 -0.5960
   19CHL1  H18C 1362   5.894   1.765   8.849 -0.7961 -2.3891 -1.1098
   19CHL1   C12 1363   6.144   1.565   8.999 -0.1566 -0.0235 -0.0696
   19CHL1  H12A 1364   6.084   1.477   8.969  1.1795 -0.5506 -1.3285
   19CHL1  H12B 1365   6.251   1.540   8.986  0.0081  1.3440 -1.7262
   19CHL1   C11 1366   6.111   1.588   9.149 -0.0442 -0.8014 -0.6501
   19CHL1  H11A 1367   6.003   1.580   9.171 -0.5074 -2.5695 -3.0907
   19CHL1  H11B 1368   6.149   1.502   9.208  0.5057 -0.7065 -0.8532
   19CHL1    C9 1369   6.162   1.726   9.214 -0.1673 -0.0931 -0.1409
   19CHL1    H9 1370   6.273   1.730   9.211 -0.1587 -0.6548 -0.8663
   19CHL1   C10 1371   6.137   1.749   9.366  0.6221  0.3211 -0.1491
   19CHL1   C19 1372   5.990   1.709   9.385 -0.2129  0.8808 -0.2602
   19CHL1  H19A 1373   5.922   1.750   9.307 -2.5093 -0.4889  0.9332
   19CHL1  H19B 1374   5.982   1.599   9.385 -0.4415  0.8918 -1.1037
   19CHL1  H19C 1375   5.955   1.739   9.486  0.2422  3.0786 -0.6994
   19CHL1    C1 1376   6.241   1.667   9.460  0.9764 -0.6089 -0.4441
   19CHL1   H1A 1377   6.229   1.558   9.440  2.5708 -0.8833 -0.0053
   19CHL1   H1B 1378   6.348   1.691   9.444  0.6919  2.5763  1.6019
   19CHL1    C2 1379   6.223   1.707   9.606  0.8395 -0.0086  0.2442
   19CHL1   H2A 1380   6.305   1.656   9.661  1.4752  0.2926 -0.4118
   19CHL1   H2B 1381   6.125   1.670   9.642 -0.3641  1.7075 -1.1163
   19CHL1   C20 1382   6.073   1.600   8.672  0.1532  1.0030 -0.1417
   19CHL1   H20 1383   5.965   1.621   8.682  0.0433 -0.3629  2.7015
   19CHL1   C21 1384   6.092   1.449   8.712  0.8226 -0.0673 -0.9436
   19CHL1  H21A 1385   6.009   1.424   8.782 -0.7501  0.0250 -2.7142
   19CHL1  H21B 1386   6.191   1.436   8.763  0.8527  1.4617 -0.5742
   19CHL1  H21C 1387   6.089   1.388   8.619  1.2253  0.9019 -1.6048
   19CHL1   C22 1388   6.122   1.630   8.519 -0.0746 -0.0203  0.1856
   19CHL1  H22A 1389   6.090   1.730   8.484 -0.6194 -0.8812 -1.9193
   19CHL1  H22B 1390   6.232   1.644   8.518 -0.0626  0.1239 -2.4839
   19CHL1   C23 1391   6.097   1.524   8.414 -0.3369  0.3703  0.0672
   19CHL1  H23A 1392   6.176   1.449   8.434  0.7659  1.6395  0.5803
   19CHL1  H23B 1393   5.997   1.479   8.435 -0.2891  0.3037  0.1505
   19CHL1   C24 1394   6.110   1.581   8.279 -0.6939  0.1983  0.3824
   19CHL1  H24A 1395   6.023   1.649   8.260 -1.0715 -0.8365 -1.9548
   19CHL1  H24B 1396   6.200   1.644   8.261 -2.0234  2.1630  0.2609
   19CHL1   C25 1397   6.082   1.475   8.162  0.4291  0.6034  0.7755
   19CHL1   H25 1398   5.976   1.445   8.173  0.8667 -0.5905  2.0551
   19CHL1   C26 1399   6.088   1.539   8.022 -0.7440  0.2838 -0.1458
   19CHL1  H26A 1400   6.068   1.459   7.948  1.7282  0.9204 -1.6023
   19CHL1  H26B 1401   6.016   1.624   8.013 -1.2737 -0.1237  0.1592
   19CHL1  H26C 1402   6.192   1.577   8.017 -0.0509 -1.2131  1.5810
   19CHL1   C27 1403   6.164   1.351   8.172  0.0362  0.1332 -0.4660
   19CHL1  H27A 1404   6.156   1.305   8.273 -2.7630 -0.2443 -0.7788
   19CHL1  H27B 1405   6.137   1.274   8.097 -1.1088  0.7862 -0.7430
   19CHL1  H27C 1406   6.269   1.373   8.144  0.5140 -0.0131  1.0724
   20CHL1    C3 1407   0.705   0.419   9.955  0.0544 -0.4896  0.1620
   20CHL1    H3 1408   0.737   0.513   9.906  0.9835  0.4899  2.5114
   20CHL1    O3 1409   0.751   0.419  10.087 -0.2427 -0.4679  0.2730
   20CHL1   H3' 1410   0.735   0.328  10.115  1.4662 -1.4040 -1.4711
   20CHL1    C4 1411   0.549   0.428   9.950 -0.1467  0.2328  0.0548
   20CHL1   H4A 1412   0.507   0.334   9.992  3.1191 -0.9720  0.8925
   20CHL1   H4B 1413   0.503   0.512  10.006 -0.4084 -0.0462  0.2684
   20CHL1    C5 1414   0.506   0.435   9.802  0.1482 -0.2353  1.3190
   20CHL1    C6 1415   0.447   0.546   9.743 -0.0812  0.0146  0.2785
   20CHL1    H6 1416   0.418   0.635   9.801 -0.4083  0.0943  0.0016
   20CHL1    C7 1417   0.391   0.549   9.603  0.5913  0.2951  0.2176
   20CHL1   H7A 1418   0.287   0.587   9.610  0.1358 -0.8453 -0.2292
   20CHL1   H7B 1419   0.452   0.617   9.540  0.9905 -0.4441 -0.2097
   20CHL1    C8 1420   0.393   0.408   9.536  0.4666  0.4162  0.0319
   20CHL1    H8 1421   0.308   0.353   9.582 -1.0875  2.3946 -0.3534
   20CHL1   C14 1422   0.375   0.431   9.386  0.0054 -0.2490 -0.9644
   20CHL1   H14 1423   0.459   0.498   9.358  0.9976  0.2138  2.6038
   20CHL1   C15 1424   0.247   0.509   9.330 -0.5853  0.0444 -0.0832
   20CHL1  H15A 1425   0.153   0.470   9.374 -0.9464 -0.2391 -1.0961
   20CHL1  H15B 1426   0.273   0.615   9.354  2.8931 -0.6202 -0.4081
   20CHL1   C16 1427   0.253   0.475   9.181  0.1948 -0.3314  0.2826
   20CHL1  H16A 1428   0.148   0.454   9.151 -0.2430  1.2321  0.6264
   20CHL1  H16B 1429   0.265   0.570   9.124 -1.3405  0.0051  0.4720
   20CHL1   C17 1430   0.365   0.374   9.156  0.5395  0.0166  0.6940
   20CHL1   H17 1431   0.461   0.424   9.132  0.1349 -0.7435 -3.0283
   20CHL1   C13 1432   0.385   0.305   9.295 -0.5255 -0.7659 -0.6589
   20CHL1   C18 1433   0.267   0.212   9.332 -0.4729  0.4491 -0.0617
   20CHL1  H18A 1434   0.169   0.256   9.305 -0.0409  1.3200 -0.2630
   20CHL1  H18B 1435   0.281   0.119   9.272 -1.5618  0.3991 -0.2597
   20CHL1  H18C 1436   0.261   0.181   9.439  1.7903 -1.1078 -0.3015
   20CHL1   C12 1437   0.515   0.220   9.320 -0.0362 -0.7337 -0.2428
   20CHL1  H12A 1438   0.518   0.123   9.266 -0.7638  0.1072 -1.8620
   20CHL1  H12B 1439   0.596   0.286   9.281 -3.3853  2.9963 -1.5672
   20CHL1   C11 1440   0.531   0.210   9.468 -0.1821 -0.0123  0.4244
   20CHL1  H11A 1441   0.454   0.142   9.507  0.1828 -0.1599  0.8980
   20CHL1  H11B 1442   0.629   0.159   9.485 -0.5823 -1.6518 -1.8274
   20CHL1    C9 1443   0.528   0.341   9.556  0.0180  0.3726  0.4266
   20CHL1    H9 1444   0.594   0.417   9.508 -0.6240  0.0597 -1.0226
   20CHL1   C10 1445   0.547   0.319   9.704 -0.2799 -0.3285  0.3260
   20CHL1   C19 1446   0.482   0.188   9.748  0.4773  0.6981 -0.7914
   20CHL1  H19A 1447   0.539   0.112   9.690  0.4602  1.3176 -1.6525
   20CHL1  H19B 1448   0.499   0.162   9.854  1.0242  0.5860 -0.9022
   20CHL1  H19C 1449   0.374   0.185   9.722  0.8119  1.9435 -2.5070
   20CHL1    C1 1450   0.699   0.312   9.724 -0.5581 -0.4692  0.5061
   20CHL1   H1A 1451   0.739   0.229   9.661 -1.9224  1.3781 -3.1311
   20CHL1   H1B 1452   0.738   0.406   9.680 -0.3924  0.2267  2.0810
   20CHL1    C2 1453   0.762   0.300   9.865 -0.3987  0.0752  0.1256
   20CHL1   H2A 1454   0.873   0.290   9.865 -0.5520 -3.3591 -2.0359
   20CHL1   H2B 1455   0.730   0.202   9.908  0.1317 -0.6710 -1.1122
   20CHL1   C20 1456   0.320   0.287   9.035  0.3491  0.5741  0.8478
   20CHL1   H20 1457   0.227   0.229   9.053  0.5280 -0.4146 -1.1074
   20CHL1   C21 1458   0.412   0.167   9.015 -0.1153  0.0883  0.1403
   20CHL1  H21A 1459   0.372   0.108   8.929 -0.4041 -0.5236  0.6900
   20CHL1  H21B 1460   0.401   0.097   9.100 -1.8087 -1.0525 -0.9480
   20CHL1  H21C 1461   0.519   0.194   9.002  0.5919 -1.8252  1.4581
   20CHL1   C22 1462   0.299   0.365   8.905 -0.0788 -0.0830 -0.6066
   20CHL1  H22A 1463   0.242   0.460   8.915 -0.5992 -0.5333  0.9366
   20CHL1  H22B 1464   0.404   0.390   8.877  0.0410  0.8706  0.5904
   20CHL1   C23 1465   0.225   0.293   8.797  0.3802  0.3837  0.4265
   20CHL1  H23A 1466   0.274   0.199   8.762  0.9504  1.4120 -1.6855
   20CHL1  H23B 1467   0.127   0.263   8.839  1.2830  2.1651  4.2095
   20CHL1   C24 1468   0.208   0.382   8.673 -0.9351 -0.1953  0.0880
   20CHL1  H24A 1469   0.170   0.480   8.708 -0.8635 -0.7864  1.9332
   20CHL1  H24B 1470   0.308   0.393   8.626 -0.4956 -1.5171  0.6647
   20CHL1   C25 1471   0.120   0.319   8.562 -0.2606 -0.1160  0.2112
   20CHL1   H25 1472   0.028   0.283   8.613 -0.5389  1.0239  0.5445
   20CHL1   C26 1473   0.067   0.424   8.460  0.2731 -0.2187 -0.3269
   20CHL1  H26A 1474   0.003   0.368   8.389 -1.7788  0.9010  0.5094
   20CHL1  H26B 1475   0.003   0.495   8.518 -2.1029 -2.7011  0.3517
   20CHL1  H26C 1476   0.152   0.472   8.408  0.0601  0.9060  0.3242
   20CHL1   C27 1477   0.190   0.207   8.497 -0.0680  0.4964  0.2395
   20CHL1  H27A 1478   0.240   0.138   8.568  0.0076  0.2837 -0.0194
   20CHL1  H27B 1479   0.117   0.152   8.434 -0.5530  0.6109  0.6902
   20CHL1  H27C 1480   0.266   0.248   8.427  0.4904  0.3521  0.7497
   21CHL1    C3 1481   2.626   2.689  10.070  0.1819  0.3459  0.1660
   21CHL1    H3 1482   2.578   2.598  10.028  1.9621 -1.1128  1.1266
   21CHL1    O3 1483   2.613   2.668  10.209  0.1727  0.5037  0.3433
   21CHL1   H3' 1484   2.520   2.647  10.224  0.7432 -1.6440  1.2000
   21CHL1    C4 1485   2.772   2.698  10.025  0.3038  0.3041  0.3402
   21CHL1   H4A 1486   2.819   2.782  10.082  0.6904  0.3917 -0.1030
   21CHL1   H4B 1487   2.822   2.604  10.055 -2.1972 -0.3468  2.8955
   21CHL1    C5 1488   2.779   2.711   9.874 -0.2576  0.1283  0.2767
   21CHL1    C6 1489   2.842   2.621   9.792  0.0111 -0.9905 -0.0973
   21CHL1    H6 1490   2.892   2.533   9.834 -0.9061 -0.8214  1.4004
   21CHL1    C7 1491   2.872   2.652   9.646 -0.4616 -0.4601  0.3444
   21CHL1   H7A 1492   2.968   2.619   9.601 -0.4303  1.7045 -1.3487
   21CHL1   H7B 1493   2.803   2.591   9.584 -0.7995  0.3487 -0.0903
   21CHL1    C8 1494   2.839   2.794   9.605  1.0160  0.1203  0.2101
   21CHL1    H8 1495   2.927   2.857   9.633  2.2597 -1.2394 -0.4872
   21CHL1   C14 1496   2.829   2.812   9.451  0.3135 -0.2967 -0.2249
   21CHL1   H14 1497   2.745   2.752   9.410  0.6499 -0.0954 -1.2102
   21CHL1   C15 1498   2.939   2.755   9.361  0.1568  0.6673 -0.8886
   21CHL1  H15A 1499   3.040   2.774   9.405 -0.0546 -1.0813  0.4492
   21CHL1  H15B 1500   2.936   2.644   9.358  4.2412  0.3809 -0.3061
   21CHL1   C16 1501   2.908   2.819   9.228 -0.0257  0.1612 -0.2699
   21CHL1  H16A 1502   2.999   2.835   9.167  0.2603  0.7111  0.2989
   21CHL1  H16B 1503   2.844   2.752   9.165  0.1145  1.0283 -1.3746
   21CHL1   C17 1504   2.819   2.945   9.253 -0.1746 -0.2711  0.6247
   21CHL1   H17 1505   2.716   2.936   9.212  0.4866  1.8958 -1.7630
   21CHL1   C13 1506   2.815   2.961   9.408 -0.4392  0.3103  0.2368
   21CHL1   C18 1507   2.939   3.044   9.458  0.1001  0.3672  0.6514
   21CHL1  H18A 1508   2.960   3.042   9.567  0.6707 -1.9931  0.5547
   21CHL1  H18B 1509   3.028   3.000   9.407 -1.3840 -2.1781  0.0453
   21CHL1  H18C 1510   2.927   3.150   9.429 -2.4540  0.2981  1.2814
   21CHL1   C12 1511   2.679   3.007   9.471 -0.2484  0.2986  0.0832
   21CHL1  H12A 1512   2.645   3.109   9.445 -0.4406  0.4286  0.8364
   21CHL1  H12B 1513   2.604   2.937   9.429  1.3968 -1.0129 -0.7854
   21CHL1   C11 1514   2.676   2.991   9.623 -0.0687 -0.2537  0.1200
   21CHL1  H11A 1515   2.745   3.073   9.654  0.5425 -1.0794  1.0039
   21CHL1  H11B 1516   2.574   3.003   9.664  0.1449 -1.6543  1.1434
   21CHL1    C9 1517   2.714   2.847   9.672 -0.7814 -0.6658 -0.1184
   21CHL1    H9 1518   2.634   2.775   9.644  0.3843 -1.6468 -1.1030
   21CHL1   C10 1519   2.724   2.839   9.824  0.1236 -0.1580  0.0174
   21CHL1   C19 1520   2.824   2.958   9.875  0.4707 -0.2956 -0.4087
   21CHL1  H19A 1521   2.915   2.970   9.813  1.5720 -2.3735  0.7234
   21CHL1  H19B 1522   2.767   3.053   9.867  0.2409 -0.4466 -0.6207
   21CHL1  H19C 1523   2.858   2.947   9.979  0.3132 -1.6136 -0.4781
   21CHL1    C1 1524   2.583   2.852   9.875  0.2619 -0.3856 -0.0284
   21CHL1   H1A 1525   2.541   2.952   9.849  0.1969 -0.6321 -0.9253
   21CHL1   H1B 1526   2.515   2.786   9.817 -0.8122  1.6918 -1.2603
   21CHL1    C2 1527   2.562   2.826  10.028  0.3869  0.3906  0.5260
   21CHL1   H2A 1528   2.451   2.831  10.038  0.1016 -0.9954 -1.3487
   21CHL1   H2B 1529   2.615   2.903  10.088  2.2255  0.1197 -0.6618
   21CHL1   C20 1530   2.873   3.059   9.162  0.3402 -0.7855  0.4110
   21CHL1   H20 1531   2.977   3.086   9.191  0.6759 -0.8821 -0.6726
   21CHL1   C21 1532   2.782   3.187   9.182  0.2422  0.1632  0.0392
   21CHL1  H21A 1533   2.809   3.240   9.276  0.0926  0.5991 -0.1628
   21CHL1  H21B 1534   2.675   3.156   9.179  0.0050  0.9889 -0.2987
   21CHL1  H21C 1535   2.804   3.255   9.097  1.2213 -1.7446 -1.2980
   21CHL1   C22 1536   2.868   3.007   9.014  0.6122  0.0602 -0.5194
   21CHL1  H22A 1537   2.911   2.905   9.008  1.7902  0.5474 -0.6476
   21CHL1  H22B 1538   2.761   2.994   8.988  0.4299 -0.4408  0.4515
   21CHL1   C23 1539   2.928   3.107   8.910  0.4147  0.3788 -0.5983
   21CHL1  H23A 1540   2.877   3.204   8.923 -3.3584 -1.4572 -0.5836
   21CHL1  H23B 1541   3.035   3.119   8.938 -0.0105 -1.3408  2.1833
   21CHL1   C24 1542   2.912   3.049   8.774 -0.3652 -0.0046 -0.1872
   21CHL1  H24A 1543   2.908   2.938   8.778 -3.5120 -0.1517 -2.8346
   21CHL1  H24B 1544   2.818   3.092   8.734 -0.3161  0.4342  0.1635
   21CHL1   C25 1545   3.013   3.097   8.659  0.1227  1.3238  0.1620
   21CHL1   H25 1546   3.118   3.077   8.688 -0.2022  0.5000  0.8111
   21CHL1   C26 1547   2.993   3.036   8.514  0.4281 -0.6686 -0.4814
   21CHL1  H26A 1548   3.086   3.038   8.453  0.7282 -0.0583 -0.0145
   21CHL1  H26B 1549   2.957   2.931   8.521 -1.7143 -0.1072 -1.8896
   21CHL1  H26C 1550   2.917   3.094   8.456  1.3069 -0.1760 -1.1579
   21CHL1   C27 1551   3.005   3.241   8.639  0.2153 -0.5291 -0.7956
   21CHL1  H27A 1552   2.898   3.271   8.642  1.0751  2.9673 -0.7730
   21CHL1  H27B 1553   3.049   3.280   8.734 -1.7994 -1.4630  0.6015
   21CHL1  H27C 1554   3.065   3.280   8.554  2.0185 -3.2826 -0.9192
   22CHL1    C3 1555   2.751   4.344   9.822  0.4564  0.8689 -0.1982
   22CHL1    H3 1556   2.716   4.449   9.816 -0.5847  0.4375 -3.1410
   22CHL1    O3 1557   2.810   4.333   9.947 -0.5924  0.3014  0.0102
   22CHL1   H3' 1558   2.893   4.380   9.937 -0.4721  0.0404 -0.2400
   22CHL1    C4 1559   2.636   4.245   9.804 -0.5744  0.0871 -0.6201
   22CHL1   H4A 1560   2.689   4.150   9.824 -0.5632  0.2863  0.3301
   22CHL1   H4B 1561   2.561   4.268   9.883  0.5822  1.0746  0.2336
   22CHL1    C5 1562   2.564   4.254   9.673 -0.6607  0.2389  0.7015
   22CHL1    C6 1563   2.435   4.270   9.660 -0.0164 -0.5044 -1.2491
   22CHL1    H6 1564   2.365   4.286   9.744  0.5924 -2.0359 -0.4152
   22CHL1    C7 1565   2.370   4.271   9.530 -0.3094 -0.0898  0.5882
   22CHL1   H7A 1566   2.278   4.209   9.535 -1.1309  0.5519 -3.3022
   22CHL1   H7B 1567   2.336   4.374   9.504 -0.0444 -0.4929 -1.5940
   22CHL1    C8 1568   2.452   4.221   9.403  0.4098  0.6537 -0.0287
   22CHL1    H8 1569   2.445   4.110   9.405 -1.0565  0.7278  1.4714
   22CHL1   C14 1570   2.386   4.271   9.275  0.6639 -0.2805  0.8084
   22CHL1   H14 1571   2.388   4.382   9.264  0.5010 -0.2786  0.7868
   22CHL1   C15 1572   2.238   4.237   9.255  0.4749  0.2997 -0.9160
   22CHL1  H15A 1573   2.215   4.132   9.281  1.1027 -0.0997 -1.9177
   22CHL1  H15B 1574   2.161   4.292   9.314 -1.7647 -0.5752 -2.8760
   22CHL1   C16 1575   2.216   4.252   9.105 -0.5553  0.8759  0.0366
   22CHL1  H16A 1576   2.166   4.166   9.057 -0.4671  1.4454 -1.0949
   22CHL1  H16B 1577   2.160   4.345   9.087 -3.0030 -0.4958  0.1719
   22CHL1   C17 1578   2.355   4.278   9.047  0.0135 -0.3825  0.1688
   22CHL1   H17 1579   2.367   4.389   9.055  0.4247 -0.4705  0.7847
   22CHL1   C13 1580   2.458   4.222   9.151 -0.0107  0.4735  0.1687
   22CHL1   C18 1581   2.455   4.066   9.139  0.1328 -0.2238 -0.3555
   22CHL1  H18A 1582   2.517   4.032   9.054  0.3938 -2.9655  0.8088
   22CHL1  H18B 1583   2.504   4.025   9.230 -2.0245 -0.6243  0.7066
   22CHL1  H18C 1584   2.349   4.035   9.123  0.2535 -1.1283  0.5082
   22CHL1   C12 1585   2.605   4.271   9.148 -1.0036  0.0808 -0.4215
   22CHL1  H12A 1586   2.649   4.223   9.058 -0.7248 -1.1032  0.3216
   22CHL1  H12B 1587   2.606   4.381   9.132  2.2192  0.8769  3.3751
   22CHL1   C11 1588   2.682   4.246   9.283 -0.2650  0.5662  0.6268
   22CHL1  H11A 1589   2.714   4.140   9.282 -2.2774 -0.0762 -0.6761
   22CHL1  H11B 1590   2.781   4.296   9.273  1.1574 -1.8272  1.9962
   22CHL1    C9 1591   2.597   4.270   9.411  0.0185 -0.5128 -0.3431
   22CHL1    H9 1592   2.604   4.381   9.419  1.1560 -0.3922 -2.1940
   22CHL1   C10 1593   2.664   4.238   9.551  0.5280  0.1347  0.2332
   22CHL1   C19 1594   2.718   4.092   9.551 -0.6457  0.0735  0.1667
   22CHL1  H19A 1595   2.775   4.065   9.642 -0.6173  1.1881  0.4954
   22CHL1  H19B 1596   2.641   4.015   9.533  0.2617 -0.4799 -1.5893
   22CHL1  H19C 1597   2.792   4.078   9.469 -3.1878  1.0685 -2.4837
   22CHL1    C1 1598   2.784   4.336   9.568 -0.8705 -0.0216 -0.3837
   22CHL1   H1A 1599   2.859   4.320   9.489  0.0895  2.4437 -0.0429
   22CHL1   H1B 1600   2.762   4.444   9.558  2.3686  0.7257 -0.4026
   22CHL1    C2 1601   2.846   4.331   9.712 -0.1989  0.8194 -0.0979
   22CHL1   H2A 1602   2.923   4.412   9.716  0.9444  0.4002 -5.3782
   22CHL1   H2B 1603   2.902   4.235   9.721 -0.2225  0.8391  0.2749
   22CHL1   C20 1604   2.360   4.243   8.894 -0.6562 -0.1576 -0.5064
   22CHL1   H20 1605   2.366   4.133   8.877  0.1555 -0.1369 -0.3904
   22CHL1   C21 1606   2.486   4.311   8.826  0.0942  0.1521 -0.2492
   22CHL1  H21A 1607   2.559   4.336   8.906 -0.6167  0.3805  0.3410
   22CHL1  H21B 1608   2.443   4.406   8.791 -2.2925 -0.5955  0.4625
   22CHL1  H21C 1609   2.531   4.257   8.740 -0.2972 -0.6636  0.0466
   22CHL1   C22 1610   2.229   4.292   8.822  0.3268  0.3880 -0.0386
   22CHL1  H22A 1611   2.134   4.260   8.871 -1.6169  1.0174 -3.1005
   22CHL1  H22B 1612   2.228   4.403   8.828 -1.2554  0.5448 -1.9881
   22CHL1   C23 1613   2.221   4.245   8.672  0.6199  0.0644  0.1648
   22CHL1  H23A 1614   2.127   4.289   8.633 -0.1968 -1.8100 -0.1330
   22CHL1  H23B 1615   2.306   4.289   8.616 -0.5891  0.3373 -1.5364
   22CHL1   C24 1616   2.220   4.097   8.646  0.3081  0.6213 -0.1954
   22CHL1  H24A 1617   2.305   4.044   8.695 -0.0714  0.3601  0.1814
   22CHL1  H24B 1618   2.129   4.053   8.692  0.5393  1.2831  0.9280
   22CHL1   C25 1619   2.227   4.058   8.492  0.4196 -0.2713  0.4957
   22CHL1   H25 1620   2.227   3.946   8.491 -0.6217 -0.2744 -0.1729
   22CHL1   C26 1621   2.101   4.096   8.421 -0.0772  0.0919 -0.3335
   22CHL1  H26A 1622   2.010   4.069   8.479 -0.4816  0.1833 -0.9215
   22CHL1  H26B 1623   2.103   4.207   8.410  2.0984  0.3630  1.7239
   22CHL1  H26C 1624   2.103   4.054   8.319  1.3258 -0.8112  0.0350
   22CHL1   C27 1625   2.346   4.106   8.411 -0.4183 -0.2835 -0.3481
   22CHL1  H27A 1626   2.435   4.074   8.469 -2.5754 -1.4951  2.5563
   22CHL1  H27B 1627   2.360   4.045   8.320 -1.6089 -2.2485  0.7263
   22CHL1  H27C 1628   2.339   4.209   8.371  1.0338 -0.1205 -0.2611
   23CHL1    C3 1629   4.244   6.176   9.795  0.2210  0.9356  0.0927
   23CHL1    H3 1630   4.209   6.282   9.802 -2.0907  0.3764 -1.6358
   23CHL1    O3 1631   4.239   6.135   9.930 -0.0387  0.3008 -0.0078
   23CHL1   H3' 1632   4.283   6.050   9.917 -1.4825 -0.3477 -0.9319
   23CHL1    C4 1633   4.145   6.103   9.717 -0.2711 -0.0023 -0.4777
   23CHL1   H4A 1634   4.163   5.993   9.723 -1.6342 -0.2974 -1.3499
   23CHL1   H4B 1635   4.052   6.121   9.774 -0.3861  2.2212 -1.2825
   23CHL1    C5 1636   4.142   6.154   9.574 -0.5271 -0.3999 -0.2224
   23CHL1    C6 1637   4.039   6.211   9.523 -0.7316 -0.1485 -0.1554
   23CHL1    H6 1638   3.945   6.217   9.580 -0.7087 -0.5281 -0.0729
   23CHL1    C7 1639   4.035   6.260   9.385  0.8278 -0.4947  0.0907
   23CHL1   H7A 1640   3.934   6.245   9.343 -1.0587 -0.0938  4.0469
   23CHL1   H7B 1641   4.048   6.370   9.388 -2.6031  0.0186  0.1096
   23CHL1    C8 1642   4.149   6.195   9.294  0.4179  0.1390 -0.4955
   23CHL1    H8 1643   4.111   6.091   9.288  0.6257 -0.0341  0.9043
   23CHL1   C14 1644   4.166   6.261   9.162  0.1856 -0.8447 -0.4921
   23CHL1   H14 1645   4.205   6.363   9.179  0.6523 -1.0318 -0.4228
   23CHL1   C15 1646   4.038   6.282   9.090 -0.0646 -0.0506 -0.1632
   23CHL1  H15A 1647   3.983   6.187   9.106 -1.7694  0.5869 -1.7910
   23CHL1  H15B 1648   3.975   6.364   9.132  0.8867 -0.3374  1.9647
   23CHL1   C16 1649   4.081   6.292   8.942 -1.1413  0.4451  0.0240
   23CHL1  H16A 1650   4.012   6.230   8.880 -2.5792  2.4858 -0.5033
   23CHL1  H16B 1651   4.062   6.393   8.901 -0.9327  1.3016  1.9559
   23CHL1   C17 1652   4.235   6.260   8.934 -0.0763  0.1111  0.1321
   23CHL1   H17 1653   4.290   6.356   8.925 -0.9181  0.4869 -1.4994
   23CHL1   C13 1654   4.264   6.196   9.074  0.5897  0.9129  0.9737
   23CHL1   C18 1655   4.239   6.038   9.061  0.7579  0.1335  0.8265
   23CHL1  H18A 1656   4.246   6.000   9.165  0.7525  0.6481  1.0152
   23CHL1  H18B 1657   4.134   6.026   9.024  0.5973  0.3551  1.2065
   23CHL1  H18C 1658   4.318   5.995   8.996 -0.5289  0.3222 -0.9424
   23CHL1   C12 1659   4.404   6.229   9.140  0.3866  0.1204 -0.4479
   23CHL1  H12A 1660   4.487   6.197   9.073  0.6346  0.2670 -0.2104
   23CHL1  H12B 1661   4.412   6.340   9.142 -0.8424  0.2099  0.8896
   23CHL1   C11 1662   4.417   6.169   9.281  0.8005 -0.7834  0.8781
   23CHL1  H11A 1663   4.439   6.060   9.286 -0.6380 -1.2391 -1.3343
   23CHL1  H11B 1664   4.508   6.216   9.323  3.1543 -2.2243 -2.1361
   23CHL1    C9 1665   4.286   6.201   9.367  0.1467 -0.3561  0.1760
   23CHL1    H9 1666   4.295   6.309   9.392 -0.7919 -0.2771  0.2098
   23CHL1   C10 1667   4.282   6.136   9.503 -0.6761  0.3100 -0.3204
   23CHL1   C19 1668   4.327   5.984   9.490 -0.2072 -0.8946 -0.4078
   23CHL1  H19A 1669   4.431   5.963   9.457 -0.1057 -1.6093  0.3311
   23CHL1  H19B 1670   4.319   5.926   9.585 -0.3350  0.7117  0.5964
   23CHL1  H19C 1671   4.261   5.942   9.412  0.4862 -2.5475 -0.1611
   23CHL1    C1 1672   4.386   6.208   9.592  0.5092  0.1704 -0.1106
   23CHL1   H1A 1673   4.489   6.203   9.551  0.1770 -0.4806 -0.9102
   23CHL1   H1B 1674   4.354   6.314   9.596 -1.6638 -0.4751  1.5323
   23CHL1    C2 1675   4.386   6.167   9.737 -0.1533  0.3243  0.6880
   23CHL1   H2A 1676   4.453   6.239   9.788 -0.3260  2.0969 -1.4020
   23CHL1   H2B 1677   4.411   6.059   9.745  2.0422  0.8622  1.7873
   23CHL1   C20 1678   4.273   6.189   8.805  0.3975 -0.3745  0.1015
   23CHL1   H20 1679   4.210   6.098   8.793 -1.5965  0.7851  1.1219
   23CHL1   C21 1680   4.419   6.149   8.808 -0.2095  0.0685  0.3257
   23CHL1  H21A 1681   4.433   6.046   8.847  1.9749 -0.1355 -0.8519
   23CHL1  H21B 1682   4.472   6.230   8.863  1.9684  0.8235 -2.6302
   23CHL1  H21C 1683   4.466   6.140   8.708  1.0200 -2.2476  1.0448
   23CHL1   C22 1684   4.243   6.277   8.683  0.1298  0.5722 -0.4952
   23CHL1  H22A 1685   4.140   6.320   8.692 -0.3524 -0.2766 -1.6262
   23CHL1  H22B 1686   4.315   6.361   8.673  0.5284  0.2165 -0.6512
   23CHL1   C23 1687   4.244   6.209   8.544 -0.1461  0.3085 -0.1314
   23CHL1  H23A 1688   4.271   6.279   8.462 -0.1907  1.9695  1.2198
   23CHL1  H23B 1689   4.316   6.125   8.539 -0.6318 -0.0551 -2.5164
   23CHL1   C24 1690   4.108   6.140   8.517  0.3488  0.0520  0.2212
   23CHL1  H24A 1691   4.092   6.054   8.586  0.3450  1.4759  2.0738
   23CHL1  H24B 1692   4.019   6.205   8.532  0.0681 -0.4258  0.6650
   23CHL1   C25 1693   4.111   6.092   8.371  0.0199  0.5552  0.4882
   23CHL1   H25 1694   4.211   6.052   8.345  0.8413  2.3673  0.6594
   23CHL1   C26 1695   4.014   5.977   8.337 -0.2139  0.4391 -0.2619
   23CHL1  H26A 1696   3.910   6.011   8.357 -0.3336 -0.3626  0.5773
   23CHL1  H26B 1697   4.021   5.954   8.229 -1.0139 -0.1626 -0.1942
   23CHL1  H26C 1698   4.044   5.888   8.397  3.0162  1.9622  0.5918
   23CHL1   C27 1699   4.070   6.207   8.269  0.7697  0.2671 -0.1495
   23CHL1  H27A 1700   4.142   6.290   8.288 -0.2184  0.7154  1.9374
   23CHL1  H27B 1701   4.048   6.169   8.167  0.5442  2.2661 -0.8838
   23CHL1  H27C 1702   3.971   6.242   8.304  0.4922  0.0778 -0.7403
   24CHL1    C3 1703   5.630   6.314   9.623  0.7289 -0.2310  0.7440
   24CHL1    H3 1704   5.710   6.390   9.609  0.7552 -0.2783  0.6324
   24CHL1    O3 1705   5.589   6.310   9.755 -0.1356  0.1081 -0.6846
   24CHL1   H3' 1706   5.535   6.231   9.765  1.8536 -1.7185 -3.1636
   24CHL1    C4 1707   5.496   6.353   9.541  0.1241  0.9026 -0.3136
   24CHL1   H4A 1708   5.420   6.273   9.557  1.8695 -0.8321 -0.3236
   24CHL1   H4B 1709   5.466   6.449   9.589 -0.1112  1.1418 -0.9281
   24CHL1    C5 1710   5.507   6.339   9.393  0.1625  0.7520  0.0410
   24CHL1    C6 1711   5.467   6.435   9.313  0.0828  0.2299  0.8196
   24CHL1    H6 1712   5.441   6.533   9.357 -1.1948 -0.4429  1.6205
   24CHL1    C7 1713   5.464   6.436   9.167 -0.7180  0.2094 -0.2657
   24CHL1   H7A 1714   5.359   6.461   9.139 -2.8914 -1.5879  4.9474
   24CHL1   H7B 1715   5.542   6.513   9.151  0.0865 -0.4887  0.2020
   24CHL1    C8 1716   5.488   6.291   9.116 -0.2655 -0.3755  0.0108
   24CHL1    H8 1717   5.391   6.239   9.132  0.0260 -0.2702  2.4336
   24CHL1   C14 1718   5.531   6.296   8.976  0.3736 -0.1697 -0.2266
   24CHL1   H14 1719   5.633   6.340   8.978  0.6356 -0.7352 -0.6897
   24CHL1   C15 1720   5.447   6.378   8.873  0.5053  0.4352 -0.5656
   24CHL1  H15A 1721   5.338   6.359   8.885  0.5017  1.4590  1.5704
   24CHL1  H15B 1722   5.477   6.483   8.892 -2.2506  1.2069  0.0351
   24CHL1   C16 1723   5.482   6.324   8.734 -0.0044  0.5435  0.3571
   24CHL1  H16A 1724   5.390   6.311   8.673  0.4036 -0.4011 -0.0861
   24CHL1  H16B 1725   5.542   6.407   8.693  0.8552  1.2610  2.8940
   24CHL1   C17 1726   5.580   6.202   8.750  0.7620 -0.0996 -0.3176
   24CHL1   H17 1727   5.678   6.253   8.746  1.0823 -0.6786 -0.0489
   24CHL1   C13 1728   5.553   6.167   8.904  0.3318  0.4180 -0.4003
   24CHL1   C18 1729   5.432   6.075   8.913  0.2157  0.3183  0.1300
   24CHL1  H18A 1730   5.447   5.970   8.880  1.1534  0.0775  1.2721
   24CHL1  H18B 1731   5.395   6.069   9.018 -0.9434  0.0332 -0.2795
   24CHL1  H18C 1732   5.346   6.113   8.854  1.1833 -1.0463 -2.2890
   24CHL1   C12 1733   5.672   6.108   8.978 -0.2499  0.5138  0.0962
   24CHL1  H12A 1734   5.700   6.008   8.940 -0.3079  1.0225 -1.3463
   24CHL1  H12B 1735   5.762   6.171   8.957 -0.9344  1.8285  0.9903
   24CHL1   C11 1736   5.646   6.088   9.124 -0.1982  0.7831  0.6527
   24CHL1  H11A 1737   5.571   6.008   9.144 -0.8411  1.3104  0.3959
   24CHL1  H11B 1738   5.741   6.047   9.164  0.0708 -0.0400 -0.7757
   24CHL1    C9 1739   5.599   6.219   9.195  0.0711  0.0921  0.2201
   24CHL1    H9 1740   5.682   6.293   9.197 -2.7143  3.4553  1.6637
   24CHL1   C10 1741   5.571   6.210   9.348  0.0720  0.2304 -0.7119
   24CHL1   C19 1742   5.465   6.095   9.377 -0.0891  0.7600 -0.2332
   24CHL1  H19A 1743   5.433   6.093   9.484 -3.1578  0.2048 -1.0490
   24CHL1  H19B 1744   5.375   6.092   9.312  1.5762 -0.1882 -2.6511
   24CHL1  H19C 1745   5.516   5.999   9.353 -1.5940 -0.6872  1.9728
   24CHL1    C1 1746   5.697   6.178   9.425 -0.2733 -0.2421 -0.3705
   24CHL1   H1A 1747   5.744   6.081   9.396 -2.1608 -1.5019  0.5569
   24CHL1   H1B 1748   5.768   6.261   9.406 -0.1662 -0.0997  0.6189
   24CHL1    C2 1749   5.683   6.174   9.575 -0.1643 -0.7191 -0.3178
   24CHL1   H2A 1750   5.782   6.159   9.623 -0.3775  1.4290  0.9236
   24CHL1   H2B 1751   5.610   6.095   9.603 -1.0374  0.3009  0.3809
   24CHL1   C20 1752   5.571   6.097   8.643  0.6128 -0.7037 -0.0020
   24CHL1   H20 1753   5.475   6.042   8.631  1.1122 -1.4216 -0.8839
   24CHL1   C21 1754   5.672   5.979   8.666 -0.7239 -0.0995 -0.0506
   24CHL1  H21A 1755   5.771   6.007   8.708 -0.9915  2.2893 -0.9000
   24CHL1  H21B 1756   5.679   5.917   8.574 -1.9696  1.4293 -1.2174
   24CHL1  H21C 1757   5.628   5.909   8.741 -0.9063 -0.6868 -0.6968
   24CHL1   C22 1758   5.600   6.159   8.508 -0.8511 -0.3575 -0.1491
   24CHL1  H22A 1759   5.587   6.074   8.438 -0.2941 -0.3532 -0.2651
   24CHL1  H22B 1760   5.518   6.228   8.478 -0.1560  1.6442  2.2642
   24CHL1   C23 1761   5.738   6.216   8.477 -0.7538 -0.1665  0.1202
   24CHL1  H23A 1762   5.760   6.309   8.532 -0.0380  1.0499 -2.0798
   24CHL1  H23B 1763   5.810   6.135   8.503  0.1049  0.9433  1.3349
   24CHL1   C24 1764   5.752   6.259   8.327  0.2695 -0.3745 -0.3709
   24CHL1  H24A 1765   5.686   6.345   8.304  1.0844 -0.1131 -1.8555
   24CHL1  H24B 1766   5.854   6.301   8.324 -0.0098  0.9311  3.4934
   24CHL1   C25 1767   5.737   6.151   8.222  0.0102 -0.6200  0.5733
   24CHL1   H25 1768   5.645   6.090   8.237 -1.8747  1.0299 -3.0103
   24CHL1   C26 1769   5.704   6.216   8.086 -0.3573 -0.4483 -0.0560
   24CHL1  H26A 1770   5.608   6.271   8.084  0.3512  0.8131 -1.1269
   24CHL1  H26B 1771   5.789   6.280   8.056  0.7345 -1.9479 -0.3038
   24CHL1  H26C 1772   5.701   6.134   8.011  1.0409 -0.8034  0.2478
   24CHL1   C27 1773   5.859   6.051   8.223  0.0353 -0.0883  0.0168
   24CHL1  H27A 1774   5.842   5.968   8.152 -0.5145  2.2859 -2.8016
   24CHL1  H27B 1775   5.955   6.096   8.192 -0.0105 -0.4483 -0.6654
   24CHL1  H27C 1776   5.866   6.005   8.324 -2.7135  0.4471  0.5334
   25CHL1    C3 1777   6.473   2.730   9.343  0.1520  0.5803  0.0835
   25CHL1    H3 1778   6.438   2.626   9.329  0.4079  0.2781  1.5250
   25CHL1    O3 1779   6.515   2.744   9.482  0.4001  0.4716  0.1329
   25CHL1   H3' 1780   6.594   2.798   9.476  0.8368 -0.1696  0.0126
   25CHL1    C4 1781   6.603   2.750   9.257 -0.3189 -0.0711 -0.2618
   25CHL1   H4A 1782   6.651   2.845   9.287  0.9937 -1.3007  1.7991
   25CHL1   H4B 1783   6.677   2.674   9.291  0.6437  1.2572  0.7140
   25CHL1    C5 1784   6.586   2.738   9.104  0.4810 -0.2008 -0.0181
   25CHL1    C6 1785   6.648   2.655   9.023  0.2612  0.4423 -0.9028
   25CHL1    H6 1786   6.723   2.588   9.067 -1.2516  0.3144  1.7072
   25CHL1    C7 1787   6.628   2.643   8.869 -0.6560 -0.9269  0.3402
   25CHL1   H7A 1788   6.730   2.648   8.825 -0.0940 -0.3379  1.6526
   25CHL1   H7B 1789   6.583   2.547   8.835 -0.9623 -0.2953 -1.1052
   25CHL1    C8 1790   6.544   2.768   8.816 -0.0030  0.2665  0.0290
   25CHL1    H8 1791   6.615   2.853   8.808  0.6429 -0.2541  0.2073
   25CHL1   C14 1792   6.486   2.726   8.683 -0.2097 -0.6221 -0.1767
   25CHL1   H14 1793   6.447   2.623   8.702  1.1544 -0.8540  1.6330
   25CHL1   C15 1794   6.584   2.700   8.565 -0.0098 -0.2133  0.7719
   25CHL1  H15A 1795   6.647   2.789   8.544 -0.1152 -0.0232  1.2511
   25CHL1  H15B 1796   6.653   2.615   8.579  0.1689 -0.2782 -0.3796
   25CHL1   C16 1797   6.485   2.679   8.451 -0.4007 -0.2820 -0.6327
   25CHL1  H16A 1798   6.527   2.718   8.356  0.3992  0.6588  0.0853
   25CHL1  H16B 1799   6.466   2.571   8.432 -0.9540 -0.0704 -1.3226
   25CHL1   C17 1800   6.353   2.736   8.485 -0.1498  0.3491 -0.1044
   25CHL1   H17 1801   6.287   2.652   8.517  1.7148 -0.8970  0.6359
   25CHL1   C13 1802   6.382   2.815   8.616 -0.6133 -0.2161 -0.2714
   25CHL1   C18 1803   6.448   2.952   8.577  0.0850  0.4857  0.4161
   25CHL1  H18A 1804   6.515   2.991   8.657 -1.0600  0.4709  1.4106
   25CHL1  H18B 1805   6.515   2.946   8.489  0.7077  0.3564  0.8922
   25CHL1  H18C 1806   6.373   3.030   8.551  0.4493  0.7822  0.2480
   25CHL1   C12 1807   6.270   2.836   8.718 -0.0276  0.1802  0.2274
   25CHL1  H12A 1808   6.191   2.907   8.685  0.3339 -0.0593 -1.1985
   25CHL1  H12B 1809   6.215   2.740   8.729  1.0529 -0.6653 -1.3848
   25CHL1   C11 1810   6.317   2.882   8.854 -0.4291 -0.3712 -0.1361
   25CHL1  H11A 1811   6.360   2.985   8.855 -0.5639 -0.3137 -0.2441
   25CHL1  H11B 1812   6.229   2.883   8.922 -0.4323 -1.2461 -0.1160
   25CHL1    C9 1813   6.427   2.785   8.913  0.3449  0.1997 -0.1586
   25CHL1    H9 1814   6.375   2.687   8.915 -1.8490  1.3045 -0.2280
   25CHL1   C10 1815   6.477   2.835   9.055  0.1596  1.5060 -0.1978
   25CHL1   C19 1816   6.529   2.982   9.049  0.0444  0.1076 -1.4278
   25CHL1  H19A 1817   6.562   3.013   9.150 -2.1130  0.4371 -0.7769
   25CHL1  H19B 1818   6.617   2.998   8.982  0.7205  1.0608 -0.3492
   25CHL1  H19C 1819   6.444   3.049   9.026  0.6326  1.2320 -0.4348
   25CHL1    C1 1820   6.359   2.830   9.156 -0.0170 -0.9564 -0.5868
   25CHL1   H1A 1821   6.291   2.914   9.128 -1.1507 -1.0348  1.7285
   25CHL1   H1B 1822   6.295   2.741   9.139  0.4891 -1.6976  1.1992
   25CHL1    C2 1823   6.383   2.846   9.300  0.6252  0.2720  0.1807
   25CHL1   H2A 1824   6.290   2.852   9.360  0.1729 -2.4229 -0.1387
   25CHL1   H2B 1825   6.444   2.937   9.320 -1.6937  1.9651 -0.0735
   25CHL1   C20 1826   6.291   2.817   8.366 -0.1976 -0.5989  0.6797
   25CHL1   H20 1827   6.362   2.898   8.342 -0.5116 -0.5714 -0.2015
   25CHL1   C21 1828   6.157   2.887   8.397  0.0136  0.7820  0.2299
   25CHL1  H21A 1829   6.167   2.962   8.478 -0.9699 -0.1159  1.2157
   25CHL1  H21B 1830   6.082   2.810   8.424  0.8134 -0.3072 -0.5739
   25CHL1  H21C 1831   6.114   2.938   8.308 -0.5429  0.8980  0.5614
   25CHL1   C22 1832   6.271   2.730   8.239 -0.6218 -0.0765  0.0430
   25CHL1  H22A 1833   6.234   2.787   8.151 -1.8882 -0.7943  0.0837
   25CHL1  H22B 1834   6.369   2.688   8.209 -0.6281  0.6819 -1.1119
   25CHL1   C23 1835   6.185   2.605   8.253  0.0859 -0.2649  0.0894
   25CHL1  H23A 1836   6.215   2.521   8.319 -4.2654 -1.9112  0.3186
   25CHL1  H23B 1837   6.088   2.638   8.296 -0.0094  0.8375 -0.8875
   25CHL1   C24 1838   6.160   2.538   8.113  0.1907  0.5959 -0.8503
   25CHL1  H24A 1839   6.256   2.507   8.067  0.1437 -0.2814 -0.3850
   25CHL1  H24B 1840   6.117   2.437   8.133  0.0131  0.6419 -0.9946
   25CHL1   C25 1841   6.086   2.623   8.011 -0.3467 -0.3943  0.2576
   25CHL1   H25 1842   6.093   2.733   8.023  1.5339 -0.2005 -1.9456
   25CHL1   C26 1843   6.162   2.620   7.875  0.2294 -0.2108  0.1288
   25CHL1  H26A 1844   6.159   2.518   7.831 -1.4436 -0.1899  0.1518
   25CHL1  H26B 1845   6.117   2.671   7.788 -1.3307 -2.5600 -0.5454
   25CHL1  H26C 1846   6.268   2.650   7.894 -0.1483  0.6071  1.0285
   25CHL1   C27 1847   5.942   2.580   7.991 -0.4677 -0.0224  0.0745
   25CHL1  H27A 1848   5.905   2.629   7.898  0.7046 -1.8161 -1.4240
   25CHL1  H27B 1849   5.932   2.470   7.978  3.7890 -0.8584  1.8672
   25CHL1  H27C 1850   5.868   2.601   8.070 -3.0904 -1.8840 -1.7352
   26CHL1    C3 1851   3.218   3.963  10.043 -0.2145 -0.3358 -0.2734
   26CHL1    H3 1852   3.108   3.949  10.043 -0.2656 -0.7039  2.6917
   26CHL1    O3 1853   3.258   3.960  10.180 -0.1294 -0.0755 -0.3417
   26CHL1   H3' 1854   3.350   3.939  10.166 -0.7399 -0.9784 -4.1972
   26CHL1    C4 1855   3.270   3.851   9.955 -0.4290 -0.2202 -0.7531
   26CHL1   H4A 1856   3.381   3.854   9.955 -0.4198 -0.5456 -1.5336
   26CHL1   H4B 1857   3.238   3.759  10.009 -0.5413 -0.1126 -0.6343
   26CHL1    C5 1858   3.225   3.860   9.810 -0.4478  0.3103  0.1340
   26CHL1    C6 1859   3.158   3.757   9.753  0.4174 -0.6623  1.1573
   26CHL1    H6 1860   3.156   3.661   9.806  2.2509 -1.6895 -0.5234
   26CHL1    C7 1861   3.098   3.771   9.616 -0.7007 -0.0829 -1.0534
   26CHL1   H7A 1862   3.109   3.671   9.569 -1.5989 -0.2017 -1.0290
   26CHL1   H7B 1863   2.992   3.798   9.631 -0.7931  1.1565 -3.3060
   26CHL1    C8 1864   3.160   3.880   9.520 -0.1040  0.8073  0.3826
   26CHL1    H8 1865   3.260   3.843   9.492 -0.5719 -0.4491  0.2838
   26CHL1   C14 1866   3.074   3.912   9.397 -0.2583 -0.0308 -0.6413
   26CHL1   H14 1867   2.976   3.935   9.444  0.9998 -0.1774  2.2389
   26CHL1   C15 1868   3.047   3.795   9.302 -0.5146 -0.1327 -0.2008
   26CHL1  H15A 1869   3.146   3.748   9.281  0.0070  0.2524  1.3124
   26CHL1  H15B 1870   2.981   3.711   9.332  0.7818 -2.5054 -3.2862
   26CHL1   C16 1871   2.971   3.876   9.200  0.4043  1.0787  0.1639
   26CHL1  H16A 1872   2.977   3.823   9.103 -1.0013 -0.7699  0.9977
   26CHL1  H16B 1873   2.865   3.887   9.231  0.4635  0.7490  0.4937
   26CHL1   C17 1874   3.025   4.023   9.196 -0.0027 -0.1731 -0.9129
   26CHL1   H17 1875   2.942   4.083   9.240  0.1115 -1.4090  1.1432
   26CHL1   C13 1876   3.132   4.030   9.309  0.1259 -0.6839  0.1670
   26CHL1   C18 1877   3.267   3.996   9.252  0.1327 -0.3826  0.0833
   26CHL1  H18A 1878   3.334   3.974   9.337  0.1917 -1.2244 -0.1753
   26CHL1  H18B 1879   3.260   3.906   9.188  0.4994 -1.4478  1.4970
   26CHL1  H18C 1880   3.316   4.080   9.199 -0.1810 -0.3986 -0.2387
   26CHL1   C12 1881   3.130   4.154   9.402  0.0506  0.0277 -0.4861
   26CHL1  H12A 1882   3.163   4.243   9.345  0.0562  0.7753  0.6614
   26CHL1  H12B 1883   3.028   4.177   9.439  0.3105 -1.0017  0.9604
   26CHL1   C11 1884   3.218   4.136   9.530 -0.4123 -0.6545  0.7711
   26CHL1  H11A 1885   3.327   4.142   9.513 -0.2676  1.3773  2.0237
   26CHL1  H11B 1886   3.209   4.234   9.583  0.6699  0.6494 -1.3247
   26CHL1    C9 1887   3.179   4.005   9.602 -0.1545 -0.0398  0.3854
   26CHL1    H9 1888   3.076   4.036   9.630 -1.3759 -1.9003 -1.7563
   26CHL1   C10 1889   3.251   3.992   9.738  0.3683  0.4695 -0.0083
   26CHL1   C19 1890   3.412   3.998   9.715  0.2681  0.2881 -0.0497
   26CHL1  H19A 1891   3.436   3.910   9.652  0.5409 -0.3803  0.9676
   26CHL1  H19B 1892   3.449   4.089   9.663 -0.1083 -0.1049 -1.0171
   26CHL1  H19C 1893   3.463   3.979   9.812  1.2862 -2.8030 -1.0905
   26CHL1    C1 1894   3.214   4.106   9.837 -0.0385 -0.3412 -0.1686
   26CHL1   H1A 1895   3.251   4.199   9.789  1.8741 -1.6018 -1.2846
   26CHL1   H1B 1896   3.104   4.121   9.839 -0.0257  0.1442 -1.7150
   26CHL1    C2 1897   3.273   4.099   9.983 -0.6536  0.2570  0.1794
   26CHL1   H2A 1898   3.241   4.192  10.034 -2.0194  2.1792 -3.7512
   26CHL1   H2B 1899   3.384   4.098   9.981 -0.6409  1.1567 -1.2290
   26CHL1   C20 1900   3.055   4.077   9.055  0.7908  0.2787  0.2789
   26CHL1   H20 1901   3.141   4.021   9.012  2.5586  1.5460  1.9809
   26CHL1   C21 1902   3.096   4.219   9.062 -0.1390 -0.2584  0.3882
   26CHL1  H21A 1903   3.120   4.255   8.960 -1.2356 -2.4607 -0.7347
   26CHL1  H21B 1904   3.191   4.238   9.116  0.0358  2.2116 -0.6548
   26CHL1  H21C 1905   3.021   4.287   9.108  1.5648  2.6011 -0.8077
   26CHL1   C22 1906   2.945   4.055   8.952  0.2830 -0.1794  0.3390
   26CHL1  H22A 1907   2.938   3.944   8.952  0.3274 -0.1839  1.0761
   26CHL1  H22B 1908   2.843   4.088   8.980  1.0801  1.6495  1.2572
   26CHL1   C23 1909   2.981   4.094   8.803  0.0276 -0.0086  0.3836
   26CHL1  H23A 1910   2.983   4.205   8.793 -0.8485 -0.0506 -0.3482
   26CHL1  H23B 1911   3.086   4.058   8.794 -0.6493 -2.1892  0.6277
   26CHL1   C24 1912   2.884   4.026   8.706  0.7196  0.5412 -0.5184
   26CHL1  H24A 1913   2.902   3.917   8.718 -0.8604  0.4489  1.8090
   26CHL1  H24B 1914   2.780   4.053   8.737  1.0859  0.7406  0.5707
   26CHL1   C25 1915   2.896   4.076   8.558 -0.0344  0.0945  0.2394
   26CHL1   H25 1916   2.902   4.187   8.566  1.5038 -0.0802  2.3143
   26CHL1   C26 1917   3.023   4.035   8.492 -0.3272 -0.2199 -0.4137
   26CHL1  H26A 1918   3.031   4.101   8.403 -0.9655  1.3138  0.6249
   26CHL1  H26B 1919   3.110   4.044   8.562  1.6372 -2.0142 -2.4510
   26CHL1  H26C 1920   3.013   3.932   8.451 -4.3744 -0.1424 -0.0267
   26CHL1   C27 1921   2.776   4.044   8.464 -0.0047  0.0619 -0.1546
   26CHL1  H27A 1922   2.753   3.935   8.461 -0.4886  0.1748 -1.1520
   26CHL1  H27B 1923   2.690   4.106   8.498  0.1013 -0.4933  1.1985
   26CHL1  H27C 1924   2.806   4.077   8.362  1.1051 -0.2829  0.0475
   27CHL1    C3 1925   2.117   1.057   9.572  0.0464  1.2046  0.4002
   27CHL1    H3 1926   2.014   1.079   9.537  0.5808 -0.4182 -2.4389
   27CHL1    O3 1927   2.113   1.055   9.712  0.0516  0.4014 -0.5263
   27CHL1   H3' 1928   2.200   1.021   9.734 -0.2245 -0.8663 -1.2864
   27CHL1    C4 1929   2.143   0.916   9.518  0.6247 -0.2247 -0.0221
   27CHL1   H4A 1930   2.238   0.874   9.556  0.9767  0.4556 -0.1424
   27CHL1   H4B 1931   2.063   0.851   9.559 -0.3401  1.0733  0.2164
   27CHL1    C5 1932   2.151   0.901   9.367  0.7798  0.7221 -0.3049
   27CHL1    C6 1933   2.068   0.814   9.293 -0.1794 -0.3840 -0.0815
   27CHL1    H6 1934   1.998   0.749   9.347 -2.0654 -0.4452 -2.3884
   27CHL1    C7 1935   2.060   0.818   9.141  0.0026 -0.2803  0.1236
   27CHL1   H7A 1936   2.043   0.716   9.100  0.0386 -0.9805  1.7547
   27CHL1   H7B 1937   1.966   0.877   9.135  0.9099  1.2320  0.2316
   27CHL1    C8 1938   2.175   0.887   9.081 -0.8369  0.0929  0.7710
   27CHL1    H8 1939   2.266   0.826   9.098  1.3215  2.0799 -2.4880
   27CHL1   C14 1940   2.156   0.910   8.930 -0.0547  0.2980 -0.7186
   27CHL1   H14 1941   2.069   0.979   8.930  0.6549  1.2386  0.9194
   27CHL1   C15 1942   2.102   0.783   8.843  0.8106 -0.5800  0.0555
   27CHL1  H15A 1943   2.143   0.690   8.889  3.8942  0.3322 -0.6421
   27CHL1  H15B 1944   1.991   0.771   8.848  0.4384  2.2094  0.0174
   27CHL1   C16 1945   2.154   0.809   8.704  0.0912  0.5925 -0.2062
   27CHL1  H16A 1946   2.233   0.737   8.676 -0.2157 -0.4572  1.5070
   27CHL1  H16B 1947   2.076   0.811   8.624 -1.0086 -0.7145  0.7935
   27CHL1   C17 1948   2.227   0.950   8.709  0.1660 -0.1074  0.6314
   27CHL1   H17 1949   2.150   1.028   8.693 -1.0994 -1.4226  0.1056
   27CHL1   C13 1950   2.273   0.970   8.851 -0.8623  0.6354 -0.9321
   27CHL1   C18 1951   2.392   0.882   8.867 -0.1537  0.0256 -0.2905
   27CHL1  H18A 1952   2.483   0.921   8.817 -0.0988  0.3390  0.0480
   27CHL1  H18B 1953   2.442   0.879   8.966  0.3787  1.2585 -0.4994
   27CHL1  H18C 1954   2.378   0.777   8.833  0.5777 -0.3208  0.4469
   27CHL1   C12 1955   2.275   1.118   8.899 -0.1105 -0.3848  0.0954
   27CHL1  H12A 1956   2.351   1.179   8.845  0.3651 -1.4630 -0.4737
   27CHL1  H12B 1957   2.176   1.168   8.888 -0.1838 -0.8832 -1.9201
   27CHL1   C11 1958   2.303   1.113   9.054 -0.1050  0.4445 -0.2768
   27CHL1  H11A 1959   2.404   1.068   9.057 -1.0525 -1.7321  0.9221
   27CHL1  H11B 1960   2.308   1.218   9.091  0.2274 -0.4252  2.3406
   27CHL1    C9 1961   2.207   1.024   9.142 -0.2444  0.3208 -0.0050
   27CHL1    H9 1962   2.116   1.087   9.133  0.1510  0.9464  0.2288
   27CHL1   C10 1963   2.239   1.012   9.294  0.0903 -0.1897  0.2896
   27CHL1   C19 1964   2.384   0.980   9.321 -0.1381 -0.0437  0.4850
   27CHL1  H19A 1965   2.406   0.951   9.427  0.6649  2.2505  1.0041
   27CHL1  H19B 1966   2.418   0.895   9.258  0.8898  0.7866 -0.0980
   27CHL1  H19C 1967   2.447   1.064   9.286  2.0515 -1.2416  1.3425
   27CHL1    C1 1968   2.221   1.151   9.365 -0.2757 -0.2541 -0.2103
   27CHL1   H1A 1969   2.300   1.217   9.323 -1.4863  1.0246 -0.5599
   27CHL1   H1B 1970   2.126   1.202   9.341  0.4682  1.1506 -0.2841
   27CHL1    C2 1971   2.220   1.152   9.521  0.4217 -0.2640  1.3419
   27CHL1   H2A 1972   2.193   1.256   9.548 -1.2194  0.2063 -1.6842
   27CHL1   H2B 1973   2.322   1.125   9.556  0.6658 -0.2745  0.6494
   27CHL1   C20 1974   2.336   0.966   8.598 -0.2224  0.2601  0.5708
   27CHL1   H20 1975   2.404   0.878   8.595 -1.7339 -0.9489 -1.7803
   27CHL1   C21 1976   2.433   1.084   8.606  0.7594 -0.6766 -0.1887
   27CHL1  H21A 1977   2.514   1.071   8.531  0.4873 -1.1142 -0.4126
   27CHL1  H21B 1978   2.475   1.090   8.708 -0.5453  0.0021  0.3331
   27CHL1  H21C 1979   2.376   1.178   8.587  3.1482  0.8420 -0.2662
   27CHL1   C22 1980   2.265   0.966   8.455  0.1262 -0.5134  0.0927
   27CHL1  H22A 1981   2.346   0.964   8.379 -1.3670 -0.8295 -1.5386
   27CHL1  H22B 1982   2.212   0.869   8.446 -3.2868  1.1971  0.3683
   27CHL1   C23 1983   2.177   1.085   8.410 -0.3104  0.1970 -0.1525
   27CHL1  H23A 1984   2.104   1.119   8.487  1.8002  1.5062  1.3667
   27CHL1  H23B 1985   2.250   1.167   8.393 -0.2201 -0.0375 -0.9622
   27CHL1   C24 1986   2.113   1.058   8.273 -0.4135 -0.2445  0.0100
   27CHL1  H24A 1987   2.103   1.158   8.227  0.7217  0.9766  2.2261
   27CHL1  H24B 1988   2.185   0.995   8.217 -0.1267  0.2706 -0.2124
   27CHL1   C25 1989   1.971   0.989   8.250  0.4608  0.2291 -0.3471
   27CHL1   H25 1990   1.894   1.044   8.309 -0.7098  0.5494 -2.0995
   27CHL1   C26 1991   1.923   1.014   8.101  0.5235 -0.0443 -0.3877
   27CHL1  H26A 1992   2.001   0.974   8.033  0.7836 -1.5357  0.7115
   27CHL1  H26B 1993   1.835   0.947   8.090  2.2051 -2.4546 -0.0040
   27CHL1  H26C 1994   1.899   1.121   8.084  1.1912  0.4331  1.3737
   27CHL1   C27 1995   1.983   0.848   8.285  0.3676  0.0517  0.8178
   27CHL1  H27A 1996   2.029   0.819   8.382 -1.3186 -1.0979  1.3258
   27CHL1  H27B 1997   1.878   0.818   8.303 -1.2009  4.4360  0.3551
   27CHL1  H27C 1998   2.038   0.789   8.210 -1.7961  0.3864 -1.1481
   28CHL1    C3 1999   6.785   5.202   9.344 -0.6061  0.3738 -0.4621
   28CHL1    H3 2000   6.722   5.111   9.331 -0.0660  0.1104 -1.2741
   28CHL1    O3 2001   6.796   5.219   9.485 -0.0229 -0.2794  0.1038
   28CHL1   H3' 2002   6.827   5.310   9.497  0.1155 -0.5295  1.8463
   28CHL1    C4 2003   6.923   5.176   9.280  0.3402  0.0331 -0.2608
   28CHL1   H4A 2004   6.988   5.265   9.286 -1.6336  2.1719 -4.9712
   28CHL1   H4B 2005   6.971   5.099   9.344  1.9345  2.8831  2.2070
   28CHL1    C5 2006   6.897   5.132   9.137 -0.7079  0.4532  0.5744
   28CHL1    C6 2007   6.913   5.006   9.095  0.2847 -0.1388 -0.5973
   28CHL1    H6 2008   6.945   4.930   9.167 -1.3674  1.6541  2.1819
   28CHL1    C7 2009   6.914   4.962   8.948  0.4479 -0.1172  0.0796
   28CHL1   H7A 2010   7.002   4.899   8.927  1.1876  0.9638 -0.1665
   28CHL1   H7B 2011   6.823   4.903   8.923  0.2039  0.8603 -1.5238
   28CHL1    C8 2012   6.910   5.090   8.850  0.7609 -0.3732 -0.2211
   28CHL1    H8 2013   7.014   5.123   8.873  1.6397 -2.6724 -0.5833
   28CHL1   C14 2014   6.884   5.061   8.709  0.5886  0.4230  0.0423
   28CHL1   H14 2015   6.778   5.031   8.714  0.0728  1.8853 -1.4211
   28CHL1   C15 2016   6.956   4.944   8.636 -0.2112  0.5186 -0.7302
   28CHL1  H15A 2017   7.065   4.943   8.658 -0.8148  2.0401  3.0280
   28CHL1  H15B 2018   6.918   4.845   8.668  1.4310  0.4020  0.9653
   28CHL1   C16 2019   6.931   4.971   8.480  0.4411  0.0905  0.0813
   28CHL1  H16A 2020   7.026   4.997   8.431  0.2028  1.5339  0.3448
   28CHL1  H16B 2021   6.874   4.885   8.437  0.1238 -0.0825  0.8208
   28CHL1   C17 2022   6.849   5.111   8.482  0.2831 -0.3904  0.8119
   28CHL1   H17 2023   6.740   5.088   8.483 -0.3730  2.4440  0.8278
   28CHL1   C13 2024   6.882   5.177   8.611  0.1013  0.4888 -0.2585
   28CHL1   C18 2025   7.026   5.238   8.613 -0.5782  0.0144  0.2496
   28CHL1  H18A 2026   7.053   5.278   8.713 -1.5654  0.0125  0.5354
   28CHL1  H18B 2027   7.099   5.163   8.578 -1.2333  0.5005 -2.3609
   28CHL1  H18C 2028   7.029   5.323   8.541  0.4571  0.5356  0.8902
   28CHL1   C12 2029   6.772   5.277   8.664 -0.4487 -0.0908  0.3293
   28CHL1  H12A 2030   6.768   5.371   8.604  2.3272  2.5329  3.7548
   28CHL1  H12B 2031   6.673   5.230   8.653 -1.0590  0.6665  2.1183
   28CHL1   C11 2032   6.787   5.315   8.809 -0.3874  0.6168 -0.0998
   28CHL1  H11A 2033   6.882   5.372   8.798  0.0829 -0.3872 -1.4618
   28CHL1  H11B 2034   6.697   5.371   8.841 -0.4880  0.2481  0.2720
   28CHL1    C9 2035   6.812   5.201   8.910 -0.5122  0.3377  0.2854
   28CHL1    H9 2036   6.715   5.145   8.917 -0.3179 -0.0874 -0.2685
   28CHL1   C10 2037   6.848   5.250   9.053  0.3622 -0.1956  0.1198
   28CHL1   C19 2038   6.956   5.360   9.039 -0.3009  0.3701  0.1485
   28CHL1  H19A 2039   6.978   5.394   9.142 -3.2863  0.8397  0.7346
   28CHL1  H19B 2040   7.054   5.329   8.997  0.1931  1.1784  0.6836
   28CHL1  H19C 2041   6.925   5.452   8.985 -1.6798  0.2714  0.7130
   28CHL1    C1 2042   6.719   5.296   9.125  0.3146 -0.0409  0.0958
   28CHL1   H1A 2043   6.680   5.387   9.074  1.0981  0.2124 -0.0735
   28CHL1   H1B 2044   6.646   5.214   9.109  0.2852 -0.7921  3.4316
   28CHL1    C2 2045   6.717   5.316   9.275  0.0691 -0.2944  0.3932
   28CHL1   H2A 2046   6.612   5.331   9.307 -0.0137 -0.6334  0.2919
   28CHL1   H2B 2047   6.772   5.408   9.302  0.3073 -0.7711  1.5872
   28CHL1   C20 2048   6.874   5.186   8.352  0.5619 -0.3027  0.5164
   28CHL1   H20 2049   6.979   5.218   8.334  0.7427 -1.8671 -1.6592
   28CHL1   C21 2050   6.789   5.315   8.346 -0.2747 -1.1390 -0.6837
   28CHL1  H21A 2051   6.683   5.302   8.377  0.1354 -3.2924  0.0521
   28CHL1  H21B 2052   6.794   5.338   8.237 -0.5555 -0.9250 -0.6502
   28CHL1  H21C 2053   6.821   5.394   8.416 -0.2356 -1.1666 -0.6696
   28CHL1   C22 2054   6.849   5.088   8.235 -0.2722  0.1489 -0.1427
   28CHL1  H22A 2055   6.907   4.993   8.242 -0.0505  0.3060  0.1863
   28CHL1  H22B 2056   6.744   5.052   8.241  0.6792 -2.5828  2.7236
   28CHL1   C23 2057   6.879   5.139   8.093  0.1439 -0.1439 -1.3457
   28CHL1  H23A 2058   6.815   5.228   8.071  0.7498  0.3528 -1.1496
   28CHL1  H23B 2059   6.982   5.182   8.090  0.1120 -0.0482 -1.0635
   28CHL1   C24 2060   6.885   5.038   7.979 -0.1502 -0.2018 -0.0399
   28CHL1  H24A 2061   6.967   4.966   7.995 -1.0089 -1.2336 -0.1567
   28CHL1  H24B 2062   6.795   4.975   7.993 -0.2022 -0.3039 -0.8260
   28CHL1   C25 2063   6.910   5.090   7.842 -0.2371 -0.2268  0.8185
   28CHL1   H25 2064   6.991   5.166   7.841  0.7052 -1.1889  1.9720
   28CHL1   C26 2065   6.972   4.976   7.744 -0.6697 -1.4844  0.1808
   28CHL1  H26A 2066   7.077   4.956   7.775  1.3773  2.7661 -2.8915
   28CHL1  H26B 2067   6.904   4.888   7.751 -0.2655 -1.6842  2.4687
   28CHL1  H26C 2068   6.963   5.009   7.639 -1.8380  1.3058  1.0588
   28CHL1   C27 2069   6.790   5.158   7.776  0.4078  0.5398 -0.3110
   28CHL1  H27A 2070   6.811   5.191   7.672 -0.1487  2.2139  0.0870
   28CHL1  H27B 2071   6.701   5.093   7.788  0.3031  0.4494 -1.4731
   28CHL1  H27C 2072   6.771   5.244   7.843 -2.6052 -1.5635  1.8225
   29CHL1    C3 2073   3.786   6.791   6.212  0.0636 -0.4244  0.0249
   29CHL1    H3 2074   3.746   6.691   6.238 -0.1137  0.2804  2.7370
   29CHL1    O3 2075   3.809   6.807   6.074  0.0645  0.0445 -0.2429
   29CHL1   H3' 2076   3.882   6.869   6.071  0.3814 -0.3579 -1.1765
   29CHL1    C4 2077   3.683   6.897   6.257 -0.0125 -0.2012 -0.9497
   29CHL1   H4A 2078   3.713   7.000   6.228 -3.1208  1.4511  1.1371
   29CHL1   H4B 2079   3.589   6.879   6.201  0.1141 -0.5048 -1.0695
   29CHL1    C5 2080   3.650   6.893   6.404 -0.4106  0.4923  0.2770
   29CHL1    C6 2081   3.529   6.863   6.452  0.9016 -0.2742 -0.0910
   29CHL1    H6 2082   3.443   6.840   6.388  0.8496  0.7938 -0.4264
   29CHL1    C7 2083   3.496   6.859   6.598 -0.3919  0.7714  0.1481
   29CHL1   H7A 2084   3.403   6.918   6.613 -1.0808  0.3816 -2.1760
   29CHL1   H7B 2085   3.477   6.751   6.615  0.9544  0.6058  0.7423
   29CHL1    C8 2086   3.615   6.917   6.688  0.0267 -0.1655  0.2084
   29CHL1    H8 2087   3.599   7.027   6.678 -0.9659 -0.1848  1.3646
   29CHL1   C14 2088   3.602   6.874   6.836 -0.6113 -0.7253  0.6106
   29CHL1   H14 2089   3.612   6.763   6.835  1.2988 -0.6111  1.3759
   29CHL1   C15 2090   3.472   6.920   6.904  0.3817 -0.1242  0.0452
   29CHL1  H15A 2091   3.443   7.024   6.879 -0.9630 -0.6675 -0.7524
   29CHL1  H15B 2092   3.387   6.861   6.862  0.9619  0.2002 -1.6861
   29CHL1   C16 2093   3.509   6.893   7.053 -0.4952 -0.5455 -0.0059
   29CHL1  H16A 2094   3.477   6.981   7.113 -3.1935  0.5089 -2.7346
   29CHL1  H16B 2095   3.447   6.805   7.083 -1.1727 -1.0448 -2.6348
   29CHL1   C17 2096   3.663   6.863   7.062 -0.5025  0.4512 -0.2185
   29CHL1   H17 2097   3.664   6.752   7.056  0.3259  0.1161  3.4612
   29CHL1   C13 2098   3.717   6.914   6.929 -0.1895  0.0237 -0.3365
   29CHL1   C18 2099   3.719   7.075   6.940  0.4275  0.8966 -0.8899
   29CHL1  H18A 2100   3.617   7.118   6.955 -0.6894 -0.5570 -3.4824
   29CHL1  H18B 2101   3.799   7.100   7.012 -0.3554 -1.1857  0.8112
   29CHL1  H18C 2102   3.760   7.112   6.843  2.3021  1.6649  0.1639
   29CHL1   C12 2103   3.849   6.856   6.883 -0.1506  0.4349  1.2915
   29CHL1  H12A 2104   3.933   6.901   6.941  2.4147 -2.6385  0.2591
   29CHL1  H12B 2105   3.843   6.746   6.896 -1.2099  0.4141  0.7265
   29CHL1   C11 2106   3.871   6.897   6.740  0.2768  0.6032  0.2426
   29CHL1  H11A 2107   3.903   7.003   6.738  2.4905  0.0363 -2.8383
   29CHL1  H11B 2108   3.954   6.833   6.702  1.4479  1.8362  0.6179
   29CHL1    C9 2109   3.752   6.870   6.636 -0.3648  0.0014  0.3824
   29CHL1    H9 2110   3.746   6.759   6.644 -2.0823  0.1196  1.2806
   29CHL1   C10 2111   3.779   6.910   6.488  0.3804  0.2966 -0.0228
   29CHL1   C19 2112   3.812   7.061   6.482  0.3016  0.1618 -0.1997
   29CHL1  H19A 2113   3.830   7.088   6.376  2.1669 -3.7134 -1.0388
   29CHL1  H19B 2114   3.732   7.123   6.528  0.1076  0.2517 -0.6555
   29CHL1  H19C 2115   3.905   7.080   6.540  0.4070 -0.3101 -0.2059
   29CHL1    C1 2116   3.891   6.821   6.441  0.5622 -0.0924 -0.2318
   29CHL1   H1A 2117   3.981   6.862   6.491  0.1879 -0.6105  0.8898
   29CHL1   H1B 2118   3.872   6.718   6.478 -1.7658  0.5163  0.4757
   29CHL1    C2 2119   3.918   6.828   6.294  0.1154  1.1989  0.2355
   29CHL1   H2A 2120   4.003   6.769   6.253 -0.5444  2.1125 -2.6576
   29CHL1   H2B 2121   3.944   6.932   6.265  0.1781  0.4314 -2.8552
   29CHL1   C20 2122   3.736   6.892   7.188 -0.0457 -0.7033  0.1855
   29CHL1   H20 2123   3.846   6.902   7.175 -0.1646  1.0668  0.2973
   29CHL1   C21 2124   3.711   6.768   7.285 -0.2323 -0.2076  0.0991
   29CHL1  H21A 2125   3.610   6.771   7.331 -0.1427  2.2521  0.2745
   29CHL1  H21B 2126   3.778   6.777   7.373  0.5783  2.8097 -0.7089
   29CHL1  H21C 2127   3.731   6.669   7.239 -2.0145 -0.5638  0.0241
   29CHL1   C22 2128   3.696   7.021   7.262 -0.4157  0.2465  0.9525
   29CHL1  H22A 2129   3.701   7.111   7.197 -3.3617  0.2112  0.5774
   29CHL1  H22B 2130   3.588   7.022   7.287 -0.8980  0.0194 -0.9938
   29CHL1   C23 2131   3.786   7.052   7.384  0.0702  0.2248  0.2238
   29CHL1  H23A 2132   3.886   7.005   7.373 -0.0776  0.4329 -3.0465
   29CHL1  H23B 2133   3.805   7.161   7.378 -1.2889  0.5064  0.7288
   29CHL1   C24 2134   3.723   7.021   7.516  0.5153  0.3119  0.2745
   29CHL1  H24A 2135   3.643   7.095   7.540  0.2737 -0.2269  1.2060
   29CHL1  H24B 2136   3.668   6.924   7.510  4.3886 -2.1100  0.7136
   29CHL1   C25 2137   3.812   7.019   7.641  0.1150 -0.3679  0.0281
   29CHL1   H25 2138   3.866   7.116   7.645 -1.4281  0.5342 -0.2573
   29CHL1   C26 2139   3.717   7.014   7.766 -0.4614  0.3214  0.4177
   29CHL1  H26A 2140   3.643   7.096   7.777  0.7396  1.2405  2.0470
   29CHL1  H26B 2141   3.676   6.911   7.775 -0.9325  0.3324 -1.1885
   29CHL1  H26C 2142   3.791   7.017   7.849  1.4437 -1.8849 -1.0481
   29CHL1   C27 2143   3.911   6.902   7.634  0.2244  0.3901  0.2122
   29CHL1  H27A 2144   3.989   6.927   7.558 -1.0478  0.5982 -1.0735
   29CHL1  H27B 2145   3.956   6.906   7.735  0.8810 -0.4806 -0.0380
   29CHL1  H27C 2146   3.867   6.802   7.614 -0.2921  0.7044 -0.2512
   30CHL1    C3 2147   3.887   5.427   6.452  0.4637  0.0961 -1.1258
   30CHL1    H3 2148   3.895   5.536   6.431 -0.3580  0.4893  0.3887
   30CHL1    O3 2149   3.858   5.360   6.333 -0.0608  0.4941  0.4131
   30CHL1   H3' 2150   3.935   5.302   6.326  0.6944  1.1863  2.2642
   30CHL1    C4 2151   4.010   5.365   6.516  0.4545 -0.5394 -0.0559
   30CHL1   H4A 2152   3.987   5.256   6.523 -4.2979  0.3650  2.4979
   30CHL1   H4B 2153   4.091   5.388   6.443 -0.9195 -1.9234 -2.1182
   30CHL1    C5 2154   4.045   5.422   6.652  0.0348  0.2520  0.3009
   30CHL1    C6 2155   4.161   5.484   6.682  0.1703  0.0952 -0.3549
   30CHL1    H6 2156   4.237   5.497   6.603 -0.8723 -0.3286 -1.4769
   30CHL1    C7 2157   4.195   5.537   6.819  0.6164  0.0442 -0.5638
   30CHL1   H7A 2158   4.296   5.502   6.849 -0.1128 -0.9851  0.7967
   30CHL1   H7B 2159   4.179   5.647   6.827 -0.5478 -0.1852  0.5864
   30CHL1    C8 2160   4.104   5.486   6.929  0.8134 -0.8454 -0.8578
   30CHL1    H8 2161   4.137   5.386   6.965  0.4655 -0.4345  0.6728
   30CHL1   C14 2162   4.120   5.583   7.051 -0.3476  0.0621  0.5901
   30CHL1   H14 2163   4.078   5.680   7.019  0.9951 -0.0187 -1.6131
   30CHL1   C15 2164   4.257   5.613   7.104 -0.3441 -0.1675  0.1489
   30CHL1  H15A 2165   4.322   5.523   7.110 -0.8735 -0.5514  0.2710
   30CHL1  H15B 2166   4.308   5.700   7.058  0.1527  0.1728  1.3092
   30CHL1   C16 2167   4.227   5.651   7.251 -0.4116 -0.7785 -0.5074
   30CHL1  H16A 2168   4.284   5.579   7.314 -0.3139  1.3102  1.9594
   30CHL1  H16B 2169   4.256   5.754   7.282 -1.4913 -0.6269  0.0355
   30CHL1   C17 2170   4.073   5.640   7.280  0.1218  0.0613 -0.1505
   30CHL1   H17 2171   4.045   5.744   7.250  2.1532  1.7000  3.0528
   30CHL1   C13 2172   4.033   5.540   7.174 -0.1769  0.1919  0.6999
   30CHL1   C18 2173   4.056   5.398   7.229  0.0598  0.0493 -0.0485
   30CHL1  H18A 2174   4.042   5.332   7.141  1.2336 -0.4672  0.1278
   30CHL1  H18B 2175   4.157   5.378   7.271 -0.6602 -1.5586  1.0459
   30CHL1  H18C 2176   3.986   5.382   7.314  0.8559  2.7086  1.2320
   30CHL1   C12 2177   3.887   5.551   7.121  0.6721 -0.8031 -0.2733
   30CHL1  H12A 2178   3.818   5.515   7.200 -0.1310  1.1948 -0.0056
   30CHL1  H12B 2179   3.856   5.656   7.100 -0.3302 -0.6766  1.6216
   30CHL1   C11 2180   3.863   5.466   6.995  0.0097 -0.3779  0.6807
   30CHL1  H11A 2181   3.869   5.361   7.032  3.4397  0.7426  3.9528
   30CHL1  H11B 2182   3.759   5.462   6.957  0.3976 -1.3711 -0.3316
   30CHL1    C9 2183   3.966   5.489   6.881  0.3524 -0.2124 -0.4873
   30CHL1    H9 2184   3.951   5.596   6.853  2.1910  0.1570 -0.2084
   30CHL1   C10 2185   3.932   5.410   6.749  0.7119  0.9585 -0.5915
   30CHL1   C19 2186   3.925   5.260   6.793  0.9996  1.1653 -0.0937
   30CHL1  H19A 2187   3.828   5.242   6.844  0.2230 -2.0399 -2.3487
   30CHL1  H19B 2188   3.945   5.185   6.712 -0.1299 -0.1326  0.7899
   30CHL1  H19C 2189   4.008   5.233   6.862  0.0065 -1.8608  0.0638
   30CHL1    C1 2190   3.797   5.455   6.692  0.3629  0.2930  0.8799
   30CHL1   H1A 2191   3.705   5.435   6.752 -3.1546 -2.6980 -4.6224
   30CHL1   H1B 2192   3.826   5.562   6.683  3.0464 -0.4493 -0.2565
   30CHL1    C2 2193   3.767   5.400   6.551  0.5087 -0.1679  0.3298
   30CHL1   H2A 2194   3.682   5.447   6.498  0.9059  4.3174  3.1354
   30CHL1   H2B 2195   3.754   5.291   6.562  0.3525 -0.1717  0.1183
   30CHL1   C20 2196   4.045   5.620   7.426 -0.5152  0.0927 -0.1412
   30CHL1   H20 2197   4.097   5.526   7.457  1.0188 -0.3144 -3.5267
   30CHL1   C21 2198   3.890   5.612   7.445 -0.1724  0.0694  0.5372
   30CHL1  H21A 2199   3.836   5.530   7.392  0.4957 -0.1176  0.1335
   30CHL1  H21B 2200   3.849   5.713   7.424  1.1885  0.5736  0.1949
   30CHL1  H21C 2201   3.867   5.579   7.548  0.2899 -1.9792  0.0458
   30CHL1   C22 2202   4.116   5.723   7.516 -0.6047 -0.1356 -0.5048
   30CHL1  H22A 2203   4.225   5.713   7.493 -0.7774 -0.4651 -1.2093
   30CHL1  H22B 2204   4.089   5.824   7.479  0.6160  1.2743  2.1159
   30CHL1   C23 2205   4.103   5.717   7.664 -0.5391  0.3036  0.1216
   30CHL1  H23A 2206   3.996   5.733   7.688  0.2661  2.0350  3.0729
   30CHL1  H23B 2207   4.139   5.619   7.701  0.6003 -0.0160 -1.7074
   30CHL1   C24 2208   4.188   5.829   7.734 -0.6778 -0.5256 -0.6066
   30CHL1  H24A 2209   4.296   5.819   7.710 -0.6897 -0.5216 -0.6606
   30CHL1  H24B 2210   4.155   5.921   7.682 -0.2335 -0.3701 -0.6161
   30CHL1   C25 2211   4.173   5.828   7.888 -0.3782 -0.8487  0.0262
   30CHL1   H25 2212   4.063   5.817   7.899 -0.3735 -2.2639 -1.0177
   30CHL1   C26 2213   4.241   5.703   7.956 -0.1814  0.1967 -0.0350
   30CHL1  H26A 2214   4.180   5.618   7.919  0.6898  0.4891 -2.3521
   30CHL1  H26B 2215   4.347   5.703   7.922 -0.8464  0.4311 -2.3093
   30CHL1  H26C 2216   4.239   5.705   8.067 -0.3298 -1.3726  0.0089
   30CHL1   C27 2217   4.209   5.947   7.964 -0.4078 -0.4630 -0.2618
   30CHL1  H27A 2218   4.183   6.044   7.916  0.6073 -0.0428  0.0128
   30CHL1  H27B 2219   4.161   5.955   8.064 -1.0664  1.2517 -0.6898
   30CHL1  H27C 2220   4.320   5.947   7.978 -0.3597  0.3786 -0.5771
   31CHL1    C3 2221   2.690   4.102   7.058  0.4532  0.5982  0.2361
   31CHL1    H3 2222   2.750   4.015   7.093 -1.3495 -1.6459 -1.9158
   31CHL1    O3 2223   2.739   4.123   6.928 -0.2931 -0.1508  0.0729
   31CHL1   H3' 2224   2.684   4.193   6.891  1.7061  0.8136 -1.2651
   31CHL1    C4 2225   2.541   4.060   7.054  0.3724  0.3368 -0.3749
   31CHL1   H4A 2226   2.485   4.139   6.999  0.1851 -1.5657 -3.1078
   31CHL1   H4B 2227   2.529   3.971   6.989 -0.3228  0.5367 -0.5284
   31CHL1    C5 2228   2.483   4.045   7.189  0.5293 -0.0539 -0.3851
   31CHL1    C6 2229   2.407   3.941   7.213  0.6224  1.0016 -0.4219
   31CHL1    H6 2230   2.391   3.869   7.131  0.7200 -1.2910  1.4502
   31CHL1    C7 2231   2.352   3.896   7.341  0.3429 -0.1105  0.2673
   31CHL1   H7A 2232   2.246   3.861   7.342  0.4631 -0.4811  0.3895
   31CHL1   H7B 2233   2.423   3.817   7.374  0.6626  0.2018  0.3347
   31CHL1    C8 2234   2.349   4.011   7.438 -0.0032  0.0590  0.4991
   31CHL1    H8 2235   2.275   4.087   7.403  0.0552  0.3463  0.9913
   31CHL1   C14 2236   2.315   3.966   7.574 -0.1217 -0.3421 -0.2133
   31CHL1   H14 2237   2.393   3.898   7.615  3.3587  1.4114 -3.2587
   31CHL1   C15 2238   2.184   3.886   7.590 -0.0377 -0.4437 -0.7447
   31CHL1  H15A 2239   2.098   3.931   7.536 -1.5761 -1.0274  1.1000
   31CHL1  H15B 2240   2.208   3.781   7.563  0.0305 -1.3952  2.5659
   31CHL1   C16 2241   2.156   3.894   7.745 -0.1248  0.3126  0.1360
   31CHL1  H16A 2242   2.060   3.949   7.757 -0.1503  0.2539  0.2074
   31CHL1  H16B 2243   2.165   3.799   7.803  1.1010 -0.7110 -1.6203
   31CHL1   C17 2244   2.259   3.995   7.800  0.0875  0.0633 -0.3505
   31CHL1   H17 2245   2.346   3.934   7.835 -0.9476 -0.8343  0.7393
   31CHL1   C13 2246   2.309   4.079   7.676 -0.2829  0.8421 -0.9424
   31CHL1   C18 2247   2.196   4.177   7.638 -0.8759  0.2556 -0.3509
   31CHL1  H18A 2248   2.200   4.227   7.539 -1.2426 -1.8823 -1.4910
   31CHL1  H18B 2249   2.094   4.133   7.641 -0.3079 -1.0595  0.6001
   31CHL1  H18C 2250   2.203   4.264   7.707 -0.0357  0.5827 -0.8308
   31CHL1   C12 2251   2.449   4.135   7.690 -0.2697  0.1358 -0.0677
   31CHL1  H12A 2252   2.444   4.225   7.756 -0.5130  0.8304 -1.0122
   31CHL1  H12B 2253   2.518   4.058   7.732 -1.6049 -0.4651  1.1146
   31CHL1   C11 2254   2.489   4.194   7.555  0.6550 -0.6810  0.2795
   31CHL1  H11A 2255   2.431   4.285   7.528  0.2370 -0.1713  2.6519
   31CHL1  H11B 2256   2.594   4.231   7.552  0.6320 -0.6516 -0.6214
   31CHL1    C9 2257   2.480   4.088   7.438 -0.7817 -0.0213 -0.0828
   31CHL1    H9 2258   2.562   4.014   7.450  0.3322  1.1693 -0.1628
   31CHL1   C10 2259   2.518   4.149   7.296  0.0386  0.0255 -0.0329
   31CHL1   C19 2260   2.424   4.271   7.263  0.1615  0.2227  0.3868
   31CHL1  H19A 2261   2.438   4.346   7.345  0.9559  1.7346 -1.0751
   31CHL1  H19B 2262   2.455   4.331   7.175 -0.1910  0.1088  0.1838
   31CHL1  H19C 2263   2.317   4.247   7.252 -0.4622  2.1378  1.5923
   31CHL1    C1 2264   2.672   4.192   7.292 -0.7425 -0.1423 -0.0054
   31CHL1   H1A 2265   2.681   4.287   7.348  1.8374 -0.6448  0.5831
   31CHL1   H1B 2266   2.739   4.115   7.337 -0.9546 -1.6546 -2.1113
   31CHL1    C2 2267   2.713   4.226   7.146 -0.8329  1.1099  0.2281
   31CHL1   H2A 2268   2.822   4.245   7.145  0.1473 -3.2058 -2.4830
   31CHL1   H2B 2269   2.649   4.307   7.105  0.4635  3.0472  1.8382
   31CHL1   C20 2270   2.197   4.068   7.922  0.1886  0.0981 -0.3449
   31CHL1   H20 2271   2.109   4.127   7.887  0.3412 -0.4708 -1.7524
   31CHL1   C21 2272   2.296   4.162   7.987 -0.6700  0.1217 -0.5709
   31CHL1  H21A 2273   2.250   4.185   8.086  1.3978 -2.5547  1.1514
   31CHL1  H21B 2274   2.312   4.252   7.924 -2.2391  1.3487  0.6762
   31CHL1  H21C 2275   2.392   4.107   8.003 -0.6709  0.0339 -0.8600
   31CHL1   C22 2276   2.142   3.961   8.022 -0.2223 -0.0358  0.2212
   31CHL1  H22A 2277   2.118   4.023   8.111  0.6578  3.4494 -1.7835
   31CHL1  H22B 2278   2.058   3.897   7.989  0.9669 -1.3374 -0.4246
   31CHL1   C23 2279   2.260   3.871   8.072  0.1779  0.7130  1.1053
   31CHL1  H23A 2280   2.284   3.804   7.987 -2.1475  0.0027  0.9297
   31CHL1  H23B 2281   2.356   3.921   8.099  0.2339  1.8386 -0.9697
   31CHL1   C24 2282   2.213   3.788   8.189  0.6906 -0.4557  0.0723
   31CHL1  H24A 2283   2.181   3.848   8.276 -0.9530 -2.1531  0.7295
   31CHL1  H24B 2284   2.130   3.721   8.155  2.1456 -1.9465 -0.7066
   31CHL1   C25 2285   2.316   3.682   8.233 -0.1448  0.3704 -0.2110
   31CHL1   H25 2286   2.348   3.632   8.139 -1.4556 -1.2450  0.1702
   31CHL1   C26 2287   2.439   3.740   8.293 -0.0925  0.5757 -0.4352
   31CHL1  H26A 2288   2.502   3.793   8.218  0.3688  2.8059  1.4042
   31CHL1  H26B 2289   2.405   3.816   8.366  0.1868 -0.3812  0.7241
   31CHL1  H26C 2290   2.506   3.668   8.345 -0.1721  0.1887 -0.8641
   31CHL1   C27 2291   2.259   3.577   8.334  0.0478 -0.6671  0.6664
   31CHL1  H27A 2292   2.334   3.501   8.366 -0.2764 -0.9108  0.8525
   31CHL1  H27B 2293   2.177   3.525   8.280  1.7214 -1.5664 -1.1344
   31CHL1  H27C 2294   2.218   3.619   8.429 -0.4912 -0.6491  0.4255
   32CHL1    C3 2295   3.842   4.880   6.510 -0.2978  0.0435  0.7924
   32CHL1    H3 2296   3.880   4.982   6.490  0.8856 -0.8678 -2.2479
   32CHL1    O3 2297   3.833   4.815   6.388  0.5521  0.5401 -0.2279
   32CHL1   H3' 2298   3.821   4.721   6.406  1.2449  0.5647  0.3860
   32CHL1    C4 2299   3.936   4.798   6.605  0.9337 -0.2238  0.2999
   32CHL1   H4A 2300   3.898   4.694   6.598  1.8602 -0.5850  0.4318
   32CHL1   H4B 2301   4.040   4.795   6.565  0.6339 -0.3519 -0.4823
   32CHL1    C5 2302   3.937   4.850   6.745 -0.3862  0.3259  0.4738
   32CHL1    C6 2303   4.047   4.889   6.802 -0.5439 -0.5254 -0.0531
   32CHL1    H6 2304   4.142   4.896   6.747  1.0419  0.1265  2.6003
   32CHL1    C7 2305   4.054   4.919   6.951  0.2102  0.0968 -0.0114
   32CHL1   H7A 2306   4.127   4.847   6.995 -0.4564 -0.6767 -0.1670
   32CHL1   H7B 2307   4.094   5.021   6.974 -1.7638  1.2579 -1.4971
   32CHL1    C8 2308   3.928   4.901   7.027  0.5053  0.1085  0.3394
   32CHL1    H8 2309   3.935   4.796   7.063  2.1161 -0.1293 -0.6115
   32CHL1   C14 2310   3.929   4.976   7.152 -0.0061 -0.2845  0.1360
   32CHL1   H14 2311   3.929   5.081   7.116 -0.6218  0.0612  1.0741
   32CHL1   C15 2312   4.041   4.955   7.255  0.6894  0.3139  0.2532
   32CHL1  H15A 2313   4.030   4.850   7.287 -0.6347 -0.0653 -1.3068
   32CHL1  H15B 2314   4.141   4.983   7.217  0.6860  2.1260  1.4177
   32CHL1   C16 2315   3.996   5.037   7.381 -0.0054 -0.8163  0.2845
   32CHL1  H16A 2316   3.994   4.971   7.470 -0.4678  0.1047  0.9741
   32CHL1  H16B 2317   4.059   5.123   7.410 -1.6986 -0.1763  2.3696
   32CHL1   C17 2318   3.842   5.075   7.354 -0.3182  0.3141  0.0724
   32CHL1   H17 2319   3.836   5.177   7.310 -1.2082 -0.3203 -1.3559
   32CHL1   C13 2320   3.803   4.976   7.241 -0.5565 -0.3245 -0.4086
   32CHL1   C18 2321   3.777   4.840   7.302  0.0187  0.3915  0.0944
   32CHL1  H18A 2322   3.672   4.818   7.329 -0.1620 -0.1740 -1.0095
   32CHL1  H18B 2323   3.794   4.763   7.223 -0.0005  2.2327 -1.7972
   32CHL1  H18C 2324   3.849   4.808   7.380 -0.8517 -0.2489  0.6562
   32CHL1   C12 2325   3.690   5.017   7.152 -0.2677 -0.3579 -0.0129
   32CHL1  H12A 2326   3.595   5.011   7.209 -0.7558 -1.3530 -0.9079
   32CHL1  H12B 2327   3.716   5.124   7.135 -0.3797 -0.2576  0.4334
   32CHL1   C11 2328   3.666   4.918   7.035  0.3218  0.4280 -0.6463
   32CHL1  H11A 2329   3.650   4.812   7.064  1.3575  0.2774 -0.5559
   32CHL1  H11B 2330   3.578   4.953   6.977 -1.8804 -1.9918  1.0217
   32CHL1    C9 2331   3.796   4.927   6.943  0.1341  0.4379 -0.8091
   32CHL1    H9 2332   3.795   5.033   6.910 -0.7797 -0.2443 -3.2656
   32CHL1   C10 2333   3.795   4.848   6.805  0.0231 -0.0207 -0.2613
   32CHL1   C19 2334   3.745   4.706   6.826 -0.2545 -0.1672  0.0144
   32CHL1  H19A 2335   3.806   4.664   6.909  1.1834 -0.8690 -1.3291
   32CHL1  H19B 2336   3.640   4.703   6.861 -0.3723  2.5937  0.1113
   32CHL1  H19C 2337   3.751   4.637   6.739 -0.2045  1.4397 -1.3206
   32CHL1    C1 2338   3.698   4.930   6.711 -0.1050  0.2732  0.2594
   32CHL1   H1A 2339   3.597   4.923   6.756 -0.1048  1.7509  0.5135
   32CHL1   H1B 2340   3.729   5.036   6.715  1.3203 -0.0008 -1.6941
   32CHL1    C2 2341   3.700   4.889   6.562  0.3559  0.1873  0.1585
   32CHL1   H2A 2342   3.647   4.974   6.513 -0.7529 -0.9645 -0.7168
   32CHL1   H2B 2343   3.645   4.794   6.545 -1.1464  0.6801  1.9880
   32CHL1   C20 2344   3.762   5.064   7.489 -0.2588 -0.1808  0.2190
   32CHL1   H20 2345   3.780   4.960   7.524  0.3435 -0.0251  0.3941
   32CHL1   C21 2346   3.613   5.092   7.472 -0.2591  0.5065 -0.3900
   32CHL1  H21A 2347   3.605   5.182   7.407 -0.3003  0.6150 -0.2344
   32CHL1  H21B 2348   3.551   5.115   7.561  0.3727 -1.3484  0.5776
   32CHL1  H21C 2349   3.558   5.005   7.430 -0.3320 -0.0806  0.8709
   32CHL1   C22 2350   3.832   5.154   7.596  0.6204  1.1927 -1.1620
   32CHL1  H22A 2351   3.939   5.127   7.600  0.0239 -1.6395 -2.1846
   32CHL1  H22B 2352   3.827   5.264   7.575 -1.3684  1.1900 -0.9285
   32CHL1   C23 2353   3.770   5.140   7.735  0.0136 -0.3141  0.1082
   32CHL1  H23A 2354   3.834   5.194   7.809 -0.2480 -0.9359  0.8052
   32CHL1  H23B 2355   3.677   5.202   7.734 -0.0019 -0.3222 -1.8799
   32CHL1   C24 2356   3.765   5.008   7.799  0.7379  0.1289 -0.0418
   32CHL1  H24A 2357   3.710   4.940   7.731  2.1983 -1.0422 -0.0814
   32CHL1  H24B 2358   3.869   4.971   7.803  0.1642 -1.4428  2.4423
   32CHL1   C25 2359   3.697   4.994   7.941  0.1875 -0.4540 -1.0671
   32CHL1   H25 2360   3.750   5.064   8.009  0.3076 -2.2813  0.8266
   32CHL1   C26 2361   3.549   5.028   7.931  0.1352 -0.4111  0.3683
   32CHL1  H26A 2362   3.472   4.962   7.885 -1.5249  2.0079 -0.5189
   32CHL1  H26B 2363   3.519   5.041   8.037 -0.7065 -2.5831  0.4483
   32CHL1  H26C 2364   3.549   5.124   7.875 -1.7507  0.4239  1.6986
   32CHL1   C27 2365   3.719   4.860   8.030 -0.7784 -0.1409  0.2377
   32CHL1  H27A 2366   3.826   4.832   8.039 -1.0783 -1.8924 -1.0231
   32CHL1  H27B 2367   3.672   4.873   8.130 -0.8259  0.4468  0.1401
   32CHL1  H27C 2368   3.669   4.775   7.978 -0.1383  0.1352 -0.8391
   33CHL1    C3 2369   4.546   6.668   6.033  0.0804  0.8534 -0.1393
   33CHL1    H3 2370   4.445   6.697   6.069  0.8164  0.7072  2.2446
   33CHL1    O3 2371   4.558   6.684   5.888  0.0549  0.0190 -1.1693
   33CHL1   H3' 2372   4.551   6.779   5.877  0.3984  0.1211 -0.5702
   33CHL1    C4 2373   4.645   6.762   6.093 -0.0068  0.3973 -0.1625
   33CHL1   H4A 2374   4.748   6.759   6.051 -0.0107  0.0744 -0.1481
   33CHL1   H4B 2375   4.607   6.860   6.056  0.2975 -0.1101 -1.8918
   33CHL1    C5 2376   4.662   6.752   6.239  0.0450 -0.4962 -0.3487
   33CHL1    C6 2377   4.660   6.856   6.322 -0.0933  0.0271  0.3706
   33CHL1    H6 2378   4.654   6.960   6.287  1.3440 -0.8746 -2.8945
   33CHL1    C7 2379   4.684   6.841   6.467 -0.9270 -0.1919  0.5479
   33CHL1   H7A 2380   4.761   6.918   6.492 -0.2770 -0.8349  0.5623
   33CHL1   H7B 2381   4.595   6.885   6.517 -0.9953  1.2744 -0.7893
   33CHL1    C8 2382   4.720   6.701   6.517  0.5051  0.4034 -0.1319
   33CHL1    H8 2383   4.830   6.688   6.511  0.5047 -0.7009  1.5656
   33CHL1   C14 2384   4.693   6.686   6.665  0.4875  0.0817  0.6923
   33CHL1   H14 2385   4.582   6.681   6.664  0.4549  0.5189  1.2605
   33CHL1   C15 2386   4.735   6.800   6.755 -0.0030  0.1396 -0.4607
   33CHL1  H15A 2387   4.835   6.831   6.718  0.9156 -0.7417  1.1669
   33CHL1  H15B 2388   4.658   6.879   6.749 -0.5842 -0.5080 -2.3385
   33CHL1   C16 2389   4.731   6.745   6.894 -0.5798 -0.0998  0.1498
   33CHL1  H16A 2390   4.836   6.738   6.929 -0.3339  0.8008 -0.3689
   33CHL1  H16B 2391   4.677   6.809   6.967  1.1762 -0.6318  2.0280
   33CHL1   C17 2392   4.692   6.600   6.879  0.1903  0.1179  0.4522
   33CHL1   H17 2393   4.581   6.595   6.878  0.1867 -0.6817  1.9378
   33CHL1   C13 2394   4.729   6.559   6.732 -0.0188 -0.1403 -0.2328
   33CHL1   C18 2395   4.884   6.554   6.724  0.0813  0.4560  0.6299
   33CHL1  H18A 2396   4.922   6.548   6.619 -2.7901  1.5792 -0.5831
   33CHL1  H18B 2397   4.933   6.638   6.776 -0.2283  0.1388  1.4491
   33CHL1  H18C 2398   4.907   6.455   6.768  0.5226  1.0646  1.8055
   33CHL1   C12 2399   4.657   6.445   6.654 -0.5338 -1.0241 -0.3800
   33CHL1  H12A 2400   4.691   6.344   6.686 -0.1868 -0.4636  1.1057
   33CHL1  H12B 2401   4.547   6.454   6.662 -0.2869  2.6459  0.4592
   33CHL1   C11 2402   4.680   6.455   6.498  0.3930 -0.3371  0.2918
   33CHL1  H11A 2403   4.788   6.437   6.484  0.7011  1.3287  0.3272
   33CHL1  H11B 2404   4.619   6.374   6.453 -0.0139 -0.2211  0.6266
   33CHL1    C9 2405   4.648   6.594   6.437  0.0089  0.3677 -0.5587
   33CHL1    H9 2406   4.543   6.620   6.463  0.3539 -0.1540  1.5193
   33CHL1   C10 2407   4.669   6.609   6.289 -0.3135 -0.0302 -0.0727
   33CHL1   C19 2408   4.816   6.566   6.253 -0.0362  0.1780 -0.0195
   33CHL1  H19A 2409   4.829   6.459   6.279  0.3401  0.0811 -0.5776
   33CHL1  H19B 2410   4.821   6.574   6.142  1.2477 -1.6261 -0.1342
   33CHL1  H19C 2411   4.881   6.637   6.307  0.8920  0.5448 -1.5401
   33CHL1    C1 2412   4.563   6.512   6.221  0.3835 -0.2267  0.5084
   33CHL1   H1A 2413   4.575   6.410   6.264 -0.5424  0.0802  1.5437
   33CHL1   H1B 2414   4.462   6.543   6.255  0.1623  0.7492 -0.9518
   33CHL1    C2 2415   4.571   6.520   6.068  0.7977 -0.7088  0.4468
   33CHL1   H2A 2416   4.488   6.466   6.018  1.8564 -0.5145 -1.6568
   33CHL1   H2B 2417   4.668   6.485   6.025 -0.6048 -2.0682 -1.8108
   33CHL1   C20 2418   4.740   6.509   6.991  0.3529 -0.1962 -0.1456
   33CHL1   H20 2419   4.849   6.492   6.981 -0.0541 -2.8265 -0.6696
   33CHL1   C21 2420   4.677   6.366   6.980  0.8357  0.2120 -0.0706
   33CHL1  H21A 2421   4.692   6.316   7.079  0.0067  1.6567  0.8256
   33CHL1  H21B 2422   4.708   6.301   6.896 -0.8978 -0.2186 -0.4240
   33CHL1  H21C 2423   4.566   6.375   6.975  0.8653 -0.0194 -1.4087
   33CHL1   C22 2424   4.719   6.571   7.131 -0.1496 -0.8079 -0.1892
   33CHL1  H22A 2425   4.768   6.494   7.196 -0.5561 -0.3932  0.6260
   33CHL1  H22B 2426   4.778   6.665   7.141  0.6844 -1.3440  0.0960
   33CHL1   C23 2427   4.570   6.586   7.177 -0.2129  0.1074 -0.1068
   33CHL1  H23A 2428   4.522   6.671   7.125 -0.3073  0.0293 -0.1472
   33CHL1  H23B 2429   4.512   6.495   7.153  2.3490 -2.2873  2.0564
   33CHL1   C24 2430   4.543   6.590   7.331  0.5402  0.1637 -0.7204
   33CHL1  H24A 2431   4.437   6.564   7.350  0.3984  0.5000 -1.0593
   33CHL1  H24B 2432   4.597   6.499   7.366  0.3034 -0.5446 -2.1444
   33CHL1   C25 2433   4.589   6.715   7.398  0.2297 -0.3221 -0.4957
   33CHL1   H25 2434   4.697   6.730   7.378  0.8050  0.5260  2.7961
   33CHL1   C26 2435   4.520   6.843   7.347  0.5790 -0.5836 -0.1200
   33CHL1  H26A 2436   4.557   6.931   7.403  1.2349 -1.4441  0.8389
   33CHL1  H26B 2437   4.537   6.855   7.237 -1.9088  1.2174 -0.3848
   33CHL1  H26C 2438   4.411   6.839   7.370  1.1053  1.5943  3.5536
   33CHL1   C27 2439   4.589   6.709   7.551  0.0288 -0.2921 -0.1897
   33CHL1  H27A 2440   4.679   6.652   7.583 -1.4553 -2.5858  0.1512
   33CHL1  H27B 2441   4.603   6.814   7.582 -0.8033 -0.6742  1.6384
   33CHL1  H27C 2442   4.493   6.664   7.585  1.6137 -3.7250  0.2209
   34CHL1    C3 2443   4.454   1.087   6.578 -0.4238  0.4061 -0.4473
   34CHL1    H3 2444   4.376   1.011   6.602  0.3782 -0.6739 -1.1500
   34CHL1    O3 2445   4.451   1.110   6.442  0.2465 -0.3426  0.1450
   34CHL1   H3' 2446   4.448   1.205   6.430 -0.6056 -0.2713  0.8133
   34CHL1    C4 2447   4.447   1.219   6.651  0.1024  0.2326  0.4277
   34CHL1   H4A 2448   4.517   1.296   6.613  1.6090 -1.6449 -0.7492
   34CHL1   H4B 2449   4.349   1.258   6.614  0.2290 -1.0413 -1.3709
   34CHL1    C5 2450   4.450   1.204   6.801 -0.3664  0.4920  1.0417
   34CHL1    C6 2451   4.347   1.244   6.872 -0.6188  0.1438  0.2704
   34CHL1    H6 2452   4.268   1.296   6.816 -1.7084 -1.1811  0.5491
   34CHL1    C7 2453   4.340   1.226   7.024  0.4408  0.3235  0.1662
   34CHL1   H7A 2454   4.310   1.321   7.074  0.4422 -0.0312  0.8458
   34CHL1   H7B 2455   4.267   1.147   7.052  1.4009 -0.9626 -0.8100
   34CHL1    C8 2456   4.481   1.200   7.080 -0.3045  0.0287  0.3221
   34CHL1    H8 2457   4.534   1.297   7.070  0.2685 -0.4217 -1.2947
   34CHL1   C14 2458   4.469   1.169   7.227 -1.0370 -0.0742  0.7568
   34CHL1   H14 2459   4.418   1.072   7.213  0.2492 -0.4517 -2.2297
   34CHL1   C15 2460   4.380   1.252   7.320  0.1909 -0.0743 -0.1439
   34CHL1  H15A 2461   4.388   1.361   7.303 -0.4989  0.0224  0.1110
   34CHL1  H15B 2462   4.275   1.221   7.306  0.6852 -1.5897 -0.6882
   34CHL1   C16 2463   4.431   1.210   7.454  0.2104 -0.0179  0.1647
   34CHL1  H16A 2464   4.473   1.302   7.501 -1.0532  1.0760 -0.7644
   34CHL1  H16B 2465   4.350   1.174   7.521 -1.4430  2.3366 -0.4298
   34CHL1   C17 2466   4.551   1.115   7.438  0.1887  0.2777 -0.3584
   34CHL1   H17 2467   4.511   1.011   7.426 -1.6501  0.9293 -0.2738
   34CHL1   C13 2468   4.603   1.145   7.291  0.2365  0.1022 -0.9285
   34CHL1   C18 2469   4.701   1.266   7.291  0.1427 -0.1090  0.0756
   34CHL1  H18A 2470   4.654   1.355   7.340  0.9263  1.3350 -1.6836
   34CHL1  H18B 2471   4.791   1.249   7.352 -0.0927  0.4640  0.6009
   34CHL1  H18C 2472   4.719   1.298   7.186 -0.9069  2.3915  0.5713
   34CHL1   C12 2473   4.659   1.017   7.216 -0.2349 -0.1720  0.1782
   34CHL1  H12A 2474   4.753   0.974   7.258 -0.8432 -0.5263  1.2158
   34CHL1  H12B 2475   4.592   0.929   7.228 -0.5730 -0.0894 -0.9854
   34CHL1   C11 2476   4.681   1.042   7.069  0.1982 -0.3394 -0.5793
   34CHL1  H11A 2477   4.766   1.114   7.065 -0.2042  0.0982 -1.7418
   34CHL1  H11B 2478   4.711   0.948   7.018  1.2146 -0.3281 -0.0210
   34CHL1    C9 2479   4.559   1.096   7.002  0.0830  0.4660 -0.3824
   34CHL1    H9 2480   4.483   1.014   6.996 -0.9070  1.3779 -0.6416
   34CHL1   C10 2481   4.573   1.128   6.852 -0.2929 -0.4461  0.2003
   34CHL1   C19 2482   4.706   1.206   6.828 -0.2201  0.0731  0.3330
   34CHL1  H19A 2483   4.710   1.253   6.727  0.0385  0.6705  0.6149
   34CHL1  H19B 2484   4.703   1.284   6.908 -0.1957  0.6268 -0.1995
   34CHL1  H19C 2485   4.789   1.136   6.851 -0.1381  0.3314  0.8368
   34CHL1    C1 2486   4.592   0.994   6.766 -0.8852 -0.0050  0.0774
   34CHL1   H1A 2487   4.686   0.943   6.796 -1.2290 -1.1298 -0.7325
   34CHL1   H1B 2488   4.507   0.929   6.795 -1.3631  1.2131  1.5780
   34CHL1    C2 2489   4.584   1.021   6.614 -0.5258 -0.6741  0.1339
   34CHL1   H2A 2490   4.585   0.925   6.557 -2.6840 -1.4982  1.3370
   34CHL1   H2B 2491   4.676   1.073   6.581 -1.8234  2.3801  1.0301
   34CHL1   C20 2492   4.645   1.119   7.556  0.2407 -0.5222 -0.1397
   34CHL1   H20 2493   4.696   1.214   7.578  0.7825 -0.9945  0.6873
   34CHL1   C21 2494   4.747   1.011   7.540  0.0365  0.0562  0.2546
   34CHL1  H21A 2495   4.694   0.916   7.518 -2.3450  0.3108  3.9811
   34CHL1  H21B 2496   4.803   0.995   7.635 -0.5156 -0.6500  0.4688
   34CHL1  H21C 2497   4.808   1.032   7.450  0.0578 -0.5811  0.1161
   34CHL1   C22 2498   4.565   1.095   7.691 -0.1351  0.0734 -0.1786
   34CHL1  H22A 2499   4.480   1.028   7.668 -0.7158  1.3558 -2.0237
   34CHL1  H22B 2500   4.628   1.046   7.769 -1.6224 -0.4345  0.7435
   34CHL1   C23 2501   4.504   1.221   7.764  0.6715  0.0509 -0.2951
   34CHL1  H23A 2502   4.578   1.301   7.784 -0.8716  1.3953  0.2250
   34CHL1  H23B 2503   4.424   1.269   7.703  2.0059  1.7878 -0.7625
   34CHL1   C24 2504   4.429   1.183   7.897 -0.5576  0.2862  0.1166
   34CHL1  H24A 2505   4.361   1.269   7.916 -2.7237 -1.7743  2.5858
   34CHL1  H24B 2506   4.365   1.095   7.875  0.9293 -0.8848  0.3232
   34CHL1   C25 2507   4.530   1.143   8.016 -1.0370  0.6115  0.4544
   34CHL1   H25 2508   4.605   1.064   7.993  0.8735  2.2542  0.7358
   34CHL1   C26 2509   4.621   1.260   8.064 -0.0920  0.3452  0.6728
   34CHL1  H26A 2510   4.682   1.229   8.151  1.2158 -1.2133 -0.7362
   34CHL1  H26B 2511   4.680   1.305   7.982 -0.6045 -0.9292 -0.4301
   34CHL1  H26C 2512   4.550   1.339   8.098  0.5481  1.3568 -0.2857
   34CHL1   C27 2513   4.449   1.086   8.140  0.9998  0.2134  0.2036
   34CHL1  H27A 2514   4.422   0.980   8.121 -1.9329  0.2151  3.3569
   34CHL1  H27B 2515   4.506   1.081   8.235  1.9003 -2.5018 -0.3935
   34CHL1  H27C 2516   4.357   1.147   8.152  0.7343 -0.3354  0.9565
   35CHL1    C3 2517   0.697   5.873   6.868  0.0200  0.0093 -0.0624
   35CHL1    H3 2518   0.653   5.961   6.919 -0.0522 -1.1609  2.0290
   35CHL1    O3 2519   0.675   5.890   6.728  0.6749 -0.6576 -0.1853
   35CHL1   H3' 2520   0.713   5.809   6.694  0.7491 -0.5138 -0.4455
   35CHL1    C4 2521   0.845   5.859   6.911  0.4969  0.5908 -0.3427
   35CHL1   H4A 2522   0.879   5.766   6.861 -0.9523 -0.3842  0.4456
   35CHL1   H4B 2523   0.903   5.946   6.872 -0.7658  1.3097 -0.6647
   35CHL1    C5 2524   0.863   5.856   7.065 -0.4026 -0.7032 -0.3123
   35CHL1    C6 2525   0.941   5.948   7.130 -0.1546 -0.5298  1.0712
   35CHL1    H6 2526   0.993   6.029   7.077 -1.5800 -0.6559 -0.6182
   35CHL1    C7 2527   0.963   5.951   7.278 -0.2330  0.3304  0.4737
   35CHL1   H7A 2528   1.068   5.976   7.307  0.0600  0.6564 -0.7921
   35CHL1   H7B 2529   0.895   6.027   7.321  1.0616  1.9455 -0.2157
   35CHL1    C8 2530   0.921   5.819   7.353  0.1985 -0.2308  0.2664
   35CHL1    H8 2531   1.001   5.742   7.345 -0.5443 -1.2934  2.4056
   35CHL1   C14 2532   0.903   5.840   7.505 -0.2916  0.4331  0.0775
   35CHL1   H14 2533   0.836   5.928   7.521 -0.1930  0.4598  0.3547
   35CHL1   C15 2534   1.032   5.882   7.581  0.7009  0.4964  0.0490
   35CHL1  H15A 2535   1.118   5.827   7.540  0.1163 -1.7675  1.6794
   35CHL1  H15B 2536   1.044   5.992   7.567 -0.9751  0.5393 -1.4026
   35CHL1   C16 2537   1.000   5.835   7.725 -0.1005 -0.4233  0.2486
   35CHL1  H16A 2538   1.084   5.768   7.752 -0.1914 -1.3021 -1.5026
   35CHL1  H16B 2539   0.995   5.920   7.797  1.0698  1.2967 -1.5966
   35CHL1   C17 2540   0.867   5.769   7.727  0.7207  0.3934 -0.4422
   35CHL1   H17 2541   0.797   5.855   7.728 -0.3894 -0.4829 -0.6081
   35CHL1   C13 2542   0.847   5.719   7.585  0.0511  0.0692 -1.0022
   35CHL1   C18 2543   0.940   5.596   7.579  0.1936  0.1943  0.1245
   35CHL1  H18A 2544   1.019   5.592   7.657 -1.9326  0.9571  2.4469
   35CHL1  H18B 2545   0.876   5.507   7.595 -1.1917  0.2230 -4.0571
   35CHL1  H18C 2546   0.986   5.578   7.479  1.2404 -1.8626  0.9229
   35CHL1   C12 2547   0.714   5.684   7.527  0.3499 -0.2010 -0.0967
   35CHL1  H12A 2548   0.683   5.588   7.573 -0.2948  0.6051  1.2012
   35CHL1  H12B 2549   0.635   5.758   7.552 -0.5972  0.5039 -4.3005
   35CHL1   C11 2550   0.719   5.654   7.381 -0.4689 -0.2925 -0.6865
   35CHL1  H11A 2551   0.787   5.566   7.372 -2.0925 -1.9140  1.6609
   35CHL1  H11B 2552   0.617   5.627   7.347  0.5277 -2.9194 -1.8945
   35CHL1    C9 2553   0.788   5.773   7.294  0.2869  0.0912 -0.6301
   35CHL1    H9 2554   0.716   5.855   7.316  1.3585  0.6424  1.0252
   35CHL1   C10 2555   0.786   5.747   7.143  0.3466 -0.5605  0.9181
   35CHL1   C19 2556   0.858   5.614   7.119 -0.0141  0.7782  1.0781
   35CHL1  H19A 2557   0.799   5.528   7.156 -2.0519  2.5407  2.2089
   35CHL1  H19B 2558   0.871   5.607   7.009 -0.1880 -2.1698  1.1645
   35CHL1  H19C 2559   0.958   5.604   7.166  0.1062 -0.5194  0.5944
   35CHL1    C1 2560   0.641   5.749   7.082 -0.2581 -0.4074 -0.6450
   35CHL1   H1A 2561   0.596   5.657   7.123  0.5477  0.0659  1.4750
   35CHL1   H1B 2562   0.587   5.826   7.141  1.3916 -0.1185  0.5679
   35CHL1    C2 2563   0.616   5.758   6.931 -0.1411 -0.6019 -0.2372
   35CHL1   H2A 2564   0.507   5.763   6.909  0.1374 -2.5092 -2.3686
   35CHL1   H2B 2565   0.661   5.666   6.889  1.8599 -0.2211  0.9945
   35CHL1   C20 2566   0.850   5.683   7.843 -0.0699  0.1923  0.2552
   35CHL1   H20 2567   0.887   5.579   7.827  1.4671  0.8039 -0.3835
   35CHL1   C21 2568   0.701   5.668   7.861  0.7983 -0.3500  0.3721
   35CHL1  H21A 2569   0.638   5.759   7.868  0.9939 -0.2444  0.7756
   35CHL1  H21B 2570   0.682   5.608   7.952  1.8152 -0.9870  0.1801
   35CHL1  H21C 2571   0.659   5.607   7.778 -0.7480  0.9182  0.1696
   35CHL1   C22 2572   0.908   5.742   7.974 -0.1655 -0.3849  0.7584
   35CHL1  H22A 2573   1.019   5.746   7.962 -0.3789 -1.4959 -2.8035
   35CHL1  H22B 2574   0.869   5.846   7.980  0.9719  0.0668  0.7563
   35CHL1   C23 2575   0.875   5.674   8.109 -0.8629 -0.7310  0.7330
   35CHL1  H23A 2576   0.767   5.673   8.136 -1.2197 -0.0283 -0.5789
   35CHL1  H23B 2577   0.908   5.568   8.113 -1.7296 -0.9900  1.1871
   35CHL1   C24 2578   0.944   5.743   8.229 -0.0215 -0.1259 -0.6386
   35CHL1  H24A 2579   1.053   5.718   8.226  0.0597  0.0781  0.3232
   35CHL1  H24B 2580   0.928   5.853   8.231 -2.1403 -0.3743 -1.5828
   35CHL1   C25 2581   0.901   5.679   8.362  0.3003  0.6296 -0.3436
   35CHL1   H25 2582   0.957   5.738   8.438 -0.2659  2.6532 -1.4064
   35CHL1   C26 2583   0.748   5.694   8.383 -0.5298 -0.1114 -0.1755
   35CHL1  H26A 2584   0.727   5.801   8.364 -0.0834 -0.1439 -0.9000
   35CHL1  H26B 2585   0.686   5.624   8.323  0.3347  1.4437 -3.0776
   35CHL1  H26C 2586   0.728   5.691   8.492  0.4486 -1.3635 -0.0030
   35CHL1   C27 2587   0.939   5.528   8.393  0.0054  0.1786  0.6021
   35CHL1  H27A 2588   0.918   5.499   8.498  0.0500 -0.7063  0.3777
   35CHL1  H27B 2589   1.045   5.496   8.380  0.5930  1.3369  2.2864
   35CHL1  H27C 2590   0.881   5.460   8.327  1.2968 -0.9698  0.6029
   36CHL1    C3 2591   1.426   4.253   6.686 -0.4295  0.5920 -0.6218
   36CHL1    H3 2592   1.474   4.353   6.692 -0.9106  0.8757 -1.3682
   36CHL1    O3 2593   1.391   4.225   6.551  0.4941 -0.0205 -0.4360
   36CHL1   H3' 2594   1.300   4.251   6.535  0.0192 -0.4982  1.2440
   36CHL1    C4 2595   1.519   4.138   6.737 -0.1224 -0.0146 -0.7867
   36CHL1   H4A 2596   1.453   4.049   6.732  0.0403 -0.2684  1.0469
   36CHL1   H4B 2597   1.598   4.126   6.659  1.6964 -0.0594  0.9833
   36CHL1    C5 2598   1.576   4.169   6.876 -0.4684 -0.6028  0.0921
   36CHL1    C6 2599   1.707   4.190   6.895  0.4839 -0.2560  0.0018
   36CHL1    H6 2600   1.763   4.165   6.804 -1.9370  0.7410 -1.8824
   36CHL1    C7 2601   1.761   4.231   7.025  1.2101  0.4333 -0.0486
   36CHL1   H7A 2602   1.856   4.178   7.048 -0.1088 -1.3607  1.6320
   36CHL1   H7B 2603   1.777   4.340   7.033 -1.0530  0.8624 -0.5225
   36CHL1    C8 2604   1.666   4.190   7.144 -0.6484 -0.6107  0.5450
   36CHL1    H8 2605   1.667   4.080   7.154  2.0256 -0.7610 -0.4649
   36CHL1   C14 2606   1.731   4.252   7.271  0.1021  0.1781 -0.5597
   36CHL1   H14 2607   1.730   4.361   7.251 -2.0211  0.6708  1.7527
   36CHL1   C15 2608   1.878   4.215   7.315 -0.1223 -0.2430  0.4412
   36CHL1  H15A 2609   1.901   4.106   7.314 -0.8337 -0.4094 -1.4325
   36CHL1  H15B 2610   1.949   4.273   7.251 -2.0405  1.4497 -0.2625
   36CHL1   C16 2611   1.887   4.249   7.466 -0.7591 -0.1477 -0.4517
   36CHL1  H16A 2612   1.925   4.158   7.516  0.1790  1.1270  1.2488
   36CHL1  H16B 2613   1.967   4.324   7.484 -0.0974 -0.7334 -0.9140
   36CHL1   C17 2614   1.745   4.293   7.515 -0.5965  0.8125 -0.0939
   36CHL1   H17 2615   1.744   4.404   7.515  2.0528  1.0094  3.3180
   36CHL1   C13 2616   1.651   4.243   7.399  0.4131  0.1627 -0.2225
   36CHL1   C18 2617   1.625   4.096   7.428  0.2685  0.3357  0.1232
   36CHL1  H18A 2618   1.567   4.055   7.342 -1.3767  0.1603  1.2572
   36CHL1  H18B 2619   1.721   4.045   7.449 -0.5959 -0.7513  1.5947
   36CHL1  H18C 2620   1.567   4.079   7.521  1.3506 -0.9798  0.5796
   36CHL1   C12 2621   1.513   4.313   7.374  0.4772  0.3682 -0.0517
   36CHL1  H12A 2622   1.440   4.301   7.457 -1.3182  3.2143 -1.0506
   36CHL1  H12B 2623   1.530   4.421   7.353  1.7858  0.5415  1.6759
   36CHL1   C11 2624   1.438   4.252   7.248  0.5001 -0.1265  0.1155
   36CHL1  H11A 2625   1.387   4.158   7.278 -1.4794  0.8330 -0.0260
   36CHL1  H11B 2626   1.355   4.324   7.233  2.0076  1.3201 -1.7693
   36CHL1    C9 2627   1.525   4.243   7.116  1.2053 -0.9363  0.1530
   36CHL1    H9 2628   1.546   4.350   7.096  1.8938 -0.6298  2.2604
   36CHL1   C10 2629   1.463   4.186   6.982  0.3815 -0.1194 -0.2221
   36CHL1   C19 2630   1.396   4.052   7.029 -0.4867 -0.1633  0.0711
   36CHL1  H19A 2631   1.363   3.998   6.938  1.7316  1.8579 -2.0769
   36CHL1  H19B 2632   1.464   4.001   7.100 -1.9487 -1.8540  0.3149
   36CHL1  H19C 2633   1.303   4.079   7.084 -0.0344  1.1526  0.2444
   36CHL1    C1 2634   1.358   4.281   6.926  0.9501 -0.7630 -0.2034
   36CHL1   H1A 2635   1.276   4.268   6.999 -0.0968 -2.1955 -1.5621
   36CHL1   H1B 2636   1.404   4.382   6.931 -1.0539  0.1148  2.3276
   36CHL1    C2 2637   1.307   4.241   6.784  0.9298 -0.1690 -1.0973
   36CHL1   H2A 2638   1.237   4.324   6.763 -0.3126 -0.2987  2.0348
   36CHL1   H2B 2639   1.258   4.142   6.774  0.4016  0.1463 -1.7118
   36CHL1   C20 2640   1.718   4.261   7.665 -1.0077 -0.0501 -0.8887
   36CHL1   H20 2641   1.723   4.150   7.675 -1.8575 -0.3783 -3.2759
   36CHL1   C21 2642   1.570   4.301   7.690 -0.5686  0.0617  0.9749
   36CHL1  H21A 2643   1.501   4.230   7.641  0.6706  0.0674 -0.9011
   36CHL1  H21B 2644   1.544   4.404   7.657 -1.4554  0.1280  1.8345
   36CHL1  H21C 2645   1.555   4.290   7.800 -3.2134  0.4704  0.7118
   36CHL1   C22 2646   1.821   4.338   7.751 -0.1116  0.2893  0.3744
   36CHL1  H22A 2647   1.920   4.334   7.702 -0.3883  1.0854 -0.2706
   36CHL1  H22B 2648   1.793   4.445   7.748 -0.0755  0.2973  0.3128
   36CHL1   C23 2649   1.841   4.277   7.887 -0.0335 -0.4429 -0.0831
   36CHL1  H23A 2650   1.746   4.269   7.944 -0.4198 -0.6901 -0.7435
   36CHL1  H23B 2651   1.877   4.172   7.873 -0.6089 -0.9203  1.7636
   36CHL1   C24 2652   1.933   4.360   7.979 -0.3666 -0.5041  0.2771
   36CHL1  H24A 2653   2.030   4.359   7.925 -0.9332 -0.9443 -0.7655
   36CHL1  H24B 2654   1.894   4.464   7.986 -1.3875 -0.8060 -0.6008
   36CHL1   C25 2655   1.954   4.309   8.125 -0.0943  0.6199  0.9339
   36CHL1   H25 2656   2.000   4.208   8.125  1.0587  1.0861 -0.9762
   36CHL1   C26 2657   2.065   4.397   8.185  0.5739 -0.4179  0.5985
   36CHL1  H26A 2658   2.070   4.373   8.294  0.3221 -1.0720  0.4658
   36CHL1  H26B 2659   2.160   4.397   8.127  1.1372 -0.8394  1.4949
   36CHL1  H26C 2660   2.023   4.498   8.166  0.5444 -0.5065  0.1844
   36CHL1   C27 2661   1.834   4.333   8.209 -0.8439 -0.0625 -0.6378
   36CHL1  H27A 2662   1.817   4.443   8.209 -0.2013  0.0565  0.3990
   36CHL1  H27B 2663   1.748   4.271   8.176 -1.9190  0.8799  0.3022
   36CHL1  H27C 2664   1.858   4.312   8.316  0.4924  0.2280 -0.8630
   37CHL1    C3 2665   0.255   0.349   6.323  0.1967  0.0416 -0.1051
   37CHL1    H3 2666   0.224   0.246   6.350  0.6826 -0.3922 -1.1889
   37CHL1    O3 2667   0.212   0.376   6.193 -0.4464  0.1763  0.0518
   37CHL1   H3' 2668   0.121   0.345   6.191 -0.4429  0.0700 -2.8323
   37CHL1    C4 2669   0.186   0.447   6.420 -0.2236  0.5384  0.4362
   37CHL1   H4A 2670   0.221   0.549   6.391  0.9040 -0.0764 -0.4025
   37CHL1   H4B 2671   0.075   0.446   6.414 -0.1637  1.1962 -1.6816
   37CHL1    C5 2672   0.220   0.418   6.559  0.5172  0.7051  0.1669
   37CHL1    C6 2673   0.127   0.398   6.655 -0.3391  0.3052  0.5294
   37CHL1    H6 2674   0.019   0.418   6.645 -0.2265  0.9446  0.5465
   37CHL1    C7 2675   0.171   0.378   6.795 -0.5991 -0.2677  0.8251
   37CHL1   H7A 2676   0.107   0.440   6.861 -2.4505 -2.4384  1.1942
   37CHL1   H7B 2677   0.148   0.271   6.813 -1.4614  0.0270  1.5213
   37CHL1    C8 2678   0.317   0.403   6.831  0.8482  0.6679 -0.6254
   37CHL1    H8 2679   0.333   0.513   6.829  2.3889  0.4521 -1.5372
   37CHL1   C14 2680   0.351   0.342   6.973  0.0867 -0.1636 -0.3259
   37CHL1   H14 2681   0.355   0.232   6.964 -3.2168 -0.3724 -0.4520
   37CHL1   C15 2682   0.253   0.366   7.083 -0.0990  0.3224 -0.8647
   37CHL1  H15A 2683   0.218   0.471   7.094  0.0971  0.2083  1.4371
   37CHL1  H15B 2684   0.161   0.306   7.068 -0.3463  0.6130 -0.5411
   37CHL1   C16 2685   0.334   0.338   7.204 -0.2354  0.0460  0.4401
   37CHL1  H16A 2686   0.313   0.419   7.278 -2.0603  1.6597 -1.7120
   37CHL1  H16B 2687   0.309   0.243   7.256 -0.6159 -0.0968 -0.0058
   37CHL1   C17 2688   0.483   0.324   7.159 -0.2120 -0.1795 -0.6069
   37CHL1   H17 2689   0.504   0.216   7.147  1.3841  0.2008 -1.5244
   37CHL1   C13 2690   0.490   0.376   7.019  0.3680 -0.4797 -0.3344
   37CHL1   C18 2691   0.524   0.526   7.018  0.5442  0.1120  0.1207
   37CHL1  H18A 2692   0.629   0.546   7.045  0.6399  1.0969 -0.9063
   37CHL1  H18B 2693   0.503   0.580   6.923 -2.4825 -1.7128 -0.3916
   37CHL1  H18C 2694   0.453   0.583   7.082 -0.5620  2.5421 -2.9962
   37CHL1   C12 2695   0.583   0.297   6.916 -0.8823  0.2215 -0.7096
   37CHL1  H12A 2696   0.685   0.330   6.943 -0.7760 -2.1903  2.4906
   37CHL1  H12B 2697   0.590   0.186   6.929  2.1110  0.4566  0.5565
   37CHL1   C11 2698   0.559   0.357   6.774 -0.2364 -0.1027 -0.3149
   37CHL1  H11A 2699   0.585   0.465   6.779 -0.4580 -0.0942  1.2738
   37CHL1  H11B 2700   0.612   0.309   6.689  0.1031 -0.9425  0.3510
   37CHL1    C9 2701   0.409   0.354   6.725 -0.3061 -0.2056 -0.3895
   37CHL1    H9 2702   0.393   0.246   6.705  0.6437 -0.6399  1.0782
   37CHL1   C10 2703   0.375   0.417   6.586 -0.0652  0.6845  0.2228
   37CHL1   C19 2704   0.431   0.562   6.583  0.6142  0.4365  0.1200
   37CHL1  H19A 2705   0.395   0.632   6.661 -0.2466 -0.1016  0.2252
   37CHL1  H19B 2706   0.542   0.556   6.593  0.3769  0.1486  4.3821
   37CHL1  H19C 2707   0.418   0.605   6.482 -1.0611  0.4188  0.3056
   37CHL1    C1 2708   0.450   0.335   6.471  0.4727  0.0432 -0.4929
   37CHL1   H1A 2709   0.557   0.365   6.478  0.7861 -1.2350  0.6659
   37CHL1   H1B 2710   0.449   0.226   6.492 -1.6395  0.4009  1.7053
   37CHL1    C2 2711   0.403   0.368   6.333 -0.4630 -0.2612 -0.3858
   37CHL1   H2A 2712   0.439   0.292   6.261  2.2272 -0.7584  1.3294
   37CHL1   H2B 2713   0.433   0.471   6.303 -0.6805  0.5637  2.0193
   37CHL1   C20 2714   0.588   0.380   7.263  0.5848 -0.0145  0.4605
   37CHL1   H20 2715   0.580   0.490   7.268  3.6211  0.2512  1.8346
   37CHL1   C21 2716   0.729   0.350   7.215  1.2667 -0.0170  0.0230
   37CHL1  H21A 2717   0.750   0.388   7.113 -0.2631 -0.3440 -0.4389
   37CHL1  H21B 2718   0.755   0.242   7.216  1.1732 -0.0415 -0.2130
   37CHL1  H21C 2719   0.798   0.416   7.271  1.7261  0.7176 -1.3698
   37CHL1   C22 2720   0.568   0.320   7.404  0.4904  0.0473 -0.0664
   37CHL1  H22A 2721   0.457   0.321   7.414  0.3634  1.4312 -1.3288
   37CHL1  H22B 2722   0.595   0.212   7.409  1.2414  0.1368 -1.4927
   37CHL1   C23 2723   0.639   0.391   7.517  0.2121 -0.5910  0.2123
   37CHL1  H23A 2724   0.747   0.370   7.528  1.1312  3.5352  0.7955
   37CHL1  H23B 2725   0.624   0.497   7.486  0.9797 -0.1444  1.3327
   37CHL1   C24 2726   0.567   0.375   7.653 -1.1947  0.2870  0.3019
   37CHL1  H24A 2727   0.462   0.410   7.645 -0.5065  2.3250 -0.8276
   37CHL1  H24B 2728   0.573   0.268   7.681 -0.5567  0.4421  0.7851
   37CHL1   C25 2729   0.636   0.459   7.762 -0.6480  0.0878  0.1367
   37CHL1   H25 2730   0.746   0.447   7.771 -0.6044  0.7390  0.5816
   37CHL1   C26 2731   0.612   0.612   7.735  0.2532 -0.0843 -0.8661
   37CHL1  H26A 2732   0.637   0.627   7.628  1.7734 -5.3274 -1.5540
   37CHL1  H26B 2733   0.507   0.639   7.755  0.1507 -0.8663 -0.2873
   37CHL1  H26C 2734   0.681   0.672   7.798 -2.8243  0.4207  2.3071
   37CHL1   C27 2735   0.574   0.418   7.903 -0.1668  0.2457 -0.1290
   37CHL1  H27A 2736   0.637   0.334   7.941 -2.2956 -0.3382  2.4085
   37CHL1  H27B 2737   0.566   0.508   7.967  0.6698  0.7810 -0.7594
   37CHL1  H27C 2738   0.474   0.373   7.882  0.8375 -1.5685 -1.3276
   38CHL1    C3 2739   2.757   5.864   6.229  0.0697  0.2073  0.0278
   38CHL1    H3 2740   2.714   5.964   6.252 -1.2096 -0.2022 -0.5223
   38CHL1    O3 2741   2.738   5.824   6.094 -0.6005  0.0660 -0.1425
   38CHL1   H3' 2742   2.785   5.740   6.095  5.4594  2.9829  0.2909
   38CHL1    C4 2743   2.914   5.870   6.258 -0.2200 -0.0212  0.1742
   38CHL1   H4A 2744   2.967   5.779   6.223  0.8840  0.8851 -0.5918
   38CHL1   H4B 2745   2.954   5.961   6.208  2.6973  0.3369  2.8383
   38CHL1    C5 2746   2.938   5.904   6.405  0.0329  0.4291 -0.2656
   38CHL1    C6 2747   3.007   6.015   6.449  0.5858  0.6034 -0.1921
   38CHL1    H6 2748   3.042   6.089   6.376 -1.8529  0.7304 -1.3516
   38CHL1    C7 2749   3.047   6.040   6.590  0.1606 -0.6403 -1.2405
   38CHL1   H7A 2750   3.155   6.063   6.605 -0.5978  1.7739  1.6882
   38CHL1   H7B 2751   3.002   6.132   6.633  0.0615  0.3782 -3.3930
   38CHL1    C8 2752   3.021   5.917   6.680 -0.0666  0.0557 -0.2101
   38CHL1    H8 2753   3.107   5.847   6.670 -2.3819 -2.8579 -1.2436
   38CHL1   C14 2754   3.022   5.959   6.829 -0.1542 -0.2799  0.2885
   38CHL1   H14 2755   2.936   6.028   6.840  1.0697  1.2675  0.4657
   38CHL1   C15 2756   3.143   6.036   6.888  0.4245 -0.1125 -0.0773
   38CHL1  H15A 2757   3.238   5.987   6.857  0.5327  0.6268 -0.9432
   38CHL1  H15B 2758   3.135   6.137   6.844 -4.0996 -0.1016  0.3225
   38CHL1   C16 2759   3.128   6.022   7.040 -0.2112 -0.3525  0.1846
   38CHL1  H16A 2760   3.218   5.993   7.098  1.0986  0.9843 -1.1129
   38CHL1  H16B 2761   3.093   6.122   7.076 -2.0635 -0.6952 -0.5661
   38CHL1   C17 2762   3.007   5.922   7.064 -0.5097 -0.6385  0.4704
   38CHL1   H17 2763   2.913   5.980   7.068  0.8488  1.8393 -1.0656
   38CHL1   C13 2764   2.997   5.847   6.929 -0.3506 -0.3092  0.8156
   38CHL1   C18 2765   3.109   5.742   6.924 -0.1588  0.4242 -0.0747
   38CHL1  H18A 2766   3.139   5.720   6.819  0.7265 -0.4217  0.3449
   38CHL1  H18B 2767   3.199   5.775   6.981 -0.8163  0.7333  0.8028
   38CHL1  H18C 2768   3.079   5.642   6.963 -0.5848  0.4068 -0.4378
   38CHL1   C12 2769   2.858   5.801   6.897  0.4916  0.7463 -0.3100
   38CHL1  H12A 2770   2.838   5.714   6.965  4.3033 -0.0923 -0.0479
   38CHL1  H12B 2771   2.777   5.875   6.912  0.6538  0.8212  0.2324
   38CHL1   C11 2772   2.850   5.744   6.754  0.0380 -0.3013  0.2836
   38CHL1  H11A 2773   2.906   5.649   6.738 -0.0631 -0.0636 -1.7830
   38CHL1  H11B 2774   2.743   5.716   6.746 -0.1336 -0.2780  2.0678
   38CHL1    C9 2775   2.885   5.854   6.648  1.0942 -0.1718  0.0788
   38CHL1    H9 2776   2.811   5.937   6.653 -0.2566 -1.3281  0.1916
   38CHL1   C10 2777   2.872   5.807   6.502  0.0960 -0.2845  0.3708
   38CHL1   C19 2778   2.956   5.680   6.480  0.6115 -0.0810 -0.1950
   38CHL1  H19A 2779   3.064   5.699   6.500  0.5620 -0.7020  0.7601
   38CHL1  H19B 2780   2.923   5.593   6.542  0.9960  0.5179  0.8781
   38CHL1  H19C 2781   2.955   5.643   6.375 -0.8612 -0.1136 -0.1956
   38CHL1    C1 2782   2.722   5.789   6.468 -0.1163 -0.3116  0.0562
   38CHL1   H1A 2783   2.680   5.708   6.532  0.4724 -1.4231 -0.9207
   38CHL1   H1B 2784   2.661   5.875   6.502 -0.5145 -0.9765  1.0967
   38CHL1    C2 2785   2.688   5.769   6.318 -0.4311  0.3021 -0.1777
   38CHL1   H2A 2786   2.579   5.787   6.308 -0.8172 -0.2643  2.3363
   38CHL1   H2B 2787   2.723   5.665   6.301 -1.3954 -0.0818  0.1219
   38CHL1   C20 2788   3.023   5.839   7.188  0.2868 -0.0163 -0.4072
   38CHL1   H20 2789   3.117   5.780   7.188  1.1049  1.2432 -0.7681
   38CHL1   C21 2790   2.904   5.743   7.204 -0.3443  0.3587  0.4677
   38CHL1  H21A 2791   2.896   5.700   7.306 -0.8627 -0.1980  0.1981
   38CHL1  H21B 2792   2.925   5.653   7.142 -0.1493  0.6460  0.1102
   38CHL1  H21C 2793   2.812   5.792   7.166  0.4559  2.1128  0.7093
   38CHL1   C22 2794   3.043   5.933   7.311  0.0248  0.2210 -0.0492
   38CHL1  H22A 2795   3.131   6.000   7.300  0.6183  0.3931  4.1326
   38CHL1  H22B 2796   2.960   6.006   7.299  0.0962  0.2507 -0.3734
   38CHL1   C23 2797   3.037   5.877   7.459 -0.9709 -0.2143 -0.2953
   38CHL1  H23A 2798   2.937   5.831   7.467 -2.1363  2.0923 -0.5970
   38CHL1  H23B 2799   3.118   5.801   7.457  0.1170  0.8624 -2.9970
   38CHL1   C24 2800   3.078   5.975   7.564  0.4464  0.1413 -0.3108
   38CHL1  H24A 2801   3.174   6.023   7.536  0.0046  0.5535 -1.1686
   38CHL1  H24B 2802   2.993   6.046   7.574  0.5743 -0.0646  3.7659
   38CHL1   C25 2803   3.078   5.916   7.710 -0.1488  0.2620  0.2407
   38CHL1   H25 2804   2.978   5.869   7.722 -0.2649  0.0666 -1.2505
   38CHL1   C26 2805   3.184   5.802   7.732  0.1562 -0.3506  0.4218
   38CHL1  H26A 2806   3.157   5.717   7.666 -0.6295 -0.2150  0.5663
   38CHL1  H26B 2807   3.285   5.836   7.700  0.1264 -1.1934 -0.6323
   38CHL1  H26C 2808   3.189   5.765   7.837  1.9381 -0.9515  0.1750
   38CHL1   C27 2809   3.125   6.029   7.803  0.5070  0.0324 -0.4071
   38CHL1  H27A 2810   3.219   6.072   7.763  0.4708 -0.9314 -1.5797
   38CHL1  H27B 2811   3.056   6.116   7.801  0.9494  0.5732  2.8389
   38CHL1  H27C 2812   3.127   6.000   7.910 -2.5653  0.3329 -0.1661
   39CHL1    C3 2813   3.549   6.493   6.073 -0.1209  0.0683  0.3775
   39CHL1    H3 2814   3.573   6.598   6.100 -0.0676  0.9273 -2.6397
   39CHL1    O3 2815   3.562   6.482   5.934 -0.2840  0.4389 -0.1375
   39CHL1   H3' 2816   3.514   6.404   5.904 -1.1384  0.3844  1.3023
   39CHL1    C4 2817   3.627   6.384   6.152 -0.1954  0.1300  0.2093
   39CHL1   H4A 2818   3.603   6.282   6.116  2.0705  0.2722 -2.0052
   39CHL1   H4B 2819   3.730   6.396   6.111 -0.5810 -1.2870 -1.2854
   39CHL1    C5 2820   3.626   6.394   6.305  0.2977 -0.3292 -0.1026
   39CHL1    C6 2821   3.743   6.407   6.373  0.4736 -0.5312 -0.4145
   39CHL1    H6 2822   3.838   6.407   6.318  0.1551  2.3834 -1.1563
   39CHL1    C7 2823   3.741   6.422   6.523  0.5467  0.3161  0.2503
   39CHL1   H7A 2824   3.819   6.355   6.566 -0.3247 -0.4836  0.6322
   39CHL1   H7B 2825   3.765   6.526   6.552 -0.9656  1.0473 -0.9887
   39CHL1    C8 2826   3.609   6.394   6.597 -0.2581  0.0095  0.2367
   39CHL1    H8 2827   3.602   6.284   6.580  1.5119 -0.0581 -0.3416
   39CHL1   C14 2828   3.607   6.454   6.737  0.3230  0.4321  0.1017
   39CHL1   H14 2829   3.615   6.564   6.720  2.3155  0.0638 -1.8188
   39CHL1   C15 2830   3.730   6.422   6.824  0.1662 -0.6936 -0.2915
   39CHL1  H15A 2831   3.754   6.313   6.828  1.0684 -0.5189 -0.7790
   39CHL1  H15B 2832   3.817   6.486   6.798  0.1965 -1.2187 -1.5549
   39CHL1   C16 2833   3.682   6.457   6.967  0.1127  0.4282 -0.5253
   39CHL1  H16A 2834   3.700   6.369   7.033 -0.3397  1.0619  0.4518
   39CHL1  H16B 2835   3.733   6.542   7.017 -2.3493  1.0163  1.1380
   39CHL1   C17 2836   3.527   6.469   6.966  0.2970  0.1593 -0.0214
   39CHL1   H17 2837   3.506   6.578   6.962 -1.2097  0.0018  2.0073
   39CHL1   C13 2838   3.484   6.413   6.822 -0.3773  0.4954 -0.0454
   39CHL1   C18 2839   3.469   6.259   6.835  0.0074  0.5549  0.5743
   39CHL1  H18A 2840   3.563   6.217   6.877 -0.4650 -1.7229 -0.4620
   39CHL1  H18B 2841   3.391   6.222   6.905  0.6506 -2.1510  0.0088
   39CHL1  H18C 2842   3.457   6.205   6.738 -2.2281 -0.2279  1.2373
   39CHL1   C12 2843   3.367   6.483   6.748 -0.0424  0.4011  0.0558
   39CHL1  H12A 2844   3.276   6.450   6.803  1.3146 -0.4570  1.8868
   39CHL1  H12B 2845   3.378   6.593   6.747 -0.2258  0.4199 -0.7009
   39CHL1   C11 2846   3.357   6.431   6.599  0.2245  0.2900  0.7407
   39CHL1  H11A 2847   3.340   6.322   6.603 -0.2950  0.2025 -2.1603
   39CHL1  H11B 2848   3.267   6.475   6.550  0.2970  0.3325  0.6456
   39CHL1    C9 2849   3.491   6.453   6.516 -0.1724 -0.2363 -0.6094
   39CHL1    H9 2850   3.509   6.562   6.500 -1.7928 -0.0953 -1.6425
   39CHL1   C10 2851   3.486   6.402   6.367  0.2103 -0.2566  0.1886
   39CHL1   C19 2852   3.435   6.255   6.363  0.0905  0.2319 -0.0707
   39CHL1  H19A 2853   3.335   6.235   6.407 -1.1413  0.1310 -2.7128
   39CHL1  H19B 2854   3.433   6.222   6.257 -0.1379  1.0977 -0.3445
   39CHL1  H19C 2855   3.505   6.184   6.413  0.0632 -1.1668 -1.8868
   39CHL1    C1 2856   3.395   6.492   6.280  0.3502 -0.8602 -0.5656
   39CHL1   H1A 2857   3.292   6.468   6.314  0.6525  1.3789  2.3822
   39CHL1   H1B 2858   3.410   6.598   6.309 -1.5589 -0.9549  0.9923
   39CHL1    C2 2859   3.409   6.483   6.124 -0.3732  0.2968 -0.4288
   39CHL1   H2A 2860   3.348   6.565   6.082  0.1417 -0.0577 -1.9264
   39CHL1   H2B 2861   3.370   6.383   6.093 -2.5435  1.3087 -1.1912
   39CHL1   C20 2862   3.454   6.426   7.100  0.4571  0.6402 -0.4129
   39CHL1   H20 2863   3.465   6.316   7.113 -2.6345  0.3419  0.5857
   39CHL1   C21 2864   3.298   6.456   7.086  0.6877 -0.4238  0.3812
   39CHL1  H21A 2865   3.254   6.378   7.020  0.2467 -1.5821  1.9720
   39CHL1  H21B 2866   3.274   6.560   7.055 -0.1850 -0.3446  1.2558
   39CHL1  H21C 2867   3.247   6.439   7.184 -0.2885  1.5756  0.2743
   39CHL1   C22 2868   3.516   6.481   7.224  0.1004 -0.3191 -0.0177
   39CHL1  H22A 2869   3.622   6.447   7.232 -0.2685 -1.5050 -0.0435
   39CHL1  H22B 2870   3.509   6.592   7.231  1.1793 -0.3187  1.8817
   39CHL1   C23 2871   3.456   6.428   7.352 -0.7316 -0.5738 -0.0872
   39CHL1  H23A 2872   3.353   6.457   7.382 -1.1206 -1.7263 -0.2548
   39CHL1  H23B 2873   3.469   6.318   7.343  0.5859 -0.2612 -3.0826
   39CHL1   C24 2874   3.540   6.480   7.467  0.5108  0.7090 -0.1385
   39CHL1  H24A 2875   3.644   6.443   7.455  0.4214  0.2212  0.4952
   39CHL1  H24B 2876   3.562   6.588   7.457  1.3363  0.9400  3.0192
   39CHL1   C25 2877   3.499   6.447   7.607  0.3729 -0.1753  0.0769
   39CHL1   H25 2878   3.411   6.511   7.629 -0.1571 -0.8903  0.0553
   39CHL1   C26 2879   3.457   6.301   7.621  0.7312  0.6407 -0.3601
   39CHL1  H26A 2880   3.428   6.297   7.728  0.3824  1.5254 -0.4103
   39CHL1  H26B 2881   3.373   6.283   7.551  1.8233  0.7542 -1.7458
   39CHL1  H26C 2882   3.548   6.239   7.611  0.4053 -0.1434  1.1569
   39CHL1   C27 2883   3.610   6.484   7.707  0.2533 -0.0897 -0.1156
   39CHL1  H27A 2884   3.568   6.491   7.809 -0.2864 -3.6068  0.0340
   39CHL1  H27B 2885   3.695   6.412   7.701 -0.4290 -0.8576 -0.8737
   39CHL1  H27C 2886   3.649   6.587   7.690 -0.6172  0.5363  1.4855
   40CHL1    C3 2887   6.369   6.022   6.364 -0.2932 -0.0314  0.5716
   40CHL1    H3 2888   6.463   5.965   6.357  0.3807  1.0216  0.8235
   40CHL1    O3 2889   6.315   6.018   6.235 -1.1144  0.4400 -0.7822
   40CHL1   H3' 2890   6.234   6.069   6.231 -1.4413 -0.0859 -0.9536
   40CHL1    C4 2891   6.286   5.955   6.470  0.3928 -0.0720 -0.1415
   40CHL1   H4A 2892   6.181   5.990   6.476 -0.0422 -1.4314  0.6768
   40CHL1   H4B 2893   6.270   5.847   6.447 -0.6836 -0.9472  3.8353
   40CHL1    C5 2894   6.350   5.966   6.607  0.2184 -0.7531 -0.1187
   40CHL1    C6 2895   6.382   5.857   6.670  0.8698 -0.3909  0.4165
   40CHL1    H6 2896   6.352   5.761   6.626 -1.7943  0.3477  0.4603
   40CHL1    C7 2897   6.433   5.859   6.811  0.7385  0.0137  0.1860
   40CHL1   H7A 2898   6.388   5.781   6.875 -1.5987  0.7258 -0.4869
   40CHL1   H7B 2899   6.544   5.853   6.804  0.6261 -1.1315 -0.9878
   40CHL1    C8 2900   6.405   6.000   6.874  0.9478 -0.2167  0.2651
   40CHL1    H8 2901   6.295   6.014   6.882  0.6693 -0.9911 -1.7807
   40CHL1   C14 2902   6.473   6.008   7.014  0.1073  0.1027  0.5066
   40CHL1   H14 2903   6.579   5.987   6.987 -0.3037  1.2708 -2.3433
   40CHL1   C15 2904   6.444   5.903   7.118  0.7806 -0.2461  0.0029
   40CHL1  H15A 2905   6.333   5.902   7.125  0.4590 -1.4099 -3.4006
   40CHL1  H15B 2906   6.481   5.801   7.092  0.4476 -0.0392 -1.3460
   40CHL1   C16 2907   6.504   5.960   7.249  0.2768 -0.2863 -0.2228
   40CHL1  H16A 2908   6.419   5.959   7.320 -0.5226 -0.3013 -1.1561
   40CHL1  H16B 2909   6.590   5.909   7.297  1.4038 -1.0414 -2.8410
   40CHL1   C17 2910   6.540   6.114   7.217 -0.5146  0.7537 -0.2065
   40CHL1   H17 2911   6.651   6.121   7.222 -0.4022 -1.1729  0.7185
   40CHL1   C13 2912   6.474   6.150   7.084  0.3923  0.6466  0.1856
   40CHL1   C18 2913   6.324   6.188   7.106  0.0590  0.3878 -1.1217
   40CHL1  H18A 2914   6.282   6.104   7.166  2.1105 -0.1218 -0.3375
   40CHL1  H18B 2915   6.308   6.288   7.152  1.2252 -0.0441  0.3006
   40CHL1  H18C 2916   6.263   6.195   7.013 -1.0053  0.7166 -0.4232
   40CHL1   C12 2917   6.553   6.246   6.982 -0.1987 -0.0641 -0.6839
   40CHL1  H12A 2918   6.569   6.345   7.030  4.0069 -0.7642 -0.1933
   40CHL1  H12B 2919   6.651   6.204   6.948  0.3390  0.4821  0.1502
   40CHL1   C11 2920   6.471   6.257   6.849 -0.2667  1.5504  0.1871
   40CHL1  H11A 2921   6.371   6.303   6.866 -0.9786  0.5891 -1.2533
   40CHL1  H11B 2922   6.527   6.320   6.778  1.6558  0.4742  0.6675
   40CHL1    C9 2923   6.456   6.113   6.781  0.7286 -0.7477 -0.0261
   40CHL1    H9 2924   6.560   6.084   6.754  0.3606 -3.4898  1.2251
   40CHL1   C10 2925   6.379   6.112   6.655  0.6463 -0.3589  0.5805
   40CHL1   C19 2926   6.236   6.182   6.677 -0.1497 -0.2677 -0.4118
   40CHL1  H19A 2927   6.171   6.143   6.595  3.6731 -0.1673 -3.7894
   40CHL1  H19B 2928   6.197   6.162   6.780  1.7225  2.0264  0.8316
   40CHL1  H19C 2929   6.237   6.293   6.677 -0.7497 -0.2583 -0.5283
   40CHL1    C1 2930   6.459   6.186   6.544  0.0433  0.0254 -0.9389
   40CHL1   H1A 2931   6.467   6.295   6.565 -2.4655  0.0334  0.4744
   40CHL1   H1B 2932   6.562   6.145   6.542  0.0870 -0.2167  2.0557
   40CHL1    C2 2933   6.396   6.169   6.401 -0.3671 -0.2072  0.1672
   40CHL1   H2A 2934   6.468   6.215   6.331 -0.4317  0.1318  0.3162
   40CHL1   H2B 2935   6.307   6.236   6.411  1.4507  2.2559  0.7937
   40CHL1   C20 2936   6.504   6.200   7.338  0.0642  0.3710 -0.5823
   40CHL1   H20 2937   6.393   6.200   7.342 -0.0096 -2.0059 -1.2763
   40CHL1   C21 2938   6.543   6.348   7.328 -0.0718  0.4504 -0.7332
   40CHL1  H21A 2939   6.649   6.380   7.341  0.3425 -0.3487 -2.0109
   40CHL1  H21B 2940   6.484   6.410   7.399  0.0009 -1.7819  1.4249
   40CHL1  H21C 2941   6.526   6.388   7.226  1.5142 -0.1817 -1.2857
   40CHL1   C22 2942   6.569   6.148   7.468 -0.0728 -0.3951  0.3996
   40CHL1  H22A 2943   6.530   6.045   7.481  1.3306 -0.8806  0.9381
   40CHL1  H22B 2944   6.678   6.129   7.462 -0.4461 -3.5921  2.1144
   40CHL1   C23 2945   6.538   6.233   7.593 -0.4825 -0.2190 -0.1260
   40CHL1  H23A 2946   6.581   6.335   7.588  0.5990 -0.6924 -0.9091
   40CHL1  H23B 2947   6.428   6.243   7.601 -0.3743 -0.0516  1.5444
   40CHL1   C24 2948   6.599   6.159   7.720  0.3671 -0.3931  0.3489
   40CHL1  H24A 2949   6.559   6.055   7.721 -0.8513  0.0569  1.4325
   40CHL1  H24B 2950   6.709   6.156   7.713  0.3406 -1.7922  0.2898
   40CHL1   C25 2951   6.552   6.219   7.854 -0.5401  0.0751  0.0835
   40CHL1   H25 2952   6.450   6.264   7.843  0.3797  1.8027 -2.2129
   40CHL1   C26 2953   6.552   6.107   7.967  0.3007 -0.4510 -0.1554
   40CHL1  H26A 2954   6.471   6.031   7.958  0.1890 -0.2291 -1.2454
   40CHL1  H26B 2955   6.654   6.066   7.983 -1.0068 -3.1290  2.2327
   40CHL1  H26C 2956   6.529   6.171   8.055 -0.4353 -0.6905 -0.1615
   40CHL1   C27 2957   6.640   6.344   7.896 -0.2207 -0.6326  0.5469
   40CHL1  H27A 2958   6.731   6.332   7.834  0.6383 -2.8394  2.1240
   40CHL1  H27B 2959   6.585   6.434   7.860 -0.7214 -0.2509  2.1734
   40CHL1  H27C 2960   6.659   6.346   8.006  2.8725  0.5997  0.1122
   41CHL1    C3 2961   6.714   0.050   6.459 -1.1428 -0.0516  0.6521
   41CHL1    H3 2962   6.750  -0.055   6.454 -0.3452 -0.0429  3.8790
   41CHL1    O3 2963   6.681   0.108   6.334 -0.5190  0.7068  0.0529
   41CHL1   H3' 2964   6.663   0.197   6.366  2.0210  0.5269  2.2681
   41CHL1    C4 2965   6.584   0.062   6.557  0.1354  0.2239 -0.5300
   41CHL1   H4A 2966   6.544   0.165   6.550  0.0969  0.4617  2.1722
   41CHL1   H4B 2967   6.524  -0.015   6.504 -1.0407  1.0670 -0.4583
   41CHL1    C5 2968   6.616   0.021   6.697  0.1233 -1.2514 -0.3519
   41CHL1    C6 2969   6.537  -0.061   6.767  0.2821  1.3039  0.1335
   41CHL1    H6 2970   6.452  -0.094   6.705 -0.7242  1.3920  1.4031
   41CHL1    C7 2971   6.560  -0.108   6.907 -0.5202 -0.3528  0.2595
   41CHL1   H7A 2972   6.464  -0.118   6.963 -1.1696 -0.4955 -0.8503
   41CHL1   H7B 2973   6.609  -0.206   6.889  0.9798 -0.3283  3.4936
   41CHL1    C8 2974   6.660  -0.015   6.978  0.0309  0.1340 -0.3893
   41CHL1    H8 2975   6.604   0.078   7.002 -0.7361 -0.7963  1.6728
   41CHL1   C14 2976   6.703  -0.073   7.107 -0.3215  0.5233 -0.0644
   41CHL1   H14 2977   6.747  -0.170   7.075 -1.2145 -1.3661  3.8365
   41CHL1   C15 2978   6.594  -0.114   7.212  0.3397 -0.3793  0.8016
   41CHL1  H15A 2979   6.520  -0.031   7.208  1.4027  0.5386 -0.4953
   41CHL1  H15B 2980   6.550  -0.206   7.167 -0.1545  0.3472 -0.2363
   41CHL1   C16 2981   6.672  -0.136   7.337  0.1885 -0.9576  0.4867
   41CHL1  H16A 2982   6.615  -0.087   7.419 -1.2924 -1.0206 -0.4900
   41CHL1  H16B 2983   6.663  -0.242   7.369 -4.1201 -0.4992  1.3840
   41CHL1   C17 2984   6.817  -0.083   7.316 -0.2803 -0.2389  0.5368
   41CHL1   H17 2985   6.879  -0.172   7.290 -2.6931 -1.6364 -0.8598
   41CHL1   C13 2986   6.811  -0.003   7.179 -0.1475  0.8814  0.1720
   41CHL1   C18 2987   6.764   0.141   7.224  0.2716 -0.0159 -0.2078
   41CHL1  H18A 2988   6.692   0.133   7.308 -0.5128  1.3018 -0.7170
   41CHL1  H18B 2989   6.847   0.202   7.265  0.4728 -0.0534 -0.5537
   41CHL1  H18C 2990   6.717   0.196   7.140 -0.4015 -0.8364 -0.3845
   41CHL1   C12 2991   6.937   0.002   7.089  0.2103  0.0340  0.1571
   41CHL1  H12A 2992   7.029   0.029   7.145  1.1244 -0.7772 -0.8913
   41CHL1  H12B 2993   6.957  -0.099   7.047  0.9890  0.2904 -0.1134
   41CHL1   C11 2994   6.910   0.078   6.964  0.0267 -0.2958  0.6074
   41CHL1  H11A 2995   6.892   0.186   6.981  1.8171 -0.1131  1.6178
   41CHL1  H11B 2996   7.001   0.077   6.899 -0.6389  0.5249 -0.3495
   41CHL1    C9 2997   6.785   0.009   6.889  0.3407  0.0343  0.8681
   41CHL1    H9 2998   6.818  -0.092   6.858 -1.4000 -0.6707  1.1619
   41CHL1   C10 2999   6.748   0.082   6.756 -0.1253  0.4126  0.3523
   41CHL1   C19 3000   6.720   0.234   6.783  0.6484 -0.5889 -0.3107
   41CHL1  H19A 3001   6.807   0.292   6.822  0.2710 -1.2628  1.6666
   41CHL1  H19B 3002   6.677   0.286   6.695 -0.7807 -1.0891  0.0555
   41CHL1  H19C 3003   6.648   0.230   6.868 -0.2258 -1.1632 -1.0602
   41CHL1    C1 3004   6.866   0.073   6.652 -0.3476  0.2229  0.6708
   41CHL1   H1A 3005   6.967   0.096   6.693 -0.0728  0.7372 -0.2778
   41CHL1   H1B 3006   6.875  -0.037   6.633  1.1112  0.4036  0.1361
   41CHL1    C2 3007   6.828   0.133   6.515 -0.2010 -0.0914  0.3517
   41CHL1   H2A 3008   6.918   0.128   6.450 -0.1834  1.7354  0.1885
   41CHL1   H2B 3009   6.799   0.240   6.521  0.8506  0.1703  1.2204
   41CHL1   C20 3010   6.876  -0.024   7.445  0.4107 -0.3121  0.2558
   41CHL1   H20 3011   6.805   0.056   7.475  1.0742 -0.0572  1.1916
   41CHL1   C21 3012   7.018   0.034   7.420 -0.6069 -0.1313 -0.4566
   41CHL1  H21A 3013   7.078   0.032   7.513  0.6151 -1.1490 -1.2333
   41CHL1  H21B 3014   7.010   0.130   7.365 -2.0530 -1.3434 -2.5061
   41CHL1  H21C 3015   7.071  -0.041   7.358  1.2360  0.3845  0.4485
   41CHL1   C22 3016   6.873  -0.118   7.563  0.2267 -0.4125 -0.1995
   41CHL1  H22A 3017   6.929  -0.067   7.645 -0.1356  0.8197 -0.6944
   41CHL1  H22B 3018   6.769  -0.130   7.601  0.4431 -0.9392  0.2476
   41CHL1   C23 3019   6.933  -0.251   7.532  0.3781  0.7140 -0.3476
   41CHL1  H23A 3020   6.859  -0.302   7.467 -1.8132  1.1302  1.7053
   41CHL1  H23B 3021   7.020  -0.230   7.465  0.9497 -1.1037 -0.2456
   41CHL1   C24 3022   6.980  -0.342   7.647 -0.0824 -0.7092 -0.2330
   41CHL1  H24A 3023   7.063  -0.289   7.699  0.3795 -0.4146 -1.2508
   41CHL1  H24B 3024   6.894  -0.364   7.714 -0.7532 -2.0158 -1.4788
   41CHL1   C25 3025   7.043  -0.480   7.611 -0.2442  0.1857 -0.0408
   41CHL1   H25 3026   7.059  -0.527   7.710 -0.3603  0.4200  0.0885
   41CHL1   C26 3027   6.945  -0.568   7.532  0.1464  0.0824 -0.2618
   41CHL1  H26A 3028   6.922  -0.533   7.429 -1.0353  1.1425  0.3381
   41CHL1  H26B 3029   6.983  -0.672   7.541 -1.7221 -0.9764 -3.1971
   41CHL1  H26C 3030   6.849  -0.574   7.588  0.5872 -0.1411  0.4769
   41CHL1   C27 3031   7.180  -0.467   7.545  0.4520  0.2406  0.3748
   41CHL1  H27A 3032   7.230  -0.565   7.529 -0.2383 -0.0591  0.0223
   41CHL1  H27B 3033   7.172  -0.412   7.449 -0.9986  0.9506  0.8750
   41CHL1  H27C 3034   7.238  -0.395   7.606  1.2176 -0.7732  0.8766
   42CHL1    C3 3035   6.896   0.787   6.417  0.0702  0.0384  0.1078
   42CHL1    H3 3036   6.907   0.677   6.408  3.5447  0.3358 -0.6112
   42CHL1    O3 3037   6.880   0.836   6.284 -0.2238 -0.1493  0.0094
   42CHL1   H3' 3038   6.928   0.918   6.292  0.2288 -0.4765  0.6853
   42CHL1    C4 3039   6.773   0.824   6.503 -0.5167 -0.0121  0.3972
   42CHL1   H4A 3040   6.761   0.934   6.512 -1.1654  0.0404 -0.9719
   42CHL1   H4B 3041   6.682   0.774   6.463 -1.3406 -0.0953  2.2788
   42CHL1    C5 3042   6.790   0.767   6.644  0.3744 -1.0919  0.1821
   42CHL1    C6 3043   6.713   0.668   6.692 -0.0015  0.2188  0.4486
   42CHL1    H6 3044   6.633   0.623   6.631  3.0186 -2.2593 -2.0953
   42CHL1    C7 3045   6.733   0.604   6.826  0.4380  0.3394 -0.6540
   42CHL1   H7A 3046   6.635   0.568   6.864 -0.3552  1.6056 -1.4336
   42CHL1   H7B 3047   6.800   0.515   6.818  1.3698  0.9678 -0.0779
   42CHL1    C8 3048   6.799   0.698   6.927 -0.5018 -0.5591  0.3770
   42CHL1    H8 3049   6.725   0.779   6.943  1.3547  1.2765  0.0975
   42CHL1   C14 3050   6.830   0.627   7.059  0.3066  0.4234 -0.1961
   42CHL1   H14 3051   6.911   0.552   7.044 -0.2287 -0.0735 -0.6484
   42CHL1   C15 3052   6.715   0.545   7.119 -0.1107 -0.4113  0.4561
   42CHL1  H15A 3053   6.621   0.603   7.104 -1.1128 -2.2486 -0.9047
   42CHL1  H15B 3054   6.693   0.458   7.053 -0.6291 -0.1292  0.2500
   42CHL1   C16 3055   6.751   0.537   7.268  0.2487  1.1679 -0.9883
   42CHL1  H16A 3056   6.671   0.586   7.327  1.6358  3.3024 -0.7500
   42CHL1  H16B 3057   6.753   0.430   7.297  1.8480  1.4716  0.1720
   42CHL1   C17 3058   6.885   0.612   7.285 -0.7351 -0.1417 -0.0092
   42CHL1   H17 3059   6.963   0.537   7.261 -0.2048 -0.2180  1.8508
   42CHL1   C13 3060   6.889   0.715   7.169 -0.2431  0.2847 -0.0553
   42CHL1   C18 3061   6.803   0.840   7.204 -0.0220 -0.1416 -0.4562
   42CHL1  H18A 3062   6.804   0.918   7.125  1.1921  1.8259  1.3981
   42CHL1  H18B 3063   6.699   0.813   7.230  0.3213 -0.3136  0.8082
   42CHL1  H18C 3064   6.829   0.894   7.298 -0.9010  4.9696 -2.8024
   42CHL1   C12 3065   7.027   0.769   7.108 -0.3752  0.5490  0.6505
   42CHL1  H12A 3066   7.084   0.843   7.168  2.4933  0.7109 -2.0155
   42CHL1  H12B 3067   7.099   0.685   7.094 -0.4008  0.8977 -2.0212
   42CHL1   C11 3068   7.024   0.823   6.969 -0.3924 -0.1903  0.6830
   42CHL1  H11A 3069   6.993   0.929   6.980  1.5973  0.3369  1.8657
   42CHL1  H11B 3070   7.125   0.825   6.922 -0.9207  1.4704 -0.4921
   42CHL1    C9 3071   6.933   0.748   6.866 -0.4919 -0.2602 -0.0777
   42CHL1    H9 3072   6.992   0.660   6.830 -1.8111  0.2023 -3.8395
   42CHL1   C10 3073   6.908   0.822   6.727  0.3183 -0.2028  0.4652
   42CHL1   C19 3074   6.887   0.974   6.747  0.7079  0.2608 -0.1599
   42CHL1  H19A 3075   6.976   1.017   6.797  2.1813 -2.6619 -0.0581
   42CHL1  H19B 3076   6.874   1.034   6.654 -0.0562 -0.2412 -0.3964
   42CHL1  H19C 3077   6.798   0.998   6.809 -0.0874  2.0108 -1.8769
   42CHL1    C1 3078   7.033   0.796   6.637  0.4328  0.1106  0.4958
   42CHL1   H1A 3079   7.124   0.844   6.680 -0.6011  0.7414  2.0270
   42CHL1   H1B 3080   7.059   0.688   6.633  2.6544  0.5933  0.0602
   42CHL1    C2 3081   7.022   0.845   6.490 -0.4111 -0.1695  0.1786
   42CHL1   H2A 3082   7.110   0.823   6.427 -1.3124  1.3629 -1.6868
   42CHL1   H2B 3083   6.996   0.952   6.501  0.2564 -0.0900  1.0459
   42CHL1   C20 3084   6.912   0.656   7.432 -0.4138 -0.0161 -0.1895
   42CHL1   H20 3085   6.836   0.733   7.455 -1.0492 -1.1470  1.7374
   42CHL1   C21 3086   7.055   0.708   7.446 -0.0892 -0.0888  0.0750
   42CHL1  H21A 3087   7.077   0.792   7.377  1.4669  0.5847  1.3170
   42CHL1  H21B 3088   7.141   0.638   7.443  0.1383  0.2179 -1.6691
   42CHL1  H21C 3089   7.058   0.762   7.543 -3.7055  0.8525 -0.1907
   42CHL1   C22 3090   6.875   0.546   7.541 -0.3527 -0.2599  0.4432
   42CHL1  H22A 3091   6.877   0.595   7.641  0.7433  2.8693 -0.9720
   42CHL1  H22B 3092   6.774   0.511   7.512 -0.8746  0.2658  1.5603
   42CHL1   C23 3093   6.973   0.419   7.534  0.1157 -0.3159  0.0122
   42CHL1  H23A 3094   6.967   0.387   7.428  0.3308  0.4753 -0.2456
   42CHL1  H23B 3095   7.079   0.450   7.547 -0.3276  1.6751 -0.7668
   42CHL1   C24 3096   6.949   0.305   7.633  1.0293 -0.6545  0.0042
   42CHL1  H24A 3097   6.848   0.259   7.624  1.5061 -1.2851 -4.0339
   42CHL1  H24B 3098   7.028   0.230   7.612  3.3684  1.3328  1.1181
   42CHL1   C25 3099   6.967   0.329   7.788 -0.2454 -0.0227 -0.2910
   42CHL1   H25 3100   6.894   0.404   7.826  1.1548  1.0335  0.4029
   42CHL1   C26 3101   6.950   0.191   7.857  0.3833  0.3793  0.0687
   42CHL1  H26A 3102   7.011   0.115   7.805  1.1284 -0.0133  1.4527
   42CHL1  H26B 3103   6.984   0.209   7.962  1.5008  1.7486 -0.4943
   42CHL1  H26C 3104   6.844   0.159   7.867  0.2537  1.1298  1.3877
   42CHL1   C27 3105   7.111   0.380   7.812  0.1536 -0.4973  0.0876
   42CHL1  H27A 3106   7.127   0.372   7.922 -3.5298 -2.4126  0.6383
   42CHL1  H27B 3107   7.131   0.483   7.775 -0.6101 -0.9061 -1.5176
   42CHL1  H27C 3108   7.182   0.302   7.777  0.1616 -1.6783  2.5201
   43CHL1    C3 3109   1.036   1.108   6.589  0.4943 -0.0509  0.3097
   43CHL1    H3 3110   0.956   1.037   6.617 -1.9233  1.9613 -1.1270
   43CHL1    O3 3111   1.052   1.098   6.447 -0.1643 -0.1234 -0.1864
   43CHL1   H3' 3112   1.060   1.005   6.425  0.5979  0.1420 -1.1199
   43CHL1    C4 3113   0.995   1.252   6.624  0.0723  0.0372 -0.3176
   43CHL1   H4A 3114   1.085   1.312   6.599 -0.5412  0.9513 -0.3581
   43CHL1   H4B 3115   0.904   1.274   6.564 -0.5368  0.0888  0.6149
   43CHL1    C5 3116   0.971   1.274   6.772  0.2893  0.7395 -0.4480
   43CHL1    C6 3117   0.848   1.311   6.812  0.6947 -0.5470  0.0390
   43CHL1    H6 3118   0.774   1.322   6.731  2.2929 -1.0722 -1.5504
   43CHL1    C7 3119   0.818   1.340   6.956 -0.4025  0.5938  0.4001
   43CHL1   H7A 3120   0.764   1.437   6.962  2.7471  2.7107 -1.7700
   43CHL1   H7B 3121   0.755   1.255   6.987  1.5593 -0.4025  1.9253
   43CHL1    C8 3122   0.941   1.336   7.053  0.0906 -0.2505  0.6978
   43CHL1    H8 3123   1.004   1.428   7.055 -0.5570  0.2554 -0.8376
   43CHL1   C14 3124   0.903   1.320   7.202 -0.2630  0.4888  0.2593
   43CHL1   H14 3125   0.854   1.221   7.205 -2.4035  1.4682 -0.5621
   43CHL1   C15 3126   0.810   1.426   7.268  0.4714 -0.3243 -0.0904
   43CHL1  H15A 3127   0.844   1.529   7.246 -1.2061  0.3171  0.1855
   43CHL1  H15B 3128   0.709   1.404   7.230  0.0850 -0.5261  1.0178
   43CHL1   C16 3129   0.820   1.387   7.423 -0.3581  0.3314  0.4765
   43CHL1  H16A 3130   0.838   1.481   7.479 -0.4752  0.0518  0.9861
   43CHL1  H16B 3131   0.724   1.354   7.468 -1.5058  0.5093 -1.7113
   43CHL1   C17 3132   0.928   1.285   7.428 -0.0765  0.4030  0.0304
   43CHL1   H17 3133   0.878   1.188   7.409  0.3792  0.3924 -1.2015
   43CHL1   C13 3134   1.017   1.299   7.296 -0.1960  0.7884  0.3586
   43CHL1   C18 3135   1.111   1.422   7.304  0.5163 -0.2700 -1.3877
   43CHL1  H18A 3136   1.062   1.515   7.342 -0.5878 -0.6265 -1.9121
   43CHL1  H18B 3137   1.200   1.387   7.361 -1.3685 -1.4825  0.9872
   43CHL1  H18C 3138   1.158   1.447   7.206 -0.6020  1.7265 -1.4640
   43CHL1   C12 3139   1.088   1.167   7.251 -0.4403 -0.5169  0.6288
   43CHL1  H12A 3140   1.152   1.148   7.340  0.0622 -0.9353  0.1752
   43CHL1  H12B 3141   1.010   1.088   7.256  0.4195 -1.4168  0.1728
   43CHL1   C11 3142   1.150   1.190   7.119  0.5352 -0.2331 -0.4274
   43CHL1  H11A 3143   1.234   1.263   7.118 -1.5183  2.2452  0.0372
   43CHL1  H11B 3144   1.187   1.091   7.085 -3.1401 -1.6490 -0.7157
   43CHL1    C9 3145   1.041   1.225   7.015 -0.0694  0.6417  0.1267
   43CHL1    H9 3146   0.979   1.133   7.012 -0.5850  0.9059  1.6690
   43CHL1   C10 3147   1.094   1.235   6.863  0.1733 -0.1624 -0.3524
   43CHL1   C19 3148   1.209   1.337   6.852 -0.0640 -0.5374 -0.3499
   43CHL1  H19A 3149   1.179   1.438   6.890 -0.8849 -1.1764  0.7694
   43CHL1  H19B 3150   1.296   1.301   6.910 -0.7123 -0.2838  0.8207
   43CHL1  H19C 3151   1.236   1.363   6.748  1.9121 -0.2437  0.1955
   43CHL1    C1 3152   1.152   1.092   6.815 -0.2792 -0.8704 -0.1367
   43CHL1   H1A 3153   1.244   1.065   6.872 -1.8193 -2.7414  1.6454
   43CHL1   H1B 3154   1.073   1.019   6.846  1.6279 -2.5647  0.9972
   43CHL1    C2 3155   1.173   1.079   6.664  0.3157  0.7016  0.4212
   43CHL1   H2A 3156   1.198   0.975   6.632 -0.2411  0.2474  1.4187
   43CHL1   H2B 3157   1.252   1.153   6.637  1.2621 -0.5568 -0.4009
   43CHL1   C20 3158   0.991   1.264   7.570  1.3420  0.5622 -0.2017
   43CHL1   H20 3159   1.079   1.197   7.559  1.9180  1.4425 -1.2341
   43CHL1   C21 3160   0.891   1.184   7.653  0.1405 -0.1354  0.2504
   43CHL1  H21A 3161   0.843   1.109   7.586  0.0588  1.8588 -2.0798
   43CHL1  H21B 3162   0.815   1.256   7.691 -0.5868 -0.7101 -0.0842
   43CHL1  H21C 3163   0.948   1.137   7.736 -1.8924 -1.6901  0.8742
   43CHL1   C22 3164   1.032   1.386   7.646  0.0851 -0.0366  0.7891
   43CHL1  H22A 3165   1.087   1.451   7.575 -0.8789 -1.7278 -1.6639
   43CHL1  H22B 3166   0.940   1.434   7.684 -1.6905 -1.8183 -0.9561
   43CHL1   C23 3167   1.126   1.365   7.763 -0.4044  0.1410 -0.0216
   43CHL1  H23A 3168   1.092   1.284   7.831  3.4443 -1.4294  0.3166
   43CHL1  H23B 3169   1.224   1.327   7.726 -1.2320 -1.8958 -0.2761
   43CHL1   C24 3170   1.150   1.495   7.840  0.6263 -0.1732 -0.5340
   43CHL1  H24A 3171   1.144   1.574   7.763 -0.2963 -0.1941 -0.4930
   43CHL1  H24B 3172   1.063   1.512   7.907  0.6984  0.3369 -0.5652
   43CHL1   C25 3173   1.285   1.492   7.914 -1.4226  0.4956  0.0098
   43CHL1   H25 3174   1.348   1.461   7.828 -0.0923  0.6146  0.9182
   43CHL1   C26 3175   1.338   1.620   7.978  0.8045 -0.8657 -0.0676
   43CHL1  H26A 3176   1.278   1.660   8.062 -0.7942 -1.3883 -0.9198
   43CHL1  H26B 3177   1.442   1.605   8.013  0.5865 -1.5714  0.3127
   43CHL1  H26C 3178   1.328   1.695   7.897 -1.1292 -1.6721 -0.6380
   43CHL1   C27 3179   1.297   1.372   8.006 -0.2631  0.3336  0.4264
   43CHL1  H27A 3180   1.403   1.368   8.037  0.2355  0.3351 -1.1935
   43CHL1  H27B 3181   1.231   1.370   8.095  0.9139  0.4179  1.3089
   43CHL1  H27C 3182   1.277   1.277   7.952  1.1243  0.1473  0.2163
   44CHL1    C3 3183   0.136   5.989   6.659  0.0539 -0.0245 -0.0430
   44CHL1    H3 3184   0.141   6.099   6.675 -0.4457  0.2339 -1.5055
   44CHL1    O3 3185   0.124   5.966   6.519  0.9007  0.2141 -0.0815
   44CHL1   H3' 3186   0.151   5.875   6.504  0.4625  0.1872 -0.7238
   44CHL1    C4 3187   0.265   5.925   6.727  0.2320 -0.9819  0.1650
   44CHL1   H4A 3188   0.258   5.818   6.698  0.9462 -1.1059  0.4365
   44CHL1   H4B 3189   0.347   5.973   6.669  2.8788 -2.3377  2.5347
   44CHL1    C5 3190   0.270   5.955   6.878  0.0409  1.0109  0.2987
   44CHL1    C6 3191   0.376   6.022   6.926  0.2598  0.2243 -0.5248
   44CHL1    H6 3192   0.466   6.051   6.868  0.4478 -3.0625 -2.1003
   44CHL1    C7 3193   0.400   6.041   7.073 -0.4398 -0.6220  0.0726
   44CHL1   H7A 3194   0.507   6.016   7.086  0.0098 -0.1025 -2.1587
   44CHL1   H7B 3195   0.389   6.146   7.108 -0.1371 -0.1536 -1.1934
   44CHL1    C8 3196   0.311   5.946   7.158  0.2688  0.0462 -0.8580
   44CHL1    H8 3197   0.348   5.842   7.147 -2.2279 -0.9338 -0.8157
   44CHL1   C14 3198   0.324   5.989   7.301  0.4111  0.2489  0.6502
   44CHL1   H14 3199   0.296   6.096   7.303 -2.0386 -0.3236  0.3812
   44CHL1   C15 3200   0.464   5.975   7.363 -0.3511  0.3119 -0.5351
   44CHL1  H15A 3201   0.509   5.873   7.357  0.5659  0.7656 -1.8156
   44CHL1  H15B 3202   0.532   6.042   7.307 -0.6931  0.2715 -1.0127
   44CHL1   C16 3203   0.436   6.001   7.511  0.6575  0.8685 -0.7016
   44CHL1  H16A 3204   0.501   5.936   7.574 -0.4052  1.3668  0.9616
   44CHL1  H16B 3205   0.471   6.105   7.530  0.4920  0.7085  0.5565
   44CHL1   C17 3206   0.279   5.987   7.532 -0.6548  0.0421  0.9118
   44CHL1   H17 3207   0.236   6.090   7.535 -1.2910 -0.1649 -0.3339
   44CHL1   C13 3208   0.227   5.926   7.399 -0.3489 -0.4759  0.2549
   44CHL1   C18 3209   0.259   5.779   7.404 -0.7048  0.1660  0.2296
   44CHL1  H18A 3210   0.259   5.736   7.301 -0.3336 -0.5165  0.5057
   44CHL1  H18B 3211   0.361   5.765   7.444 -0.9435  1.8135  1.5251
   44CHL1  H18C 3212   0.192   5.716   7.467 -4.4130  0.4196 -3.0510
   44CHL1   C12 3213   0.088   5.964   7.347 -0.4018 -0.1465 -0.1839
   44CHL1  H12A 3214   0.001   5.932   7.407 -2.2214 -0.7210 -2.9398
   44CHL1  H12B 3215   0.073   6.074   7.334 -2.1252 -0.0626  1.9572
   44CHL1   C11 3216   0.067   5.906   7.210  0.2539 -0.2630 -0.1877
   44CHL1  H11A 3217   0.070   5.795   7.209 -4.1225 -0.5586 -2.6480
   44CHL1  H11B 3218  -0.035   5.924   7.170  0.3656 -2.2293 -1.5274
   44CHL1    C9 3219   0.170   5.960   7.104  1.2412  0.0033 -0.0966
   44CHL1    H9 3220   0.149   6.069   7.098  0.4513 -0.1831 -0.9229
   44CHL1   C10 3221   0.148   5.908   6.955 -0.5300 -0.4662 -0.0335
   44CHL1   C19 3222   0.141   5.764   6.952  0.1653  0.2984 -0.0550
   44CHL1  H19A 3223   0.216   5.715   7.018 -0.5984 -2.4708 -1.0967
   44CHL1  H19B 3224   0.043   5.732   6.993 -0.8253 -0.9769 -3.1112
   44CHL1  H19C 3225   0.153   5.707   6.858  0.1794 -1.6784  1.0865
   44CHL1    C1 3226   0.015   5.965   6.884 -0.6499 -0.0692 -0.8184
   44CHL1   H1A 3227  -0.076   5.926   6.935 -0.1676  0.4577  0.5168
   44CHL1   H1B 3228   0.018   6.074   6.908 -2.4468 -0.3426  0.9178
   44CHL1    C2 3229   0.012   5.938   6.737 -0.2820  0.0046 -1.3063
   44CHL1   H2A 3230  -0.075   5.995   6.699  0.4412  1.1012 -1.3776
   44CHL1   H2B 3231   0.010   5.828   6.722 -0.0483  0.0740 -1.8788
   44CHL1   C20 3232   0.246   5.922   7.666 -0.3875  0.3726  0.1626
   44CHL1   H20 3233   0.293   5.823   7.686  2.1919  1.3360 -0.8091
   44CHL1   C21 3234   0.093   5.917   7.674 -0.8777 -0.3081  0.0443
   44CHL1  H21A 3235   0.052   6.008   7.626 -1.5336 -1.7907 -2.3949
   44CHL1  H21B 3236   0.052   5.898   7.776 -1.7442  0.4255 -0.1551
   44CHL1  H21C 3237   0.058   5.836   7.607 -0.9461  0.3727 -0.7591
   44CHL1   C22 3238   0.302   6.011   7.788 -0.1587  0.1203  0.5559
   44CHL1  H22A 3239   0.391   6.068   7.755 -1.1887  2.5167  1.7192
   44CHL1  H22B 3240   0.225   6.090   7.800 -1.8599 -1.0090 -2.0173
   44CHL1   C23 3241   0.332   5.930   7.910  0.2772  0.5895  0.0347
   44CHL1  H23A 3242   0.237   5.878   7.932  1.5133 -0.9713  2.0842
   44CHL1  H23B 3243   0.404   5.851   7.880 -0.9448 -0.5052 -0.0703
   44CHL1   C24 3244   0.373   6.022   8.022 -0.2284  0.5798  0.0657
   44CHL1  H24A 3245   0.467   6.076   7.993 -1.2462  1.6736 -1.3397
   44CHL1  H24B 3246   0.289   6.094   8.029 -1.5963 -1.0956  1.4753
   44CHL1   C25 3247   0.379   5.949   8.162  0.5294 -0.5355 -0.0410
   44CHL1   H25 3248   0.286   5.889   8.172 -0.3806  0.3029 -2.7124
   44CHL1   C26 3249   0.501   5.854   8.160  0.7130 -0.7665 -0.5513
   44CHL1  H26A 3250   0.596   5.910   8.148  0.6855  0.0306  2.1538
   44CHL1  H26B 3251   0.516   5.797   8.255 -1.7973 -0.5554  0.0428
   44CHL1  H26C 3252   0.485   5.776   8.083 -2.2902 -0.9680  0.1335
   44CHL1   C27 3253   0.373   6.050   8.279  0.2504 -0.0570  0.5266
   44CHL1  H27A 3254   0.343   5.989   8.366 -1.0727 -0.5618 -0.2502
   44CHL1  H27B 3255   0.475   6.089   8.300  1.4214 -2.9530  0.7063
   44CHL1  H27C 3256   0.289   6.119   8.259 -0.3804 -0.9246  0.1265
   45CHL1    C3 3257   0.505   3.043   6.827  0.0021  0.4377 -0.1485
   45CHL1    H3 3258   0.422   3.013   6.759  0.0827  1.0251 -0.5121
   45CHL1    O3 3259   0.620   3.016   6.754 -0.6988 -0.2013  0.4802
   45CHL1   H3' 3260   0.604   2.927   6.721  0.0331 -0.4323  0.7405
   45CHL1    C4 3261   0.501   3.186   6.861 -0.3565  0.1141 -0.3467
   45CHL1   H4A 3262   0.595   3.222   6.908 -1.7385  4.5052 -0.4179
   45CHL1   H4B 3263   0.497   3.247   6.767 -2.5301 -1.3237 -1.2768
   45CHL1    C5 3264   0.381   3.213   6.955 -0.4458 -0.1088  0.4198
   45CHL1    C6 3265   0.290   3.300   6.920  0.3817 -0.7270 -1.0640
   45CHL1    H6 3266   0.293   3.354   6.825 -1.2650 -0.7726 -1.1715
   45CHL1    C7 3267   0.183   3.345   7.023 -0.3911  0.7549  0.5111
   45CHL1   H7A 3268   0.182   3.455   7.033  3.2899  0.7792  2.0931
   45CHL1   H7B 3269   0.083   3.313   6.985  0.2902  0.3040 -0.9685
   45CHL1    C8 3270   0.209   3.293   7.168  0.6787 -0.0624  0.0689
   45CHL1    H8 3271   0.292   3.355   7.209  1.7764 -0.7981 -0.9793
   45CHL1   C14 3272   0.086   3.319   7.256 -0.3848  1.2998 -0.4330
   45CHL1   H14 3273   0.005   3.260   7.209 -0.6256  0.6408  0.7768
   45CHL1   C15 3274   0.022   3.468   7.265  1.1185 -0.2604  0.1814
   45CHL1  H15A 3275   0.111   3.533   7.281  2.4625 -0.9394 -3.5132
   45CHL1  H15B 3276  -0.027   3.495   7.169  0.2996 -3.2911 -0.3604
   45CHL1   C16 3277  -0.063   3.456   7.391 -0.1668  0.6553 -0.8089
   45CHL1  H16A 3278  -0.052   3.539   7.464 -1.1577  0.1628 -0.0871
   45CHL1  H16B 3279  -0.172   3.463   7.371 -0.3270  0.9369  0.1140
   45CHL1   C17 3280  -0.027   3.314   7.456 -0.0937 -1.1944 -0.2053
   45CHL1   H17 3281  -0.092   3.241   7.403  0.5939 -0.0978 -2.7138
   45CHL1   C13 3282   0.102   3.267   7.394 -0.2070 -0.3688 -0.3080
   45CHL1   C18 3283   0.219   3.334   7.466 -0.1350  0.3493  0.2575
   45CHL1  H18A 3284   0.214   3.445   7.472 -0.6505  0.3487 -0.1281
   45CHL1  H18B 3285   0.215   3.304   7.573  0.3390  0.7027  0.3813
   45CHL1  H18C 3286   0.315   3.302   7.421  0.4294  0.8693  1.0590
   45CHL1   C12 3287   0.124   3.119   7.385  0.1226  0.0214 -0.4585
   45CHL1  H12A 3288   0.121   3.081   7.489  0.0701 -0.4445 -0.6288
   45CHL1  H12B 3289   0.040   3.076   7.325  0.4742 -0.0197 -0.9278
   45CHL1   C11 3290   0.251   3.081   7.304  0.7355 -0.4560  0.1311
   45CHL1  H11A 3291   0.344   3.106   7.359  1.3601 -2.0183 -0.1659
   45CHL1  H11B 3292   0.235   2.971   7.299 -0.6840 -0.2866  0.3998
   45CHL1    C9 3293   0.254   3.143   7.159 -0.0317 -0.7544  0.4593
   45CHL1    H9 3294   0.167   3.093   7.111 -0.6501  1.5407 -0.9440
   45CHL1   C10 3295   0.383   3.126   7.085 -0.6933 -0.4484  0.4298
   45CHL1   C19 3296   0.508   3.158   7.170  0.2168  0.1878  0.1644
   45CHL1  H19A 3297   0.524   3.078   7.246 -2.8388 -0.3074  0.4204
   45CHL1  H19B 3298   0.598   3.155   7.105 -0.7729 -1.7431 -1.2279
   45CHL1  H19C 3299   0.488   3.253   7.224  1.8797  1.2986 -1.0715
   45CHL1    C1 3300   0.387   2.979   7.037 -0.5529  0.2105 -0.1437
   45CHL1   H1A 3301   0.389   2.909   7.123  0.2335  0.9736  0.4738
   45CHL1   H1B 3302   0.297   2.957   6.975 -0.7120 -0.9805  0.4780
   45CHL1    C2 3303   0.507   2.950   6.950 -0.1429 -0.3567 -0.3186
   45CHL1   H2A 3304   0.503   2.843   6.921 -0.6115 -0.0463 -1.4883
   45CHL1   H2B 3305   0.597   2.956   7.014  0.0878  0.0710 -0.6736
   45CHL1   C20 3306  -0.057   3.306   7.608  0.5272 -0.3126  0.3646
   45CHL1   H20 3307   0.008   3.230   7.656  0.5145 -2.2644 -2.4776
   45CHL1   C21 3308  -0.197   3.249   7.611  0.0391  0.1764 -0.0562
   45CHL1  H21A 3309  -0.194   3.141   7.587 -1.2313 -0.4590  2.3497
   45CHL1  H21B 3310  -0.265   3.314   7.552 -0.6804 -1.3677 -0.9841
   45CHL1  H21C 3311  -0.225   3.257   7.718  1.6642  0.6538  0.3652
   45CHL1   C22 3312  -0.036   3.440   7.683  0.4165  0.7179 -0.2231
   45CHL1  H22A 3313   0.056   3.483   7.639 -0.5611  1.1118 -1.9722
   45CHL1  H22B 3314  -0.128   3.499   7.663  0.3550  0.2266 -1.4853
   45CHL1   C23 3315  -0.006   3.411   7.827  0.0012  0.5990  0.3357
   45CHL1  H23A 3316  -0.095   3.377   7.884 -0.8324  0.0423 -1.2403
   45CHL1  H23B 3317   0.071   3.331   7.834 -0.6175 -0.0178  0.2628
   45CHL1   C24 3318   0.037   3.544   7.892  0.2008 -0.0054  0.5024
   45CHL1  H24A 3319   0.123   3.591   7.839 -0.3675  0.3871 -0.0967
   45CHL1  H24B 3320  -0.044   3.620   7.885 -1.2672 -1.5902 -0.4065
   45CHL1   C25 3321   0.088   3.544   8.036 -0.6611  0.4692  1.2557
   45CHL1   H25 3322   0.173   3.472   8.034  0.7531  2.0722 -1.5257
   45CHL1   C26 3323   0.147   3.678   8.083 -0.3724 -0.3125  0.2229
   45CHL1  H26A 3324   0.241   3.701   8.029 -0.0748 -1.2830  0.3119
   45CHL1  H26B 3325   0.085   3.770   8.077 -0.3779 -0.1929  1.6585
   45CHL1  H26C 3326   0.176   3.660   8.189 -0.8926  1.3344  0.6766
   45CHL1   C27 3327  -0.020   3.492   8.131 -0.5778  0.6549  0.3906
   45CHL1  H27A 3328  -0.062   3.395   8.097 -0.4294  1.0190 -0.9061
   45CHL1  H27B 3329   0.021   3.472   8.232  2.3286 -3.7181 -1.3628
   45CHL1  H27C 3330  -0.101   3.568   8.137  0.4843  1.7460  1.3083
   46CHL1    C3 3331   0.738   4.930   6.344 -0.3744  0.8943  0.4596
   46CHL1    H3 3332   0.842   4.914   6.377 -0.6809  0.9294  1.4800
   46CHL1    O3 3333   0.741   4.901   6.200 -0.2212  0.4693 -0.0052
   46CHL1   H3' 3334   0.730   4.806   6.191  0.4058  0.0904  2.4994
   46CHL1    C4 3335   0.664   4.822   6.431 -0.0451 -0.5910 -0.6773
   46CHL1   H4A 3336   0.559   4.824   6.394 -0.3888 -0.5329  0.2890
   46CHL1   H4B 3337   0.703   4.720   6.410 -0.3330 -0.9297  0.3748
   46CHL1    C5 3338   0.665   4.842   6.579 -0.4870  0.2286 -0.2053
   46CHL1    C6 3339   0.715   4.749   6.665  0.0668  0.5585  0.0082
   46CHL1    H6 3340   0.740   4.651   6.622 -2.0326  0.3378 -0.8423
   46CHL1    C7 3341   0.719   4.761   6.818  0.0335 -0.1338  0.3798
   46CHL1   H7A 3342   0.677   4.671   6.869  1.5861  0.0265  2.0662
   46CHL1   H7B 3343   0.825   4.767   6.850  0.3824  0.5201 -0.8551
   46CHL1    C8 3344   0.638   4.887   6.862 -0.3231 -0.2543  0.1271
   46CHL1    H8 3345   0.530   4.859   6.860 -0.0962 -1.1327 -0.7233
   46CHL1   C14 3346   0.671   4.928   7.006  0.4579 -0.1206  0.0833
   46CHL1   H14 3347   0.778   4.957   7.008  0.4763 -0.2169  1.1589
   46CHL1   C15 3348   0.666   4.822   7.113  0.4139  0.1692 -0.1815
   46CHL1  H15A 3349   0.568   4.773   7.100 -0.1290  1.4937 -1.3700
   46CHL1  H15B 3350   0.740   4.741   7.101  0.7082  0.6963 -2.3146
   46CHL1   C16 3351   0.677   4.899   7.245  0.5388  0.0441  0.2591
   46CHL1  H16A 3352   0.587   4.883   7.307  0.2821  0.4388 -0.0018
   46CHL1  H16B 3353   0.765   4.872   7.307 -0.8586  1.9081  3.3216
   46CHL1   C17 3354   0.675   5.051   7.213  0.4696  0.5958  0.8553
   46CHL1   H17 3355   0.781   5.070   7.188  0.3049 -2.1811 -2.7906
   46CHL1   C13 3356   0.608   5.059   7.071 -0.0394 -0.3757  0.2535
   46CHL1   C18 3357   0.451   5.040   7.071  0.0785 -0.5837  0.2208
   46CHL1  H18A 3358   0.402   5.137   7.096  0.0479 -0.3004 -0.8946
   46CHL1  H18B 3359   0.416   5.027   6.967  0.0193  0.0992  0.1528
   46CHL1  H18C 3360   0.424   4.958   7.141 -1.0552  0.7135  1.3572
   46CHL1   C12 3361   0.654   5.164   6.976 -0.0492  0.2358 -0.1851
   46CHL1  H12A 3362   0.611   5.259   7.013  3.0835  1.4008  0.7590
   46CHL1  H12B 3363   0.763   5.174   6.992 -0.3572  0.3629  2.0682
   46CHL1   C11 3364   0.618   5.137   6.826 -0.1972 -0.5336  0.2209
   46CHL1  H11A 3365   0.508   5.129   6.818 -0.0731 -0.8954 -1.7041
   46CHL1  H11B 3366   0.669   5.221   6.774  0.6913 -1.0527  0.2256
   46CHL1    C9 3367   0.669   5.005   6.767 -0.2061 -0.1896 -0.1052
   46CHL1    H9 3368   0.780   5.010   6.758 -0.1717  0.1363  0.4743
   46CHL1   C10 3369   0.630   4.989   6.620 -0.1524  0.3142  0.3827
   46CHL1   C19 3370   0.474   5.006   6.610 -0.2424  0.3006  0.3433
   46CHL1  H19A 3371   0.421   4.937   6.678  0.6733 -0.9916 -0.2052
   46CHL1  H19B 3372   0.439   5.110   6.631  0.3077  0.5618 -0.0141
   46CHL1  H19C 3373   0.447   4.988   6.504 -1.3261  3.9102 -0.1244
   46CHL1    C1 3374   0.721   5.088   6.532  0.1839  0.2106 -0.1782
   46CHL1   H1A 3375   0.704   5.193   6.563  2.2132  0.0169  1.8205
   46CHL1   H1B 3376   0.827   5.073   6.564  0.1037 -0.1280 -0.0723
   46CHL1    C2 3377   0.697   5.073   6.381 -0.1806  0.5684  0.6948
   46CHL1   H2A 3378   0.754   5.136   6.309 -0.1041  2.7376  2.5607
   46CHL1   H2B 3379   0.589   5.089   6.358 -0.3448  1.3211  1.9094
   46CHL1   C20 3380   0.626   5.137   7.321  0.0324  1.1580 -0.2997
   46CHL1   H20 3381   0.522   5.105   7.339  0.8196 -1.8384 -0.5128
   46CHL1   C21 3382   0.645   5.293   7.300  0.1170  0.5428 -0.5268
   46CHL1  H21A 3383   0.752   5.309   7.279  0.9455 -3.7495 -0.5655
   46CHL1  H21B 3384   0.617   5.353   7.390 -1.9393  0.5669 -1.1181
   46CHL1  H21C 3385   0.587   5.328   7.212  1.6159  2.3005 -0.8779
   46CHL1   C22 3386   0.712   5.115   7.448  0.0506  0.1861 -0.0513
   46CHL1  H22A 3387   0.704   5.006   7.468 -0.2798  0.3601  0.7810
   46CHL1  H22B 3388   0.816   5.153   7.444  0.1498 -0.1312 -0.6798
   46CHL1   C23 3389   0.654   5.178   7.579  0.0930 -0.0890 -0.3277
   46CHL1  H23A 3390   0.681   5.286   7.579 -0.0679 -0.0460  0.0303
   46CHL1  H23B 3391   0.543   5.178   7.570  0.0415 -0.1126  0.2638
   46CHL1   C24 3392   0.702   5.098   7.703  0.5784  0.0813 -0.0162
   46CHL1  H24A 3393   0.672   4.991   7.706  0.4923  0.1323  2.0985
   46CHL1  H24B 3394   0.813   5.094   7.710  0.5440  1.9158  3.5177
   46CHL1   C25 3395   0.666   5.170   7.838  0.1203  0.4109  0.3142
   46CHL1   H25 3396   0.675   5.280   7.824  0.8559  0.2812 -0.2887
   46CHL1   C26 3397   0.516   5.144   7.886  0.4831  0.3553 -0.2174
   46CHL1  H26A 3398   0.495   5.168   7.992  2.3218 -0.2910  0.3204
   46CHL1  H26B 3399   0.446   5.189   7.812  0.0412 -0.6739 -0.4375
   46CHL1  H26C 3400   0.497   5.035   7.877 -0.4289  0.4882 -0.0106
   46CHL1   C27 3401   0.757   5.119   7.949  0.0618 -0.1425 -0.6106
   46CHL1  H27A 3402   0.721   5.017   7.973 -0.2378  0.2448  0.6800
   46CHL1  H27B 3403   0.865   5.108   7.924  0.1894 -0.3178 -0.0055
   46CHL1  H27C 3404   0.741   5.174   8.045 -1.4815  1.6511 -1.8184
   47CHL1    C3 3405   5.984   1.216   6.192 -0.2410  0.4217  0.8087
   47CHL1    H3 3406   6.042   1.121   6.193  1.0572  1.0922 -1.7904
   47CHL1    O3 3407   5.945   1.243   6.057  0.4242 -0.0201  0.0167
   47CHL1   H3' 3408   5.853   1.215   6.063 -0.0914  0.7921 -2.5240
   47CHL1    C4 3409   5.858   1.195   6.270 -0.7059 -0.2466 -0.0009
   47CHL1   H4A 3410   5.780   1.272   6.254 -0.8921 -0.0347  1.6857
   47CHL1   H4B 3411   5.817   1.107   6.216  0.7356  1.0064 -3.3851
   47CHL1    C5 3412   5.884   1.188   6.419 -0.2770  0.3187 -0.4524
   47CHL1    C6 3413   5.837   1.088   6.494 -0.4165  0.6274  0.1739
   47CHL1    H6 3414   5.774   1.022   6.432  0.9791 -1.7774  1.1691
   47CHL1    C7 3415   5.849   1.071   6.642 -0.4997 -0.2907  0.4119
   47CHL1   H7A 3416   5.751   1.055   6.692 -0.5664  2.4516  1.3510
   47CHL1   H7B 3417   5.912   0.982   6.659 -1.6298 -1.2767 -0.4057
   47CHL1    C8 3418   5.911   1.196   6.704 -1.0990 -0.7073  0.0500
   47CHL1    H8 3419   5.830   1.272   6.717 -1.0303 -0.4386 -1.0292
   47CHL1   C14 3420   5.959   1.154   6.840 -0.3906 -0.3127  0.5050
   47CHL1   H14 3421   6.046   1.090   6.816 -0.9255 -0.8519 -0.0387
   47CHL1   C15 3422   5.875   1.073   6.944 -0.3840  0.1440 -0.3565
   47CHL1  H15A 3423   5.775   1.121   6.956 -0.0440  0.7775  0.0045
   47CHL1  H15B 3424   5.861   0.967   6.916  1.5288 -0.3310  0.3448
   47CHL1   C16 3425   5.953   1.091   7.073 -0.1783 -0.8924  0.0329
   47CHL1  H16A 3426   5.883   1.124   7.152  0.2490  2.4132 -0.8126
   47CHL1  H16B 3427   6.006   0.997   7.099 -1.0037 -0.8806  1.8453
   47CHL1   C17 3428   6.060   1.194   7.051  0.2174  0.0301 -0.0690
   47CHL1   H17 3429   6.152   1.147   7.012 -0.9713 -0.3053 -2.6619
   47CHL1   C13 3430   6.016   1.274   6.923 -0.4378  0.6410 -0.3299
   47CHL1   C18 3431   5.909   1.372   6.973 -0.7092  0.1841  0.0508
   47CHL1  H18A 3432   5.958   1.467   7.005 -1.4690  1.0250 -1.1856
   47CHL1  H18B 3433   5.825   1.391   6.904 -1.7953  4.2116  2.1616
   47CHL1  H18C 3434   5.853   1.334   7.061  2.2964 -0.3505  1.8697
   47CHL1   C12 3435   6.125   1.350   6.839  0.6404  0.9758  0.1489
   47CHL1  H12A 3436   6.145   1.446   6.891  1.0421  1.5686 -1.0901
   47CHL1  H12B 3437   6.219   1.294   6.824  0.3955  0.9962 -1.5880
   47CHL1   C11 3438   6.079   1.388   6.696 -0.4557  0.4240 -0.4934
   47CHL1  H11A 3439   6.000   1.466   6.695  0.1427  1.0331 -1.5839
   47CHL1  H11B 3440   6.166   1.427   6.639 -0.1365 -0.5706 -0.7001
   47CHL1    C9 3441   6.025   1.262   6.620 -0.5787 -0.4107  0.0398
   47CHL1    H9 3442   6.108   1.190   6.606  1.4703  1.6665  0.9084
   47CHL1   C10 3443   5.981   1.294   6.473  0.3507  0.2160  0.6707
   47CHL1   C19 3444   5.909   1.430   6.463 -0.2197  0.0053  0.1218
   47CHL1  H19A 3445   5.893   1.442   6.353  1.5906 -1.9898 -0.4326
   47CHL1  H19B 3446   5.814   1.443   6.518 -1.6688 -0.0715 -2.2041
   47CHL1  H19C 3447   5.977   1.514   6.490  2.8551 -1.7735 -1.5114
   47CHL1    C1 3448   6.109   1.302   6.387 -0.7071 -0.1515  0.7706
   47CHL1   H1A 3449   6.166   1.389   6.426  3.0194 -1.3424 -1.4751
   47CHL1   H1B 3450   6.175   1.215   6.403  0.3836  0.9830  2.8876
   47CHL1    C2 3451   6.083   1.327   6.246  0.2568  0.0777  0.3837
   47CHL1   H2A 3452   6.172   1.340   6.181 -1.3622  3.5916 -1.4092
   47CHL1   H2B 3453   6.037   1.427   6.226  0.2496  0.0782  0.4028
   47CHL1   C20 3454   6.091   1.263   7.180 -0.6017  0.2435 -0.2898
   47CHL1   H20 3455   5.997   1.310   7.215 -1.1230 -1.1307  0.2413
   47CHL1   C21 3456   6.191   1.378   7.163  0.1656 -0.3186  0.1335
   47CHL1  H21A 3457   6.290   1.339   7.132 -0.0351  0.7416 -2.0315
   47CHL1  H21B 3458   6.221   1.439   7.251  0.8142  0.8190 -0.8452
   47CHL1  H21C 3459   6.174   1.452   7.083 -2.3399 -0.0767  0.8187
   47CHL1   C22 3460   6.137   1.174   7.300  0.1282  0.2104  0.1575
   47CHL1  H22A 3461   6.080   1.079   7.306  1.1848 -0.4655 -0.2576
   47CHL1  H22B 3462   6.244   1.151   7.281  1.0241  1.9969  2.5216
   47CHL1   C23 3463   6.132   1.253   7.434 -0.4016  0.3371 -0.1823
   47CHL1  H23A 3464   6.213   1.329   7.432 -0.8693  0.8300 -0.9590
   47CHL1  H23B 3465   6.034   1.305   7.443 -0.5742 -0.0595  0.2542
   47CHL1   C24 3466   6.154   1.157   7.557 -0.6007  0.0656 -0.3145
   47CHL1  H24A 3467   6.084   1.070   7.561 -0.0864 -0.3161  1.4252
   47CHL1  H24B 3468   6.257   1.117   7.543 -1.2808 -1.3048 -1.7243
   47CHL1   C25 3469   6.148   1.230   7.697  0.3265  0.7263  0.7094
   47CHL1   H25 3470   6.187   1.156   7.771 -1.6952 -2.5980 -1.2816
   47CHL1   C26 3471   6.228   1.362   7.704  0.2515  0.2270  0.2336
   47CHL1  H26A 3472   6.187   1.437   7.634  0.9320  1.6819  1.3323
   47CHL1  H26B 3473   6.232   1.404   7.807 -1.6184  0.8096  0.1065
   47CHL1  H26C 3474   6.334   1.344   7.676 -0.2813  1.5026 -2.9229
   47CHL1   C27 3475   5.995   1.264   7.722 -0.0812  0.4272  1.1015
   47CHL1  H27A 3476   5.944   1.287   7.626 -0.1786  0.2667  1.1145
   47CHL1  H27B 3477   5.934   1.177   7.755 -0.8172  0.1172 -0.8996
   47CHL1  H27C 3478   5.983   1.348   7.794 -1.0818  0.8839  0.4303
   48CHL1    C3 3479   3.132   2.884   6.815  0.1058  0.4831 -0.3000
   48CHL1    H3 3480   3.048   2.937   6.865  1.0006  1.2742  0.4077
   48CHL1    O3 3481   3.123   2.943   6.686  0.1856 -0.2868 -0.1457
   48CHL1   H3' 3482   3.182   3.019   6.695 -2.5559  1.8718  0.7575
   48CHL1    C4 3483   3.262   2.939   6.887  0.6783  0.0307  0.3657
   48CHL1   H4A 3484   3.353   2.944   6.824 -2.0907 -0.9935 -4.1687
   48CHL1   H4B 3485   3.255   3.049   6.897 -0.8560  0.1626 -1.5253
   48CHL1    C5 3486   3.274   2.875   7.029 -0.5336  0.1999  0.4875
   48CHL1    C6 3487   3.300   2.948   7.137 -0.4623 -0.7064 -0.4167
   48CHL1    H6 3488   3.320   3.057   7.135  0.4823 -0.8555  0.0954
   48CHL1    C7 3489   3.326   2.892   7.274 -0.1777 -0.4361  0.3429
   48CHL1   H7A 3490   3.398   2.944   7.341 -1.4317 -0.3018  1.6125
   48CHL1   H7B 3491   3.231   2.888   7.332  0.1095 -2.1261  0.7755
   48CHL1    C8 3492   3.364   2.740   7.270 -0.0512  0.5563 -0.4129
   48CHL1    H8 3493   3.470   2.738   7.235 -0.0483  0.4743 -0.4012
   48CHL1   C14 3494   3.350   2.677   7.407  0.0986 -0.3414 -0.1923
   48CHL1   H14 3495   3.242   2.694   7.427  1.0289  4.4482  2.3010
   48CHL1   C15 3496   3.415   2.745   7.528  0.4741 -0.1515 -0.5596
   48CHL1  H15A 3497   3.518   2.782   7.506  0.2898  1.6478  1.3243
   48CHL1  H15B 3498   3.354   2.830   7.565  1.3459 -0.8846  2.9038
   48CHL1   C16 3499   3.420   2.639   7.642 -0.0728 -0.9899  0.0794
   48CHL1  H16A 3500   3.520   2.615   7.683 -0.6331  1.7015  3.4391
   48CHL1  H16B 3501   3.353   2.675   7.723 -1.5095 -0.3985 -1.3151
   48CHL1   C17 3502   3.370   2.517   7.568 -0.1391  0.2192 -0.6452
   48CHL1   H17 3503   3.262   2.511   7.593  0.1449 -0.9490  0.4423
   48CHL1   C13 3504   3.392   2.531   7.417 -0.1908 -0.7979  0.9246
   48CHL1   C18 3505   3.537   2.506   7.383  0.0439  0.8698 -0.0570
   48CHL1  H18A 3506   3.604   2.556   7.457 -0.4352  0.2120  0.8392
   48CHL1  H18B 3507   3.555   2.398   7.397  0.2363  0.7871 -0.9190
   48CHL1  H18C 3508   3.561   2.536   7.279 -0.7648  1.6372 -0.0380
   48CHL1   C12 3509   3.286   2.456   7.320 -0.5805  0.1205  0.5697
   48CHL1  H12A 3510   3.308   2.348   7.322  2.5054  0.6597  1.1160
   48CHL1  H12B 3511   3.185   2.477   7.361 -0.5632  1.1636  0.1082
   48CHL1   C11 3512   3.293   2.513   7.183  0.7722  0.3021  0.1632
   48CHL1  H11A 3513   3.395   2.500   7.141  0.2919 -0.2054 -0.8976
   48CHL1  H11B 3514   3.211   2.454   7.135  2.2626 -1.7843  0.0355
   48CHL1    C9 3515   3.267   2.665   7.177  1.0211 -0.0925  0.2222
   48CHL1    H9 3516   3.165   2.673   7.223  1.6835 -0.8750  1.9387
   48CHL1   C10 3517   3.258   2.723   7.036  0.0949  0.0473  0.1612
   48CHL1   C19 3518   3.388   2.677   6.966  0.6702 -0.2200 -0.2897
   48CHL1  H19A 3519   3.377   2.567   6.956 -0.3433 -0.1124 -0.4664
   48CHL1  H19B 3520   3.402   2.716   6.862  0.8759  0.8112  0.1142
   48CHL1  H19C 3521   3.475   2.704   7.029 -1.7470  1.4629  2.5750
   48CHL1    C1 3522   3.126   2.678   6.957  0.5005  0.1254 -0.4669
   48CHL1   H1A 3523   3.121   2.567   6.958 -1.3811  0.1697 -0.5936
   48CHL1   H1B 3524   3.044   2.728   7.015  1.8886  1.9947 -0.0041
   48CHL1    C2 3525   3.118   2.728   6.818 -0.2723  0.6577  0.1945
   48CHL1   H2A 3526   3.015   2.707   6.785 -0.0027 -0.4553  0.0229
   48CHL1   H2B 3527   3.190   2.678   6.749  1.2181 -0.2061  2.2414
   48CHL1   C20 3528   3.410   2.387   7.642 -0.1038 -0.0061 -0.4913
   48CHL1   H20 3529   3.520   2.376   7.627 -0.2031 -0.2286 -1.1057
   48CHL1   C21 3530   3.337   2.273   7.567 -0.3122  0.0387  0.4112
   48CHL1  H21A 3531   3.226   2.278   7.559 -0.2998 -0.9996 -0.7643
   48CHL1  H21B 3532   3.359   2.187   7.634  0.4400  0.2159  0.4062
   48CHL1  H21C 3533   3.387   2.259   7.469 -1.2310 -0.3002 -0.0156
   48CHL1   C22 3534   3.383   2.390   7.792  0.2996  0.1096  0.0560
   48CHL1  H22A 3535   3.401   2.294   7.847 -0.0126  0.4154  0.7062
   48CHL1  H22B 3536   3.455   2.459   7.841  0.2600  1.4284 -1.6876
   48CHL1   C23 3537   3.237   2.411   7.821  0.1244 -0.4943 -0.0646
   48CHL1  H23A 3538   3.218   2.518   7.795 -0.5244 -0.0145  2.0894
   48CHL1  H23B 3539   3.164   2.358   7.756 -1.3201  0.8345  0.3944
   48CHL1   C24 3540   3.202   2.384   7.965  0.4331  0.0929 -0.2531
   48CHL1  H24A 3541   3.242   2.285   7.995  2.2691  0.2908 -1.8217
   48CHL1  H24B 3542   3.254   2.465   8.022  1.3602  1.2799 -2.6505
   48CHL1   C25 3543   3.047   2.381   7.997 -0.0816 -0.1678  0.1091
   48CHL1   H25 3544   3.004   2.469   7.946 -0.0651 -1.4993 -2.3757
   48CHL1   C26 3545   2.984   2.255   7.940  0.2440 -0.3472  0.0110
   48CHL1  H26A 3546   3.006   2.251   7.832  1.1596  0.7819  0.1439
   48CHL1  H26B 3547   3.022   2.164   7.992  1.1750  0.4504  0.7504
   48CHL1  H26C 3548   2.873   2.268   7.944  0.3661  0.5484  1.9129
   48CHL1   C27 3549   3.024   2.385   8.151 -1.1609 -0.5252 -0.2918
   48CHL1  H27A 3550   2.917   2.368   8.176 -2.7917  1.4088 -4.8572
   48CHL1  H27B 3551   3.095   2.314   8.200  0.0001 -0.2376 -1.5042
   48CHL1  H27C 3552   3.049   2.483   8.197 -1.0303 -1.0287  0.7307
   49CHL1    C3 3553   2.168   6.684   6.432  0.8387 -0.4721 -0.0204
   49CHL1    H3 3554   2.067   6.681   6.478  1.2423 -0.0713  0.9219
   49CHL1    O3 3555   2.150   6.686   6.291 -0.3155 -0.1939 -0.0460
   49CHL1   H3' 3556   2.233   6.651   6.259  0.8024  0.6089  1.8535
   49CHL1    C4 3557   2.247   6.805   6.476 -0.8074  0.4558  0.5389
   49CHL1   H4A 3558   2.335   6.812   6.408 -1.0649  0.0282  0.1621
   49CHL1   H4B 3559   2.188   6.899   6.463 -0.1572  0.7797 -0.1729
   49CHL1    C5 3560   2.287   6.808   6.619 -0.4734 -0.1173 -0.3343
   49CHL1    C6 3561   2.241   6.898   6.707  0.3320 -0.1806 -0.3863
   49CHL1    H6 3562   2.185   6.984   6.669  0.0521  0.0219  0.4495
   49CHL1    C7 3563   2.267   6.903   6.858  0.0924 -0.6928 -0.0636
   49CHL1   H7A 3564   2.307   7.005   6.871 -2.1303  0.2591 -0.2363
   49CHL1   H7B 3565   2.176   6.884   6.919 -0.3919 -1.6006 -1.0296
   49CHL1    C8 3566   2.370   6.794   6.906 -0.0109 -0.5979  0.7942
   49CHL1    H8 3567   2.469   6.833   6.874 -0.1064 -0.6727  0.4045
   49CHL1   C14 3568   2.372   6.769   7.050 -0.5964 -1.0861 -0.7316
   49CHL1   H14 3569   2.271   6.731   7.076 -1.1519 -1.1231 -2.7533
   49CHL1   C15 3570   2.388   6.891   7.140 -0.0486  0.3104 -0.5870
   49CHL1  H15A 3571   2.463   6.956   7.090 -1.1457  1.6659 -0.5310
   49CHL1  H15B 3572   2.290   6.942   7.151  0.0060  0.1609  0.7049
   49CHL1   C16 3573   2.430   6.832   7.278 -0.4280  0.4962  0.6910
   49CHL1  H16A 3574   2.524   6.884   7.304  0.7422 -0.8829 -0.6250
   49CHL1  H16B 3575   2.352   6.853   7.354 -1.8883  0.5753 -0.7604
   49CHL1   C17 3576   2.453   6.682   7.258  0.7600 -0.1509  0.2685
   49CHL1   H17 3577   2.355   6.635   7.279  0.7563 -0.1103  0.3411
   49CHL1   C13 3578   2.469   6.670   7.101 -0.0989  0.2626  0.4411
   49CHL1   C18 3579   2.614   6.720   7.063 -1.2965 -0.0951 -0.4773
   49CHL1  H18A 3580   2.628   6.698   6.955 -1.2607 -0.2258 -0.4457
   49CHL1  H18B 3581   2.643   6.824   7.088  0.5587 -0.6882 -0.0429
   49CHL1  H18C 3582   2.685   6.653   7.115  0.5308  1.2229 -1.1284
   49CHL1   C12 3583   2.432   6.535   7.038  0.5934 -0.1671 -0.7087
   49CHL1  H12A 3584   2.502   6.451   7.058  1.9937  1.1742  0.2867
   49CHL1  H12B 3585   2.330   6.501   7.067  1.1172 -2.1537 -1.0804
   49CHL1   C11 3586   2.427   6.542   6.884  0.0823 -0.3811  0.1417
   49CHL1  H11A 3587   2.534   6.548   6.855  0.3554  2.0701  1.3977
   49CHL1  H11B 3588   2.386   6.444   6.851  0.9347  0.1340 -2.7332
   49CHL1    C9 3589   2.345   6.660   6.827 -0.5957  1.3001  0.0401
   49CHL1    H9 3590   2.238   6.639   6.846 -0.4880 -0.9940 -1.4449
   49CHL1   C10 3591   2.359   6.675   6.670 -0.6570  0.1551  0.2936
   49CHL1   C19 3592   2.510   6.684   6.627  0.3989  0.3894  0.4312
   49CHL1  H19A 3593   2.573   6.761   6.676  1.0280 -0.4040  0.9153
   49CHL1  H19B 3594   2.566   6.588   6.641  2.1921  0.9865 -1.9269
   49CHL1  H19C 3595   2.528   6.700   6.519  0.1698 -2.2958 -0.0924
   49CHL1    C1 3596   2.286   6.548   6.612 -0.1294 -0.0839  0.0466
   49CHL1   H1A 3597   2.341   6.452   6.617 -0.9670 -0.5911 -0.2535
   49CHL1   H1B 3598   2.190   6.521   6.660  0.5723 -1.8270  0.5225
   49CHL1    C2 3599   2.255   6.563   6.461  0.1879 -0.0954 -0.0340
   49CHL1   H2A 3600   2.207   6.470   6.425  0.3356 -0.4122  0.5759
   49CHL1   H2B 3601   2.349   6.568   6.403  0.1125 -1.2347 -0.2775
   49CHL1   C20 3602   2.560   6.631   7.358 -0.1614 -0.3351 -0.8324
   49CHL1   H20 3603   2.662   6.663   7.326  0.6968 -3.2450 -1.3472
   49CHL1   C21 3604   2.560   6.479   7.364 -0.6394 -0.0834 -0.3611
   49CHL1  H21A 3605   2.643   6.451   7.433 -0.1242 -0.5355 -1.1499
   49CHL1  H21B 3606   2.582   6.443   7.261 -0.2323  1.0722 -0.6957
   49CHL1  H21C 3607   2.460   6.452   7.402 -1.2855  2.2468 -0.2404
   49CHL1   C22 3608   2.544   6.685   7.503 -0.3158  0.3336  0.1098
   49CHL1  H22A 3609   2.512   6.791   7.498 -1.0293  0.1036 -0.3741
   49CHL1  H22B 3610   2.458   6.629   7.545  0.6031 -0.2449  1.2854
   49CHL1   C23 3611   2.671   6.672   7.596  0.4530 -0.1208  0.0120
   49CHL1  H23A 3612   2.704   6.566   7.592 -0.6755 -0.4917  0.2228
   49CHL1  H23B 3613   2.747   6.736   7.546  2.1190 -1.9953 -0.0137
   49CHL1   C24 3614   2.641   6.728   7.738 -0.2373  0.2530  0.2093
   49CHL1  H24A 3615   2.598   6.830   7.739 -0.5809  0.1077  0.7025
   49CHL1  H24B 3616   2.558   6.662   7.772  0.7383 -1.0690  0.1373
   49CHL1   C25 3617   2.760   6.730   7.839 -0.6577  0.1011 -1.0503
   49CHL1   H25 3618   2.834   6.648   7.831 -1.2294 -0.9937  2.9106
   49CHL1   C26 3619   2.847   6.855   7.817  0.2567 -0.0088  0.0518
   49CHL1  H26A 3620   2.928   6.863   7.893 -1.4824 -0.1811  2.0060
   49CHL1  H26B 3621   2.887   6.865   7.714  1.0442  0.6760  0.4165
   49CHL1  H26C 3622   2.784   6.946   7.819 -2.2721 -1.6666  1.3591
   49CHL1   C27 3623   2.713   6.739   7.990  0.2591 -0.0263  0.2413
   49CHL1  H27A 3624   2.789   6.726   8.070 -0.3627 -0.1595  0.8313
   49CHL1  H27B 3625   2.667   6.838   8.011  0.3444 -0.0091  0.3463
   49CHL1  H27C 3626   2.631   6.666   8.010 -1.0459  1.2702 -0.1941
   50CHL1    C3 3627   3.293   3.951   6.702  0.1932 -1.0023 -0.4566
   50CHL1    H3 3628   3.389   3.983   6.656 -0.2040 -1.0798 -1.3530
   50CHL1    O3 3629   3.216   3.919   6.587 -0.3659  0.0151 -0.3373
   50CHL1   H3' 3630   3.133   3.876   6.610  0.1309  0.0788  1.6977
   50CHL1    C4 3631   3.305   3.828   6.797  0.1767 -0.1581  0.0211
   50CHL1   H4A 3632   3.199   3.798   6.814 -1.0079  3.1289 -0.7845
   50CHL1   H4B 3633   3.349   3.737   6.751  0.4776 -0.4149  0.8017
   50CHL1    C5 3634   3.382   3.851   6.926 -0.1466 -0.2778  1.4113
   50CHL1    C6 3635   3.484   3.771   6.963  0.2301 -0.3814  0.1072
   50CHL1    H6 3636   3.513   3.694   6.890 -0.7817  1.9613 -3.0126
   50CHL1    C7 3637   3.566   3.786   7.092 -0.2688 -0.1385  0.4853
   50CHL1   H7A 3638   3.562   3.688   7.144 -1.4054  0.0750  0.8316
   50CHL1   H7B 3639   3.673   3.810   7.076  0.1552 -2.9780 -1.7906
   50CHL1    C8 3640   3.497   3.890   7.182 -0.1985 -0.0792  0.0753
   50CHL1    H8 3641   3.418   3.839   7.241  1.2700 -1.4208  0.9531
   50CHL1   C14 3642   3.603   3.938   7.282 -0.3345  0.8372  0.1656
   50CHL1   H14 3643   3.690   3.985   7.232  0.6202  2.9524  3.5000
   50CHL1   C15 3644   3.669   3.828   7.365  0.4898 -0.0682  0.1300
   50CHL1  H15A 3645   3.589   3.771   7.419  2.1536 -0.1339  2.7074
   50CHL1  H15B 3646   3.724   3.752   7.306  0.8751  1.2456 -1.2568
   50CHL1   C16 3647   3.746   3.911   7.470  0.4543 -0.7294  0.2335
   50CHL1  H16A 3648   3.732   3.864   7.570 -1.1842 -1.4509 -0.2993
   50CHL1  H16B 3649   3.853   3.918   7.440  0.3694 -0.0423  0.0930
   50CHL1   C17 3650   3.687   4.053   7.471 -0.8454 -0.4477  0.0695
   50CHL1   H17 3651   3.757   4.116   7.412  0.0975 -1.4542  0.0705
   50CHL1   C13 3652   3.562   4.053   7.380 -0.2950  0.6247 -0.1574
   50CHL1   C18 3653   3.442   4.010   7.467  0.0853 -0.1095  0.8897
   50CHL1  H18A 3654   3.367   3.957   7.405  1.5811 -0.6267 -0.5599
   50CHL1  H18B 3655   3.472   3.928   7.535  1.6594 -0.7725 -0.5387
   50CHL1  H18C 3656   3.414   4.101   7.525  2.7463  2.8903 -2.0836
   50CHL1   C12 3657   3.523   4.181   7.292  0.2575  0.0653  0.7887
   50CHL1  H12A 3658   3.481   4.261   7.357 -0.0452  0.8991 -0.4034
   50CHL1  H12B 3659   3.612   4.218   7.236  0.8419 -3.0752 -0.5905
   50CHL1   C11 3660   3.412   4.138   7.190  0.2004  0.4479  0.3397
   50CHL1  H11A 3661   3.322   4.107   7.246 -0.2005 -3.7513 -2.1686
   50CHL1  H11B 3662   3.396   4.226   7.123  1.4905  0.2517 -0.2635
   50CHL1    C9 3663   3.445   4.009   7.108  0.4480 -0.6789 -0.5799
   50CHL1    H9 3664   3.534   4.043   7.051 -0.7714  0.3439 -1.9304
   50CHL1   C10 3665   3.332   3.978   6.997 -0.1171 -0.3678 -0.4579
   50CHL1   C19 3666   3.198   3.946   7.071  0.3980 -0.7682  0.8227
   50CHL1  H19A 3667   3.123   3.910   6.997  1.7786 -0.7367 -0.6576
   50CHL1  H19B 3668   3.208   3.874   7.155  0.6859  1.1878  2.5319
   50CHL1  H19C 3669   3.167   4.037   7.125  1.2450  1.4657 -2.1654
   50CHL1    C1 3670   3.317   4.098   6.898 -0.0304  0.4244  0.3729
   50CHL1   H1A 3671   3.280   4.185   6.956  0.6762 -0.0043  1.4962
   50CHL1   H1B 3672   3.419   4.131   6.870  0.0807  1.2245  1.6412
   50CHL1    C2 3673   3.228   4.069   6.776  0.3285 -0.2349  0.0735
   50CHL1   H2A 3674   3.218   4.159   6.711  3.0764  0.1757  0.1111
   50CHL1   H2B 3675   3.126   4.033   6.799  0.2875  0.8020  1.6959
   50CHL1   C20 3676   3.678   4.119   7.609  0.2563 -0.5510 -0.6301
   50CHL1   H20 3677   3.595   4.087   7.676  1.0850  1.0328  1.2485
   50CHL1   C21 3678   3.658   4.270   7.575  0.4546  0.1607 -0.0879
   50CHL1  H21A 3679   3.653   4.339   7.661 -2.2210 -1.2642  1.0354
   50CHL1  H21B 3680   3.557   4.285   7.529 -0.1160 -2.1482  0.2805
   50CHL1  H21C 3681   3.740   4.298   7.505  0.9080  2.1398  1.1737
   50CHL1   C22 3682   3.814   4.108   7.686  0.0519 -0.3013 -0.1517
   50CHL1  H22A 3683   3.834   3.999   7.696 -1.4022 -0.6755 -1.0510
   50CHL1  H22B 3684   3.897   4.157   7.630 -0.4117 -0.4604 -0.9884
   50CHL1   C23 3685   3.810   4.161   7.829  0.2056  0.1528 -0.4131
   50CHL1  H23A 3686   3.813   4.272   7.825  0.5403  0.1167 -1.8876
   50CHL1  H23B 3687   3.709   4.142   7.871 -0.5272  3.2323 -0.5501
   50CHL1   C24 3688   3.913   4.097   7.915 -0.0851  0.1499 -0.2005
   50CHL1  H24A 3689   3.889   3.989   7.908 -0.6139  0.0138  2.5714
   50CHL1  H24B 3690   4.018   4.116   7.884  0.3506 -0.3847  0.8659
   50CHL1   C25 3691   3.896   4.127   8.060 -0.3507 -0.3313  0.5288
   50CHL1   H25 3692   3.797   4.093   8.097  0.9971 -1.5112  3.3576
   50CHL1   C26 3693   4.000   4.053   8.144  0.0182  0.0882 -0.3742
   50CHL1  H26A 3694   4.107   4.072   8.121  0.7145 -3.0516 -0.1726
   50CHL1  H26B 3695   3.980   4.067   8.252  0.8603 -1.0067 -0.0575
   50CHL1  H26C 3696   3.987   3.943   8.137  0.0595 -0.0068  0.8923
   50CHL1   C27 3697   3.905   4.281   8.081  0.4658 -0.0344  0.1939
   50CHL1  H27A 3698   3.810   4.319   8.037  0.3937 -1.3036 -0.7982
   50CHL1  H27B 3699   3.893   4.297   8.190  0.0086 -0.9836  0.2913
   50CHL1  H27C 3700   4.001   4.316   8.036  0.6455  1.1855  1.4733
   51CHL1    C3 3701   3.309   2.352   6.602  0.1664 -0.0198  0.0680
   51CHL1    H3 3702   3.380   2.404   6.670  2.2527 -1.4784 -0.8788
   51CHL1    O3 3703   3.344   2.402   6.472 -0.3778  0.1661  0.0623
   51CHL1   H3' 3704   3.318   2.494   6.471 -0.3792  0.1577 -1.0367
   51CHL1    C4 3705   3.328   2.192   6.615  0.2033  0.0537  0.4710
   51CHL1   H4A 3706   3.285   2.138   6.528  2.8781 -3.4236  1.0764
   51CHL1   H4B 3707   3.439   2.179   6.614  0.3756  1.3021  1.1224
   51CHL1    C5 3708   3.281   2.143   6.751  0.8022 -0.6894  0.5841
   51CHL1    C6 3709   3.357   2.060   6.828  0.2111 -0.3587  0.7903
   51CHL1    H6 3710   3.448   2.012   6.789 -0.0529  0.4558 -0.8707
   51CHL1    C7 3711   3.315   2.010   6.964  0.0026 -0.1239  0.5034
   51CHL1   H7A 3712   3.335   1.905   6.994 -1.8190 -0.0715  2.1200
   51CHL1   H7B 3713   3.379   2.069   7.033 -1.6875 -0.1035  2.1289
   51CHL1    C8 3714   3.170   2.053   7.005 -0.4804 -0.1680  0.6449
   51CHL1    H8 3715   3.098   1.979   6.965  0.0239 -2.0152  2.9497
   51CHL1   C14 3716   3.156   2.059   7.157  0.1228  1.1772 -0.8842
   51CHL1   H14 3717   3.221   2.141   7.194  0.1087  0.9931 -0.4441
   51CHL1   C15 3718   3.206   1.943   7.234 -0.1951 -0.2162 -0.1355
   51CHL1  H15A 3719   3.183   1.847   7.185  0.2807 -1.3956  1.8367
   51CHL1  H15B 3720   3.316   1.949   7.251 -0.3844  1.7086  0.7275
   51CHL1   C16 3721   3.136   1.946   7.372  0.0689  0.1547  0.2918
   51CHL1  H16A 3722   3.077   1.853   7.379  1.3912 -0.7323 -0.0653
   51CHL1  H16B 3723   3.205   1.959   7.459  0.9661  2.1583 -0.6416
   51CHL1   C17 3724   3.042   2.067   7.366  0.1601  0.0429  0.4477
   51CHL1   H17 3725   3.086   2.166   7.391 -0.2740 -0.1986  2.3487
   51CHL1   C13 3726   3.022   2.091   7.217  0.2785  0.0623 -0.6222
   51CHL1   C18 3727   2.908   1.996   7.169  0.1145  0.4359  0.0069
   51CHL1  H18A 3728   2.931   1.895   7.209  0.8110  0.5313 -0.1505
   51CHL1  H18B 3729   2.815   2.018   7.226 -1.2345  0.9525 -2.2554
   51CHL1  H18C 3730   2.886   1.985   7.060 -2.2596 -1.8882  0.6028
   51CHL1   C12 3731   2.997   2.235   7.166  0.3278  0.1907  0.1363
   51CHL1  H12A 3732   2.896   2.265   7.201  1.2389  1.8051  1.5672
   51CHL1  H12B 3733   3.061   2.312   7.215  3.1438 -2.9031  1.7501
   51CHL1   C11 3734   2.991   2.244   7.013 -0.9098  0.0747 -0.4196
   51CHL1  H11A 3735   2.926   2.172   6.959  1.6902 -3.2944  0.6384
   51CHL1  H11B 3736   2.973   2.349   6.980  1.6889  0.5949 -0.3508
   51CHL1    C9 3737   3.128   2.194   6.952  0.2197 -0.3181  0.3125
   51CHL1    H9 3738   3.209   2.256   6.994  2.0503 -3.0797  1.1101
   51CHL1   C10 3739   3.146   2.205   6.799 -0.2762 -0.8806  0.4026
   51CHL1   C19 3740   3.027   2.139   6.720 -0.1882 -0.0685 -0.7129
   51CHL1  H19A 3741   3.058   2.107   6.618  1.3011  0.5165 -0.4614
   51CHL1  H19B 3742   2.993   2.047   6.772  1.3394 -0.0174  0.4450
   51CHL1  H19C 3743   2.944   2.213   6.722  0.2444  0.4003  0.7723
   51CHL1    C1 3744   3.137   2.356   6.764  0.7566 -0.6120  0.6876
   51CHL1   H1A 3745   3.029   2.380   6.774  0.4615 -1.8153  0.5380
   51CHL1   H1B 3746   3.201   2.425   6.823 -0.8320  1.9072 -0.3436
   51CHL1    C2 3747   3.167   2.399   6.621  0.2686 -0.1410  0.1598
   51CHL1   H2A 3748   3.146   2.506   6.601 -2.8826 -0.7199 -0.1048
   51CHL1   H2B 3749   3.118   2.340   6.540  1.7907 -1.1537 -0.0723
   51CHL1   C20 3750   2.926   2.056   7.461  0.0250 -0.3009 -0.2856
   51CHL1   H20 3751   2.851   1.976   7.444 -2.3373  0.8701  3.4339
   51CHL1   C21 3752   2.841   2.185   7.463  0.4674  0.4493  0.4893
   51CHL1  H21A 3753   2.777   2.182   7.372 -0.4438 -0.7383  1.1438
   51CHL1  H21B 3754   2.915   2.268   7.459 -0.9162  1.6902 -0.9841
   51CHL1  H21C 3755   2.779   2.191   7.554 -1.1937 -2.3010 -0.3565
   51CHL1   C22 3756   2.975   2.032   7.611 -0.6773 -0.1414 -0.1622
   51CHL1  H22A 3757   3.077   2.073   7.631 -0.8206 -0.3230  1.0083
   51CHL1  H22B 3758   2.910   2.096   7.675 -0.3452 -0.7885  0.8618
   51CHL1   C23 3759   2.972   1.890   7.672  0.0869  0.0877 -0.2129
   51CHL1  H23A 3760   2.864   1.870   7.686  0.1917 -0.0312  0.4706
   51CHL1  H23B 3761   3.011   1.811   7.604 -0.2277 -0.9638  0.7959
   51CHL1   C24 3762   3.054   1.877   7.800  0.1615 -0.2452 -0.1100
   51CHL1  H24A 3763   3.152   1.925   7.780 -0.4248  0.3497 -1.7138
   51CHL1  H24B 3764   2.994   1.944   7.866 -1.5018 -1.3074 -0.4867
   51CHL1   C25 3765   3.072   1.735   7.857  0.0529  0.4164  0.2138
   51CHL1   H25 3766   2.986   1.673   7.821 -1.5630  4.1765 -3.2184
   51CHL1   C26 3767   3.201   1.668   7.810  0.1796  0.7138  0.3335
   51CHL1  H26A 3768   3.287   1.718   7.858  0.6918  0.4257 -0.2717
   51CHL1  H26B 3769   3.193   1.559   7.828 -0.3108  0.7948  0.6334
   51CHL1  H26C 3770   3.211   1.673   7.699 -0.0949  0.3059  0.2866
   51CHL1   C27 3771   3.071   1.752   8.008  0.3303  0.0140 -0.1361
   51CHL1  H27A 3772   2.979   1.809   8.031  0.4012  0.3222 -0.6136
   51CHL1  H27B 3773   3.068   1.653   8.059 -0.8721  0.3429  0.4675
   51CHL1  H27C 3774   3.155   1.813   8.047  0.3083  0.4635 -0.7928
   52CHL1    C3 3775   3.694   4.062   6.563 -0.9505 -0.1303 -0.2358
   52CHL1    H3 3776   3.624   4.143   6.593 -2.1080  0.2428 -3.4866
   52CHL1    O3 3777   3.636   3.997   6.448 -0.3255 -0.1483 -0.8450
   52CHL1   H3' 3778   3.708   3.944   6.413  0.7443  1.7740 -1.6488
   52CHL1    C4 3779   3.835   4.120   6.528 -0.4395  0.7235 -0.0314
   52CHL1   H4A 3780   3.905   4.039   6.501 -1.3820 -0.3894  0.7416
   52CHL1   H4B 3781   3.831   4.191   6.443 -0.3267  0.4722 -0.2484
   52CHL1    C5 3782   3.880   4.197   6.654 -1.1250 -0.8468 -0.1497
   52CHL1    C6 3783   3.883   4.333   6.662  0.2830  1.0752  0.5933
   52CHL1    H6 3784   3.860   4.388   6.570  0.0480 -1.6026 -1.0750
   52CHL1    C7 3785   3.916   4.390   6.791 -1.0381 -0.3350 -0.0785
   52CHL1   H7A 3786   3.985   4.473   6.762 -1.5017  0.6550  1.5105
   52CHL1   H7B 3787   3.833   4.441   6.845 -0.0192  0.8251  0.4446
   52CHL1    C8 3788   3.986   4.298   6.892 -0.9319 -0.8972 -0.1211
   52CHL1    H8 3789   4.091   4.276   6.862 -0.6368  1.4479 -1.0730
   52CHL1   C14 3790   3.997   4.376   7.029  0.4172 -0.0322  0.2914
   52CHL1   H14 3791   3.890   4.387   7.058 -0.2879  0.5110 -2.2615
   52CHL1   C15 3792   4.061   4.513   7.032 -0.3612  0.1525  0.0562
   52CHL1  H15A 3793   4.164   4.512   6.990 -0.9093  1.2455 -1.3932
   52CHL1  H15B 3794   4.006   4.599   6.989  0.6964  0.8199  0.0230
   52CHL1   C16 3795   4.070   4.539   7.184  0.1342 -0.3253 -0.1476
   52CHL1  H16A 3796   4.175   4.571   7.204  0.5069 -1.1461 -0.6862
   52CHL1  H16B 3797   3.998   4.617   7.214  0.4581 -0.1959  0.2937
   52CHL1   C17 3798   4.045   4.408   7.257 -0.0238 -0.0479  0.2856
   52CHL1   H17 3799   3.940   4.422   7.290  0.0431  0.7490  0.1835
   52CHL1   C13 3800   4.055   4.304   7.147 -0.1199 -0.4285 -0.0076
   52CHL1   C18 3801   4.203   4.262   7.116  0.3979  0.3247  0.0983
   52CHL1  H18A 3802   4.236   4.186   7.190  2.5837 -1.7871 -2.8215
   52CHL1  H18B 3803   4.214   4.224   7.012  0.8879  3.5607 -1.1496
   52CHL1  H18C 3804   4.269   4.351   7.123  1.3896  0.0570 -3.7137
   52CHL1   C12 3805   3.961   4.179   7.161 -0.3588  0.2296  0.3915
   52CHL1  H12A 3806   4.009   4.111   7.235  0.1328  0.4495  0.2751
   52CHL1  H12B 3807   3.867   4.210   7.211 -0.7790  2.1402 -1.4619
   52CHL1   C11 3808   3.945   4.097   7.033 -0.5836  0.3287 -0.4241
   52CHL1  H11A 3809   4.041   4.054   6.999 -0.0437  1.3782 -0.2592
   52CHL1  H11B 3810   3.867   4.019   7.051 -0.7933  0.8637  1.1534
   52CHL1    C9 3811   3.903   4.177   6.911 -0.8176  0.1648 -0.6679
   52CHL1    H9 3812   3.805   4.210   6.950  1.1459  2.5703  2.8327
   52CHL1   C10 3813   3.892   4.101   6.781  0.5160 -0.6003  0.2557
   52CHL1   C19 3814   4.025   4.029   6.739 -0.3588 -0.6655 -0.1004
   52CHL1  H19A 3815   3.997   3.943   6.675  1.0128 -2.1080  1.1847
   52CHL1  H19B 3816   4.102   4.090   6.687 -1.8842  0.9801 -0.5360
   52CHL1  H19C 3817   4.072   3.971   6.821  0.7260 -0.9574 -0.9095
   52CHL1    C1 3818   3.766   4.013   6.794  0.1014  0.1331  0.0682
   52CHL1   H1A 3819   3.789   3.924   6.856  1.7548 -0.1809 -0.9280
   52CHL1   H1B 3820   3.686   4.073   6.844 -0.5597 -2.4218  2.3210
   52CHL1    C2 3821   3.701   3.963   6.671  0.6112 -0.0421 -0.1934
   52CHL1   H2A 3822   3.596   3.939   6.701  0.2362  1.6950 -0.0493
   52CHL1   H2B 3823   3.750   3.867   6.643 -0.2429 -1.1238  1.8255
   52CHL1   C20 3824   4.132   4.378   7.380  0.3038 -0.2328 -0.4831
   52CHL1   H20 3825   4.238   4.365   7.351  0.5773  1.3208 -0.2209
   52CHL1   C21 3826   4.084   4.240   7.452 -0.4795 -0.7075  0.0233
   52CHL1  H21A 3827   4.133   4.146   7.419  1.8169 -0.2336  1.7755
   52CHL1  H21B 3828   3.973   4.236   7.449 -0.6081  1.2314  0.6363
   52CHL1  H21C 3829   4.123   4.232   7.556 -0.5281 -2.6711 -0.0770
   52CHL1   C22 3830   4.131   4.488   7.486 -0.7372  0.5271  0.1884
   52CHL1  H22A 3831   4.204   4.455   7.563  0.4613  0.9964 -0.7192
   52CHL1  H22B 3832   4.183   4.576   7.443 -2.0586  1.1236 -0.2185
   52CHL1   C23 3833   3.992   4.533   7.533  0.3769  0.0006 -0.7712
   52CHL1  H23A 3834   3.928   4.571   7.450  1.3990  0.7026 -1.2530
   52CHL1  H23B 3835   3.937   4.446   7.573  1.2844  0.1265  0.8269
   52CHL1   C24 3836   4.000   4.654   7.629  0.4408  0.6904  0.4112
   52CHL1  H24A 3837   4.086   4.632   7.696  0.7901 -2.3691 -0.8518
   52CHL1  H24B 3838   4.013   4.748   7.571 -1.6803 -0.4342 -2.0994
   52CHL1   C25 3839   3.879   4.664   7.724 -0.3537  0.3046 -0.2205
   52CHL1   H25 3840   3.887   4.760   7.779 -2.1889  0.2681  0.1784
   52CHL1   C26 3841   3.744   4.669   7.649  0.1777  0.2538  0.2586
   52CHL1  H26A 3842   3.666   4.695   7.724 -1.2781  1.1967 -1.5185
   52CHL1  H26B 3843   3.750   4.749   7.572 -1.3674 -0.3675 -0.5290
   52CHL1  H26C 3844   3.711   4.570   7.612 -0.1053  0.2989  0.3830
   52CHL1   C27 3845   3.883   4.549   7.826 -0.2953  0.4801  0.3977
   52CHL1  H27A 3846   3.874   4.453   7.771  1.2845  0.4242  0.1897
   52CHL1  H27B 3847   3.976   4.549   7.887  0.0736 -1.9264 -0.0805
   52CHL1  H27C 3848   3.793   4.556   7.892 -1.0926 -1.7041 -0.3845
   53CHL1    C3 3849   1.393   5.839   6.365  1.1647  0.2457 -0.0992
   53CHL1    H3 3850   1.501   5.840   6.391  0.7451 -0.6063  1.8435
   53CHL1    O3 3851   1.364   5.859   6.226  0.0852  0.6551  0.0959
   53CHL1   H3' 3852   1.274   5.892   6.217 -0.1981 -0.2438 -0.5116
   53CHL1    C4 3853   1.320   5.717   6.420 -0.6140  0.3073  0.2031
   53CHL1   H4A 3854   1.221   5.688   6.379  0.5297 -2.4048 -0.8683
   53CHL1   H4B 3855   1.379   5.639   6.369  1.1644  1.3041  0.6565
   53CHL1    C5 3856   1.349   5.692   6.571 -0.5064 -0.7987  0.1521
   53CHL1    C6 3857   1.392   5.576   6.627 -0.4677 -0.2395  0.4635
   53CHL1    H6 3858   1.433   5.505   6.554  0.1644  3.5870 -3.2598
   53CHL1    C7 3859   1.409   5.546   6.769 -0.0371  0.2444 -0.0211
   53CHL1   H7A 3860   1.384   5.445   6.808 -1.0928  0.1387 -0.9346
   53CHL1   H7B 3861   1.516   5.570   6.791 -0.1913  0.9406  0.0019
   53CHL1    C8 3862   1.350   5.656   6.867 -0.2553  0.1586  0.5784
   53CHL1    H8 3863   1.244   5.639   6.896 -0.1596  2.0982  2.3828
   53CHL1   C14 3864   1.426   5.673   7.004 -0.4185 -0.3493 -0.1907
   53CHL1   H14 3865   1.521   5.722   6.974 -0.8372 -0.4039 -1.7095
   53CHL1   C15 3866   1.474   5.553   7.074  0.6443  0.3933  0.6000
   53CHL1  H15A 3867   1.397   5.473   7.084 -0.7174  1.6466  0.4944
   53CHL1  H15B 3868   1.562   5.513   7.019 -0.2259  0.9281 -1.2566
   53CHL1   C16 3869   1.508   5.604   7.214  0.0699 -0.5368  0.2389
   53CHL1  H16A 3870   1.443   5.543   7.280  0.0666 -0.1301  0.6083
   53CHL1  H16B 3871   1.618   5.606   7.234  0.2238  1.1057 -0.6156
   53CHL1   C17 3872   1.458   5.751   7.224 -0.2589 -0.2298  0.1089
   53CHL1   H17 3873   1.541   5.823   7.204 -2.1188  1.5808 -1.5436
   53CHL1   C13 3874   1.362   5.766   7.103 -0.0820  0.4413  0.2812
   53CHL1   C18 3875   1.223   5.715   7.137  0.5384 -0.5501 -0.5327
   53CHL1  H18A 3876   1.151   5.727   7.053 -0.7736  1.4677  0.7899
   53CHL1  H18B 3877   1.217   5.609   7.172 -0.5318 -0.0863  0.7925
   53CHL1  H18C 3878   1.172   5.781   7.211  0.5915  0.1214 -1.0822
   53CHL1   C12 3879   1.344   5.911   7.037  0.3404  0.4651  0.4129
   53CHL1  H12A 3880   1.284   5.984   7.096  0.3362 -0.0464  1.0695
   53CHL1  H12B 3881   1.449   5.943   7.025  0.2734  0.2791 -0.7123
   53CHL1   C11 3882   1.277   5.900   6.889 -0.6928 -0.0185 -0.6116
   53CHL1  H11A 3883   1.167   5.881   6.895 -0.9994  1.6452 -0.5035
   53CHL1  H11B 3884   1.281   6.004   6.850  1.6503 -0.2537 -1.1394
   53CHL1    C9 3885   1.346   5.797   6.799 -0.0501  0.3011  0.1842
   53CHL1    H9 3886   1.454   5.825   6.790 -0.5218  2.1082 -0.2540
   53CHL1   C10 3887   1.308   5.809   6.652 -0.5556 -0.1086 -0.3953
   53CHL1   C19 3888   1.147   5.803   6.635 -0.4595 -1.3750  0.1109
   53CHL1  H19A 3889   1.116   5.820   6.530 -2.2298 -0.2477  0.7818
   53CHL1  H19B 3890   1.110   5.706   6.675 -0.8282 -2.0107 -1.6662
   53CHL1  H19C 3891   1.098   5.886   6.689 -0.0543 -1.3666  0.4724
   53CHL1    C1 3892   1.355   5.946   6.590 -0.1304  0.1423 -0.1032
   53CHL1   H1A 3893   1.295   6.028   6.636 -0.5234 -0.1011 -0.1800
   53CHL1   H1B 3894   1.458   5.954   6.632 -1.2910 -0.7054  3.2714
   53CHL1    C2 3895   1.340   5.969   6.434 -0.0794 -0.4985 -0.0358
   53CHL1   H2A 3896   1.385   6.064   6.399 -1.6271  0.2233 -0.1143
   53CHL1   H2B 3897   1.231   5.981   6.418  0.3502  2.1296 -1.5171
   53CHL1   C20 3898   1.402   5.779   7.363 -0.6399  0.1240 -1.3003
   53CHL1   H20 3899   1.305   5.726   7.372 -0.7740  0.4427 -0.8172
   53CHL1   C21 3900   1.359   5.931   7.360  0.4390  1.0348 -0.4096
   53CHL1  H21A 3901   1.283   5.947   7.281 -1.5453 -0.8946  1.0082
   53CHL1  H21B 3902   1.444   6.001   7.340  0.2412  2.2238  2.3979
   53CHL1  H21C 3903   1.327   5.963   7.461  2.3850 -1.9581  1.3073
   53CHL1   C22 3904   1.490   5.757   7.487  0.0921  0.8669 -0.5963
   53CHL1  H22A 3905   1.537   5.657   7.470 -2.6783 -1.0081  1.7846
   53CHL1  H22B 3906   1.583   5.817   7.495 -0.5277  1.7296  0.3318
   53CHL1   C23 3907   1.411   5.772   7.627  0.0099 -0.0241  0.3972
   53CHL1  H23A 3908   1.358   5.870   7.629  2.4939  1.3977  0.7942
   53CHL1  H23B 3909   1.346   5.683   7.635 -0.5368  0.3552  0.2210
   53CHL1   C24 3910   1.515   5.770   7.737 -0.4374  0.1955  0.0862
   53CHL1  H24A 3911   1.575   5.676   7.743 -1.2041 -0.2969  0.2675
   53CHL1  H24B 3912   1.587   5.848   7.705 -0.0296  0.1001  0.7448
   53CHL1   C25 3913   1.460   5.821   7.875 -0.4098  0.1268 -0.0036
   53CHL1   H25 3914   1.428   5.927   7.864  0.0876  0.4612  1.5623
   53CHL1   C26 3915   1.343   5.731   7.922  0.4361  0.0057 -0.1796
   53CHL1  H26A 3916   1.278   5.685   7.845 -2.3065  0.6694  1.5687
   53CHL1  H26B 3917   1.389   5.644   7.973  0.2310 -0.7125 -1.1989
   53CHL1  H26C 3918   1.269   5.776   7.993 -0.1978 -0.2023 -0.6995
   53CHL1   C27 3919   1.571   5.827   7.991 -0.4504 -0.3714  0.3291
   53CHL1  H27A 3920   1.605   5.726   8.021 -0.0803 -0.4837 -0.4579
   53CHL1  H27B 3921   1.656   5.890   7.959  1.0007 -1.3865  2.0522
   53CHL1  H27C 3922   1.519   5.877   8.076  0.2651  0.6250  0.1899
   54CHL1    C3 3923   1.857   0.180   6.343 -0.1175  0.2292 -0.2003
   54CHL1    H3 3924   1.847   0.076   6.380 -0.8205  0.8814  1.5843
   54CHL1    O3 3925   1.868   0.206   6.204  0.1109 -0.2883 -0.3460
   54CHL1   H3' 3926   1.859   0.301   6.199 -1.0043 -0.3279  0.4492
   54CHL1    C4 3927   1.738   0.255   6.394 -0.0801 -0.5532 -0.5750
   54CHL1   H4A 3928   1.744   0.362   6.362 -0.6798 -0.2811  0.1875
   54CHL1   H4B 3929   1.642   0.219   6.352  0.0141  0.4709 -1.7334
   54CHL1    C5 3930   1.724   0.252   6.545  0.4964  0.1176  0.5636
   54CHL1    C6 3931   1.608   0.208   6.607 -0.3435  0.6456 -0.6851
   54CHL1    H6 3932   1.526   0.184   6.538 -0.5739  4.4170 -1.9663
   54CHL1    C7 3933   1.575   0.202   6.758  0.6372 -0.2388 -0.7681
   54CHL1   H7A 3934   1.473   0.239   6.779  0.5384  0.1512 -1.8693
   54CHL1   H7B 3935   1.574   0.096   6.791 -0.2345 -0.7451 -2.3070
   54CHL1    C8 3936   1.685   0.275   6.837 -0.0959 -0.1184  0.0514
   54CHL1    H8 3937   1.663   0.383   6.823 -0.5217 -0.2764 -0.5349
   54CHL1   C14 3938   1.680   0.225   6.984  0.2915 -0.5255 -0.3126
   54CHL1   H14 3939   1.705   0.117   6.979  1.8598 -0.1731 -0.6640
   54CHL1   C15 3940   1.542   0.229   7.047 -0.1958  0.2194  0.3019
   54CHL1  H15A 3941   1.496   0.327   7.024 -0.3447  0.2591  0.7643
   54CHL1  H15B 3942   1.475   0.152   7.003  0.2094 -0.1761  0.3675
   54CHL1   C16 3943   1.574   0.215   7.200  0.7292 -0.5889 -0.4125
   54CHL1  H16A 3944   1.536   0.301   7.257 -0.7109 -2.8638  2.2991
   54CHL1  H16B 3945   1.537   0.117   7.238 -0.3127 -1.0171 -2.3928
   54CHL1   C17 3946   1.736   0.224   7.207  0.2931 -0.1692  0.1564
   54CHL1   H17 3947   1.775   0.121   7.197 -1.0201 -0.5438 -1.5030
   54CHL1   C13 3948   1.779   0.288   7.078  0.3563  0.0525 -0.4083
   54CHL1   C18 3949   1.759   0.444   7.090  0.2753  0.2156 -0.3972
   54CHL1  H18A 3950   1.656   0.472   7.121  0.1628  1.2197 -1.6019
   54CHL1  H18B 3951   1.846   0.484   7.147  0.6382 -0.9556 -0.1036
   54CHL1  H18C 3952   1.775   0.500   6.995 -0.4324  1.3824  0.1444
   54CHL1   C12 3953   1.926   0.258   7.021  0.5108  0.2012 -0.0860
   54CHL1  H12A 3954   2.012   0.311   7.066  2.0027 -0.7067 -1.7677
   54CHL1  H12B 3955   1.941   0.149   7.035  2.6358  0.6503  1.5177
   54CHL1   C11 3956   1.930   0.308   6.875  0.3779  0.2480  0.2452
   54CHL1  H11A 3957   1.924   0.418   6.873 -1.0359  0.1785 -0.0134
   54CHL1  H11B 3958   2.034   0.284   6.842 -0.2585  0.6757 -2.2360
   54CHL1    C9 3959   1.829   0.248   6.780  0.3064 -0.4591 -0.9447
   54CHL1    H9 3960   1.844   0.138   6.790 -0.8448 -0.6006 -0.6282
   54CHL1   C10 3961   1.844   0.288   6.631 -0.1257 -0.0587 -0.6547
   54CHL1   C19 3962   1.866   0.441   6.619  0.2065 -1.0635 -0.3470
   54CHL1  H19A 3963   1.969   0.474   6.643  0.2887 -0.0233 -1.9636
   54CHL1  H19B 3964   1.837   0.480   6.519  0.1698 -0.7291 -0.2053
   54CHL1  H19C 3965   1.800   0.495   6.690 -0.4465  2.0028 -3.0756
   54CHL1    C1 3966   1.972   0.225   6.567 -0.2579  0.3175 -0.2366
   54CHL1   H1A 3967   2.061   0.273   6.614 -0.5431  0.8185 -0.1944
   54CHL1   H1B 3968   1.973   0.115   6.580  1.2962  0.2990 -0.3218
   54CHL1    C2 3969   1.981   0.239   6.414  0.7344 -0.5996 -0.2590
   54CHL1   H2A 3970   2.073   0.190   6.376  1.2067 -0.9371  1.2410
   54CHL1   H2B 3971   1.998   0.345   6.386  3.6191 -1.1251 -0.8309
   54CHL1   C20 3972   1.784   0.270   7.341 -0.2538 -0.4101 -0.5742
   54CHL1   H20 3973   1.759   0.378   7.346  0.3903 -0.2998  0.5749
   54CHL1   C21 3974   1.933   0.264   7.354 -0.5198 -0.5539  0.0018
   54CHL1  H21A 3975   1.973   0.298   7.452  1.7350 -0.3298 -0.9408
   54CHL1  H21B 3976   1.996   0.338   7.299  0.4695  0.0660  1.8950
   54CHL1  H21C 3977   1.984   0.168   7.333  0.5002  0.3460 -2.0004
   54CHL1   C22 3978   1.704   0.208   7.460  0.4498  0.3391  0.1392
   54CHL1  H22A 3979   1.594   0.218   7.446  0.4982  2.2313  0.8630
   54CHL1  H22B 3980   1.725   0.099   7.464 -2.5641 -0.3079  0.6057
   54CHL1   C23 3981   1.726   0.279   7.598 -0.6070 -0.2980  0.4297
   54CHL1  H23A 3982   1.828   0.323   7.606  0.2474 -1.7701 -1.5914
   54CHL1  H23B 3983   1.662   0.370   7.606  0.5267  0.8418 -2.3229
   54CHL1   C24 3984   1.688   0.185   7.703 -0.0450  0.4923 -0.3739
   54CHL1  H24A 3985   1.581   0.158   7.694  0.2480 -0.7777 -0.2679
   54CHL1  H24B 3986   1.746   0.091   7.687 -0.6759  0.1582 -0.7632
   54CHL1   C25 3987   1.726   0.241   7.843  0.8197  0.6430  0.2092
   54CHL1   H25 3988   1.834   0.232   7.865  0.4651  0.9568  2.2889
   54CHL1   C26 3989   1.679   0.393   7.874  0.6539  0.5740 -0.4506
   54CHL1  H26A 3990   1.734   0.467   7.813  0.1097 -0.0764 -1.7638
   54CHL1  H26B 3991   1.570   0.392   7.855  0.3819 -0.9318  0.9276
   54CHL1  H26C 3992   1.695   0.415   7.982  1.8719 -0.2543 -0.4380
   54CHL1   C27 3993   1.663   0.154   7.953  0.0271 -0.0281 -0.0995
   54CHL1  H27A 3994   1.552   0.162   7.952  0.0843  1.0163  0.5017
   54CHL1  H27B 3995   1.697   0.050   7.933 -0.7286 -0.3913  0.4372
   54CHL1  H27C 3996   1.706   0.185   8.051 -1.4809 -2.3595  1.4073
   55CHL1    C3 3997   1.212   4.707   6.558 -0.4730 -0.0801  0.5185
   55CHL1    H3 3998   1.268   4.613   6.542 -0.9428 -0.1730 -0.6942
   55CHL1    O3 3999   1.197   4.749   6.422 -0.0935 -0.1184  0.6700
   55CHL1   H3' 4000   1.155   4.676   6.375  0.8612 -1.1975  1.4198
   55CHL1    C4 4001   1.076   4.689   6.620  0.4187 -0.1451 -0.4434
   55CHL1   H4A 4002   1.029   4.789   6.601 -0.3895 -0.5170 -0.4385
   55CHL1   H4B 4003   1.008   4.620   6.567  0.8978  0.3582 -1.7560
   55CHL1    C5 4004   1.094   4.658   6.769  0.3026 -0.0821 -0.1433
   55CHL1    C6 4005   1.033   4.547   6.809 -0.3400 -0.5057  0.0922
   55CHL1    H6 4006   0.969   4.483   6.747  0.9119 -3.0679  1.2842
   55CHL1    C7 4007   1.031   4.503   6.957 -0.4561 -0.5349  0.2459
   55CHL1   H7A 4008   0.923   4.488   6.979 -0.5634  0.6938  0.6767
   55CHL1   H7B 4009   1.086   4.407   6.956 -1.3869 -1.1035 -1.7661
   55CHL1    C8 4010   1.093   4.614   7.046  0.5956 -0.0723 -0.2888
   55CHL1    H8 4011   1.010   4.687   7.061  1.2522  0.8858 -1.1707
   55CHL1   C14 4012   1.136   4.545   7.176  0.3575  0.4093  0.0806
   55CHL1   H14 4013   1.213   4.471   7.145 -1.1712 -0.8909 -0.7523
   55CHL1   C15 4014   1.035   4.458   7.247 -0.8501 -0.4436  0.3632
   55CHL1  H15A 4015   0.946   4.524   7.248  1.8255  3.9048 -4.1923
   55CHL1  H15B 4016   1.014   4.360   7.199 -1.1104  0.0654 -0.5762
   55CHL1   C16 4017   1.098   4.451   7.387  0.2510 -0.0193 -0.0008
   55CHL1  H16A 4018   1.026   4.458   7.471  0.7995 -1.7903  0.6761
   55CHL1  H16B 4019   1.137   4.347   7.382 -1.4265 -0.6672 -0.1224
   55CHL1   C17 4020   1.210   4.553   7.402 -0.2083  0.0064 -0.8339
   55CHL1   H17 4021   1.302   4.493   7.385 -0.4288 -0.3056 -0.9372
   55CHL1   C13 4022   1.195   4.643   7.278 -0.2510  0.0426 -0.6637
   55CHL1   C18 4023   1.092   4.755   7.309  0.2314  0.2234  0.1775
   55CHL1  H18A 4024   1.063   4.816   7.220 -0.7906 -1.1497 -0.4714
   55CHL1  H18B 4025   0.997   4.707   7.342 -0.6298 -1.7724 -4.3153
   55CHL1  H18C 4026   1.131   4.831   7.379 -0.1153  1.0256 -0.4761
   55CHL1   C12 4027   1.326   4.694   7.211 -0.0159  0.8741 -0.0229
   55CHL1  H12A 4028   1.391   4.751   7.281  2.1715  1.2729 -2.2534
   55CHL1  H12B 4029   1.377   4.599   7.186  0.7145  0.4125  2.8720
   55CHL1   C11 4030   1.291   4.772   7.083 -0.0126  0.4364  0.2579
   55CHL1  H11A 4031   1.242   4.867   7.113 -1.3724  0.1296 -0.9121
   55CHL1  H11B 4032   1.382   4.806   7.029 -3.9676  0.0563 -8.3207
   55CHL1    C9 4033   1.216   4.685   6.985  0.0278  0.7414 -0.6432
   55CHL1    H9 4034   1.285   4.601   6.961 -0.3227  0.2787 -0.0609
   55CHL1   C10 4035   1.178   4.754   6.851  0.1962 -0.2834 -0.4237
   55CHL1   C19 4036   1.095   4.882   6.881 -0.7120  0.2882 -0.1650
   55CHL1  H19A 4037   1.148   4.950   6.952  0.6310  0.0075 -0.8819
   55CHL1  H19B 4038   1.058   4.935   6.791  1.3349  2.6086  0.2567
   55CHL1  H19C 4039   1.012   4.848   6.947  0.0857  0.0482  0.7420
   55CHL1    C1 4040   1.306   4.786   6.776  0.2574  1.0395 -0.3364
   55CHL1   H1A 4041   1.344   4.879   6.824 -0.8357  1.3993 -0.1372
   55CHL1   H1B 4042   1.378   4.702   6.785  1.3050  1.9348 -0.1622
   55CHL1    C2 4043   1.293   4.812   6.623 -0.1542 -0.6174 -0.2511
   55CHL1   H2A 4044   1.397   4.809   6.585  0.0834 -2.9179  0.3988
   55CHL1   H2B 4045   1.248   4.910   6.597  0.2374 -0.5088 -0.5133
   55CHL1   C20 4046   1.233   4.619   7.537  0.3439  0.2510 -0.3154
   55CHL1   H20 4047   1.147   4.681   7.567  0.4975 -0.9065  2.9302
   55CHL1   C21 4048   1.354   4.715   7.554 -0.3669 -0.0368 -0.0294
   55CHL1  H21A 4049   1.446   4.673   7.509 -0.3398  0.0341 -0.0403
   55CHL1  H21B 4050   1.372   4.750   7.658  0.4772 -0.9015  0.1295
   55CHL1  H21C 4051   1.340   4.811   7.501 -2.6671 -0.0113  0.4901
   55CHL1   C22 4052   1.250   4.495   7.635 -0.0212  0.0555 -0.1574
   55CHL1  H22A 4053   1.154   4.443   7.655  1.3575 -1.1413  4.5907
   55CHL1  H22B 4054   1.320   4.417   7.599 -0.9744 -1.1765  0.5489
   55CHL1   C23 4055   1.299   4.537   7.777 -0.6617 -0.0776  0.4485
   55CHL1  H23A 4056   1.405   4.570   7.766 -0.8663 -0.0802 -1.9126
   55CHL1  H23B 4057   1.253   4.630   7.815  0.8325  0.2525  1.5637
   55CHL1   C24 4058   1.290   4.420   7.879 -0.5769  0.0001 -0.2544
   55CHL1  H24A 4059   1.183   4.389   7.878  0.2687 -3.3518 -0.9364
   55CHL1  H24B 4060   1.347   4.328   7.854 -1.2325 -0.6460  0.5815
   55CHL1   C25 4061   1.329   4.470   8.020  0.2678  0.9596 -0.5227
   55CHL1   H25 4062   1.326   4.581   8.025  3.7227  1.1183  1.3391
   55CHL1   C26 4063   1.243   4.406   8.131 -0.7360  0.0871 -0.4026
   55CHL1  H26A 4064   1.263   4.465   8.223  2.4769  1.6312 -1.9285
   55CHL1  H26B 4065   1.135   4.405   8.106 -0.5022 -2.2740 -1.6766
   55CHL1  H26C 4066   1.259   4.298   8.152 -2.3467 -0.3015 -1.0482
   55CHL1   C27 4067   1.473   4.430   8.054 -0.2211 -0.2319 -0.1085
   55CHL1  H27A 4068   1.515   4.470   8.149 -1.3523  0.0158  0.2979
   55CHL1  H27B 4069   1.476   4.319   8.053 -1.1940 -0.2736  0.3788
   55CHL1  H27C 4070   1.535   4.465   7.969 -1.0995 -0.1895 -0.7462
   56CHL1    C3 4071   1.744   5.564   6.515  0.0080  0.1149 -0.1722
   56CHL1    H3 4072   1.637   5.566   6.547 -0.4692  0.9816 -1.6935
   56CHL1    O3 4073   1.732   5.536   6.380 -0.4244 -0.1403 -0.3268
   56CHL1   H3' 4074   1.656   5.481   6.362 -1.0769  1.3963 -2.8706
   56CHL1    C4 4075   1.807   5.709   6.554 -0.4380  1.0156  0.5163
   56CHL1   H4A 4076   1.912   5.703   6.517 -0.3838 -0.3034  0.8298
   56CHL1   H4B 4077   1.750   5.785   6.496 -1.3966 -0.3692 -0.4325
   56CHL1    C5 4078   1.808   5.737   6.698 -0.1826  0.6086  0.0548
   56CHL1    C6 4079   1.746   5.839   6.757  0.0906 -0.1805 -0.2021
   56CHL1    H6 4080   1.700   5.908   6.684 -1.2566 -2.3551 -1.5448
   56CHL1    C7 4081   1.781   5.872   6.896  0.4673  0.3830 -0.3365
   56CHL1   H7A 4082   1.819   5.976   6.900 -2.8329  1.7014  0.5138
   56CHL1   H7B 4083   1.690   5.874   6.960  0.7670  0.6105  0.0857
   56CHL1    C8 4084   1.877   5.788   6.978  0.3035  0.0886 -0.4292
   56CHL1    H8 4085   1.979   5.823   6.953  0.7076 -1.0742 -0.4897
   56CHL1   C14 4086   1.844   5.790   7.126  0.0557 -1.2391  0.5417
   56CHL1   H14 4087   1.743   5.746   7.139  0.3504 -3.0895 -2.3957
   56CHL1   C15 4088   1.831   5.928   7.196 -0.1127 -0.0468  0.4701
   56CHL1  H15A 4089   1.913   5.988   7.152  0.7911 -1.9942 -0.5960
   56CHL1  H15B 4090   1.729   5.971   7.187 -0.9180 -2.2720 -2.0440
   56CHL1   C16 4091   1.865   5.899   7.345  0.6127  0.3753  0.7115
   56CHL1  H16A 4092   1.959   5.951   7.372  0.9649  0.5121 -0.7213
   56CHL1  H16B 4093   1.784   5.924   7.417 -0.2328  0.9032 -0.4035
   56CHL1   C17 4094   1.898   5.749   7.354  0.8013 -0.6475  0.6421
   56CHL1   H17 4095   1.798   5.704   7.369 -0.5266  1.1007 -2.0177
   56CHL1   C13 4096   1.938   5.709   7.212  0.2909 -0.2511  1.0737
   56CHL1   C18 4097   2.086   5.754   7.195 -0.0296  0.0678  0.6478
   56CHL1  H18A 4098   2.161   5.701   7.258 -0.0666  0.8487  1.3527
   56CHL1  H18B 4099   2.110   5.734   7.088 -0.7791  1.3389  0.2351
   56CHL1  H18C 4100   2.091   5.864   7.189 -1.0635  0.0325 -3.1895
   56CHL1   C12 4101   1.925   5.562   7.171  1.0982 -0.7821  0.0130
   56CHL1  H12A 4102   2.003   5.502   7.221  1.8576  1.6834  2.0166
   56CHL1  H12B 4103   1.822   5.528   7.195  0.5840  1.1120  0.6772
   56CHL1   C11 4104   1.946   5.536   7.017 -0.3717  0.4985  0.8818
   56CHL1  H11A 4105   2.056   5.543   7.008 -0.3112  0.0937  1.2712
   56CHL1  H11B 4106   1.924   5.436   6.976  1.0446  0.7996 -0.7275
   56CHL1    C9 4107   1.868   5.642   6.934  0.3925 -0.7396 -0.0667
   56CHL1    H9 4108   1.760   5.620   6.952 -0.0829 -0.0301 -1.8689
   56CHL1   C10 4109   1.883   5.628   6.784  0.0859  0.1903 -0.0815
   56CHL1   C19 4110   2.029   5.624   6.732 -0.1698  0.1415 -0.0631
   56CHL1  H19A 4111   2.079   5.722   6.747  0.7847 -0.3448 -0.0149
   56CHL1  H19B 4112   2.091   5.552   6.790  0.2422  0.7868  0.2997
   56CHL1  H19C 4113   2.041   5.581   6.630  0.0391 -0.8313  0.3540
   56CHL1    C1 4114   1.819   5.490   6.742  0.5840 -0.2805 -0.0537
   56CHL1   H1A 4115   1.867   5.403   6.793  1.9710 -0.6880 -1.9397
   56CHL1   H1B 4116   1.712   5.490   6.773  0.8093 -1.2145  0.7899
   56CHL1    C2 4117   1.816   5.452   6.589 -0.1350  0.1715  0.3544
   56CHL1   H2A 4118   1.763   5.355   6.573 -3.0097  1.6718  0.1612
   56CHL1   H2B 4119   1.921   5.440   6.556  0.2796 -1.3703  2.0177
   56CHL1   C20 4120   1.987   5.707   7.473 -0.4253  0.2162  0.0202
   56CHL1   H20 4121   2.083   5.762   7.466  1.4350 -2.8873 -0.3463
   56CHL1   C21 4122   2.028   5.553   7.468  0.1285 -0.2857 -0.4228
   56CHL1  H21A 4123   2.095   5.544   7.380  1.7722  1.0046  0.6513
   56CHL1  H21B 4124   1.936   5.491   7.459 -1.8895  2.7112 -2.0259
   56CHL1  H21C 4125   2.094   5.525   7.553  0.0948 -1.4516 -0.7559
   56CHL1   C22 4126   1.927   5.752   7.617 -0.2542 -0.0549 -0.6792
   56CHL1  H22A 4127   1.864   5.843   7.618 -0.1304  0.1092  2.4652
   56CHL1  H22B 4128   1.859   5.670   7.649 -1.8831  2.1881  2.0750
   56CHL1   C23 4129   2.040   5.779   7.729 -0.2821 -0.2326  0.5845
   56CHL1  H23A 4130   1.976   5.772   7.819  0.0451 -2.2959  0.7015
   56CHL1  H23B 4131   2.123   5.705   7.730  0.7475  0.8955  1.8306
   56CHL1   C24 4132   2.097   5.927   7.726  0.4395  0.6374 -0.1677
   56CHL1  H24A 4133   2.161   5.952   7.639  1.6326 -0.1990  0.4525
   56CHL1  H24B 4134   2.013   6.001   7.727  2.4138  3.1238  3.1210
   56CHL1   C25 4135   2.186   5.957   7.848 -0.5685 -0.4895 -0.2654
   56CHL1   H25 4136   2.258   5.872   7.856 -1.6731 -1.3972  0.3455
   56CHL1   C26 4137   2.272   6.082   7.825 -0.5431  0.6431 -0.5794
   56CHL1  H26A 4138   2.209   6.168   7.792 -1.5710  0.0199 -0.2818
   56CHL1  H26B 4139   2.344   6.068   7.741 -1.0848 -0.5475 -0.8738
   56CHL1  H26C 4140   2.326   6.117   7.915  0.8462  0.4316 -1.3010
   56CHL1   C27 4141   2.102   5.971   7.980 -0.1701  0.2117 -0.2768
   56CHL1  H27A 4142   2.177   6.001   8.056 -0.1686  0.1122 -0.2401
   56CHL1  H27B 4143   2.035   6.060   7.973  1.7823  1.7556 -0.3557
   56CHL1  H27C 4144   2.034   5.886   8.003  0.6452 -0.2435  0.4808
   57SAPC     N 4145   4.026   2.791  10.533  0.0013  0.1827  0.2264
   57SAPC   C12 4146   3.989   2.808  10.384  0.1882  0.0023  0.6275
   57SAPC  H12A 4147   4.008   2.906  10.344 -0.6674 -0.2254 -0.3836
   57SAPC  H12B 4148   3.881   2.810  10.371  0.3549  0.5772 -0.8865
   57SAPC   C13 4149   3.954   2.902  10.612 -0.7546  0.0327  0.1546
   57SAPC  H13A 4150   3.964   2.894  10.719  0.4870  1.7416  0.2126
   57SAPC  H13B 4151   3.981   3.004  10.589 -0.7087 -0.3092 -1.3948
   57SAPC  H13C 4152   3.848   2.894  10.591 -0.6111  2.2206 -1.7336
   57SAPC   C14 4153   3.969   2.662  10.589 -0.1225 -0.3627 -0.3018
   57SAPC  H14A 4154   3.985   2.660  10.696 -0.9697  1.9731 -0.0795
   57SAPC  H14B 4155   3.866   2.647  10.561  0.3440 -2.4820 -1.0906
   57SAPC  H14C 4156   4.029   2.581  10.549  2.4532  1.4506 -0.3458
   57SAPC   C15 4157   4.177   2.791  10.551  0.0030  0.4046 -0.5505
   57SAPC  H15A 4158   4.202   2.782  10.656 -0.8314  2.7684 -0.0920
   57SAPC  H15B 4159   4.217   2.715  10.485 -1.3312  0.6731 -1.7199
   57SAPC  H15C 4160   4.214   2.884  10.513  0.2094  0.9408  0.8958
   57SAPC   C11 4161   4.038   2.706  10.278 -0.0552  0.1264 -0.0344
   57SAPC  H11A 4162   4.149   2.707  10.275 -0.0561  1.3722 -2.6988
   57SAPC  H11B 4163   4.013   2.745  10.177  0.0519  2.1403  0.6710
   57SAPC     P 4164   3.832   2.561  10.254  0.0289  0.0317 -0.0381
   57SAPC   O13 4165   3.759   2.499  10.368 -0.1066  0.3409 -0.2273
   57SAPC   O14 4166   3.785   2.694  10.209  0.3103 -0.1531  0.0003
   57SAPC   O12 4167   3.983   2.579  10.292  0.9236 -0.0698 -0.1040
   57SAPC   O11 4168   3.835   2.446  10.143 -0.4338  0.1183  0.2064
   57SAPC    C1 4169   3.959   2.403  10.071  0.1789  0.0310  0.4620
   57SAPC    HA 4170   4.040   2.379  10.144  0.4630  1.1612  0.5386
   57SAPC    HB 4171   3.940   2.308  10.017  0.8694  0.8402 -1.2694
   57SAPC    C2 4172   4.016   2.508   9.969 -0.8463  0.0919  0.2001
   57SAPC    HS 4173   4.078   2.573  10.034 -0.6911  0.4372 -0.2893
   57SAPC   O21 4174   3.915   2.578   9.896 -0.1686 -0.7643 -0.7201
   57SAPC   C21 4175   3.923   2.713   9.871 -0.0026 -0.5140  1.2057
   57SAPC   O22 4176   4.015   2.784   9.905  0.1312 -0.0579  0.7650
   57SAPC   C22 4177   3.815   2.768   9.785 -0.3088  0.4536  0.5064
   57SAPC   H2R 4178   3.721   2.763   9.845 -0.8834  2.7594 -0.0991
   57SAPC   H2S 4179   3.841   2.875   9.774  0.6735  0.3126  1.3562
   57SAPC    C3 4180   4.094   2.427   9.866 -0.2741 -0.3591 -0.4821
   57SAPC    HX 4181   4.034   2.360   9.802  0.4345  0.1215 -1.6849
   57SAPC    HY 4182   4.163   2.359   9.921 -1.7012 -2.3459 -1.0561
   57SAPC   O31 4183   4.171   2.514   9.770 -0.9615  0.3198 -0.3842
   57SAPC   C31 4184   4.280   2.567   9.823 -0.7979 -0.4372 -0.6609
   57SAPC   O32 4185   4.325   2.550   9.936 -0.5327 -0.1050 -0.1802
   57SAPC   C32 4186   4.334   2.675   9.724 -0.6755 -0.6633  0.2642
   57SAPC   H2X 4187   4.376   2.759   9.784 -0.2439  1.2109 -2.4911
   57SAPC   H2Y 4188   4.243   2.719   9.678  0.9210  3.3807  0.5354
   57SAPC   C23 4189   3.780   2.696   9.647 -0.1734 -0.2718  0.1500
   57SAPC   H3R 4190   3.703   2.755   9.592 -0.7936  1.5386  2.7728
   57SAPC   H3S 4191   3.749   2.591   9.665 -0.0050 -0.7572 -2.0857
   57SAPC   C24 4192   3.902   2.688   9.554  0.9995 -0.0181  0.3411
   57SAPC   H4R 4193   3.993   2.633   9.586 -0.4991 -2.5293  0.4956
   57SAPC   H4S 4194   3.926   2.795   9.536 -1.7417  0.4074 -1.3516
   57SAPC   C25 4195   3.883   2.634   9.415 -0.5266 -0.0454  0.4819
   57SAPC   H5R 4196   3.869   2.525   9.411 -3.2976  0.2778 -1.5958
   57SAPC   C26 4197   3.886   2.692   9.293 -0.0626 -0.1830 -0.9564
   57SAPC   H6R 4198   3.849   2.632   9.209 -1.8406  0.8979 -0.9773
   57SAPC   C27 4199   3.898   2.833   9.249  0.3170 -0.1740 -0.6279
   57SAPC   H7R 4200   4.004   2.847   9.221  0.2566 -0.3357 -0.9467
   57SAPC   H7S 4201   3.867   2.903   9.329 -2.4349 -0.5270 -1.2959
   57SAPC   C28 4202   3.811   2.878   9.134 -0.8729  0.1493  1.0317
   57SAPC   H8R 4203   3.722   2.930   9.172 -2.5914 -2.4311  0.7685
   57SAPC   C29 4204   3.817   2.844   9.005 -0.3489  0.2133  0.5524
   57SAPC   H9R 4205   3.737   2.887   8.943 -0.4703  0.3713  0.8168
   57SAPC  C210 4206   3.920   2.761   8.938  0.3699 -0.4805 -0.2382
   57SAPC  H10R 4207   3.894   2.738   8.832  1.2536 -1.7011 -0.2159
   57SAPC  H10S 4208   3.913   2.669   9.000 -0.2834 -1.0261 -1.0890
   57SAPC  C211 4209   4.063   2.805   8.942  0.1239 -0.3072  1.0429
   57SAPC  H11R 4210   4.116   2.776   9.034  2.9671  1.6865  0.1766
   57SAPC  C212 4211   4.131   2.859   8.841  0.0559  0.0635 -0.6594
   57SAPC  H12R 4212   4.238   2.871   8.863 -0.1313  2.0556 -0.5704
   57SAPC  C213 4213   4.095   2.899   8.700 -0.1351 -0.0535 -0.5232
   57SAPC  H13R 4214   4.180   2.955   8.655  0.6604 -1.1083 -0.3544
   57SAPC  H13S 4215   4.025   2.985   8.712  2.1275  1.7556  0.5632
   57SAPC  C214 4216   4.054   2.785   8.612  0.4755 -0.9943 -0.6920
   57SAPC  H14R 4217   4.014   2.698   8.667 -1.1591  1.0528  1.5218
   57SAPC  C215 4218   4.042   2.784   8.480  0.0920  0.3237 -0.0150
   57SAPC  H15R 4219   4.007   2.690   8.435  0.6270 -0.3564  0.9383
   57SAPC  C216 4220   4.081   2.890   8.393  0.1643 -0.3170 -0.6307
   57SAPC  H16R 4221   4.100   2.978   8.458 -2.1924 -0.4080  0.2887
   57SAPC  H16S 4222   4.003   2.912   8.317  0.9123 -1.8911 -1.9050
   57SAPC  C217 4223   4.214   2.843   8.319  0.1993  0.6491  0.2934
   57SAPC  H17R 4224   4.289   2.822   8.398  0.5597  2.8997  0.6282
   57SAPC  H17S 4225   4.252   2.918   8.246 -1.6897  0.7497 -0.6466
   57SAPC  C218 4226   4.183   2.719   8.230 -0.3875  0.1433 -0.3419
   57SAPC  H18R 4227   4.147   2.630   8.285  0.3237 -0.7033 -1.2202
   57SAPC  H18S 4228   4.279   2.687   8.184 -1.3466 -1.4799 -1.3212
   57SAPC  C219 4229   4.087   2.757   8.116  0.1327  0.8031  0.0606
   57SAPC  H19R 4230   4.124   2.841   8.054  1.7308 -0.3011 -0.5599
   57SAPC  H19S 4231   3.987   2.770   8.163  0.2391 -0.9258  0.8584
   57SAPC  C220 4232   4.074   2.634   8.025 -0.1185  0.0124 -0.6551
   57SAPC  H20R 4233   4.006   2.652   7.939  1.2956  1.5449 -1.4993
   57SAPC  H20S 4234   4.033   2.550   8.085  1.7580  0.7227  1.7797
   57SAPC  H20T 4235   4.177   2.608   7.992 -0.2543 -1.2952 -0.1272
   57SAPC   C33 4236   4.427   2.617   9.613  0.3380 -0.0793 -0.2620
   57SAPC   H3X 4237   4.384   2.523   9.571 -1.3730 -0.5481  2.2668
   57SAPC   H3Y 4238   4.520   2.586   9.667  0.8279  3.0487  0.8687
   57SAPC   C34 4239   4.461   2.723   9.506 -0.8532  0.0614  0.7823
   57SAPC   H4X 4240   4.520   2.805   9.552  1.6287 -0.1565 -1.7319
   57SAPC   H4Y 4241   4.362   2.760   9.471 -0.8166 -0.2203  0.3706
   57SAPC   C35 4242   4.539   2.659   9.386 -0.1272  0.0935  0.3728
   57SAPC   H5X 4243   4.514   2.551   9.378  2.4017 -0.5607  0.4106
   57SAPC   H5Y 4244   4.646   2.651   9.413 -1.0813 -2.1553  4.2988
   57SAPC   C36 4245   4.536   2.744   9.260 -0.0478  1.0034  0.7255
   57SAPC   H6X 4246   4.584   2.842   9.280  0.6815  0.5441  1.2682
   57SAPC   H6Y 4247   4.431   2.764   9.228  0.6024  2.2055 -0.8076
   57SAPC   C37 4248   4.604   2.673   9.135  0.4788 -0.3762  0.0466
   57SAPC   H7X 4249   4.558   2.573   9.119  0.6207 -0.4753  0.2593
   57SAPC   H7Y 4250   4.706   2.656   9.175 -0.2868 -0.6346  1.9923
   57SAPC   C38 4251   4.596   2.752   9.011  0.1698 -0.7888 -0.7016
   57SAPC   H8X 4252   4.640   2.852   9.029  1.0827 -0.8038 -2.5473
   57SAPC   H8Y 4253   4.489   2.781   9.000  0.4630  0.4539 -0.3935
   57SAPC   C39 4254   4.629   2.668   8.897  0.0209 -0.3525  0.1106
   57SAPC   H9X 4255   4.549   2.590   8.894  1.3039 -1.7299  0.7138
   57SAPC   H9Y 4256   4.731   2.624   8.901  0.5906  0.3790 -3.0526
   57SAPC  C310 4257   4.624   2.740   8.765  0.0834 -0.0031  0.2489
   57SAPC  H10X 4258   4.683   2.834   8.759 -0.6873  0.4499 -0.4973
   57SAPC  H10Y 4259   4.521   2.783   8.757 -0.0048  0.2628  2.1545
   57SAPC  C311 4260   4.661   2.646   8.650 -0.3627  0.7074 -0.1087
   57SAPC  H11X 4261   4.570   2.585   8.631 -0.2476  0.3328  0.5183
   57SAPC  H11Y 4262   4.743   2.575   8.674 -1.6075 -1.2338 -1.3316
   57SAPC  C312 4263   4.710   2.723   8.527 -0.4603 -0.4094  0.4515
   57SAPC  H12X 4264   4.735   2.650   8.447  2.4289  0.4450  0.4684
   57SAPC  H12Y 4265   4.802   2.779   8.553 -1.2634  1.1084  0.1217
   57SAPC  C313 4266   4.611   2.833   8.475 -0.1184 -0.1517  0.2214
   57SAPC  H13X 4267   4.597   2.902   8.560 -3.0035 -2.0684  1.4600
   57SAPC  H13Y 4268   4.511   2.791   8.451 -0.7969  0.5088  1.7784
   57SAPC  C314 4269   4.654   2.902   8.342  0.1875 -0.7979  0.3656
   57SAPC  H14X 4270   4.620   2.847   8.251 -3.4448  0.6289  0.7066
   57SAPC  H14Y 4271   4.763   2.922   8.330  0.1885  0.8402  2.5596
   57SAPC  C315 4272   4.582   3.042   8.325  0.6441  0.0262 -0.7190
   57SAPC  H15X 4273   4.609   3.103   8.414 -2.7591  1.6958 -0.6900
   57SAPC  H15Y 4274   4.472   3.041   8.313  0.5737 -1.8207 -0.2543
   57SAPC  C316 4275   4.645   3.114   8.204 -0.4556 -0.1336  0.4488
   57SAPC  H16X 4276   4.622   3.052   8.115  0.9640 -0.3636  0.2030
   57SAPC  H16Y 4277   4.756   3.123   8.213 -0.5877  1.5368  0.7441
   57SAPC  C317 4278   4.588   3.259   8.186  0.3628  0.4193  0.2480
   57SAPC  H17X 4279   4.591   3.314   8.283 -1.5327  0.5280  0.2844
   57SAPC  H17Y 4280   4.481   3.240   8.163  1.1624 -2.1554 -1.8370
   57SAPC  C318 4281   4.653   3.346   8.080  0.3087 -0.2994 -0.3784
   57SAPC  H18X 4282   4.658   3.283   7.989  0.0722 -2.8973  1.3061
   57SAPC  H18Y 4283   4.752   3.392   8.102 -0.5225  0.0759  3.2324
   57SAPC  H18Z 4284   4.589   3.434   8.054  0.1650 -0.3224 -0.1027
   58SAPC     N 4285   6.185   2.941  10.021 -0.0723 -0.1801 -0.4381
   58SAPC   C12 4286   6.115   3.046   9.931  0.6038 -0.1678 -0.3542
   58SAPC  H12A 4287   6.177   3.108   9.869  0.5477  1.6075  1.2588
   58SAPC  H12B 4288   6.075   3.117  10.003  0.2732  0.9706 -1.6244
   58SAPC   C13 4289   6.080   2.886  10.115  0.5276 -0.1316  0.5760
   58SAPC  H13A 4290   6.047   2.971  10.173  2.1345  0.6902  0.3416
   58SAPC  H13B 4291   5.998   2.840  10.063 -0.1797  0.1320  1.4344
   58SAPC  H13C 4292   6.121   2.811  10.182 -1.3875 -2.9029 -1.1497
   58SAPC   C14 4293   6.223   2.821   9.940 -0.0256  0.0568 -0.2325
   58SAPC  H14A 4294   6.311   2.843   9.882  1.4906 -2.7179  0.8263
   58SAPC  H14B 4295   6.257   2.750  10.013 -0.1759  0.8526  0.6319
   58SAPC  H14C 4296   6.149   2.777   9.874 -0.8832  0.2814  0.5536
   58SAPC   C15 4297   6.298   2.994  10.097  0.5182 -0.2767 -0.0124
   58SAPC  H15A 4298   6.370   3.032  10.026  0.5956 -0.2435  0.0833
   58SAPC  H15B 4299   6.276   3.080  10.159 -0.0912 -0.0698 -0.5075
   58SAPC  H15C 4300   6.353   2.918  10.150  3.2241  2.2186  1.0538
   58SAPC   C11 4301   5.982   3.011   9.850  0.2313 -0.0535 -0.1561
   58SAPC  H11A 4302   5.989   2.941   9.763 -1.5986  1.3990 -1.5673
   58SAPC  H11B 4303   5.955   3.109   9.805 -1.0755 -0.4591 -0.3221
   58SAPC     P 4304   5.761   3.061   9.999  0.0508 -0.6868  0.2462
   58SAPC   O13 4305   5.740   3.009  10.133  0.3550  0.6377  0.0031
   58SAPC   O14 4306   5.790   3.200   9.985  0.1261 -0.3451  0.2482
   58SAPC   O12 4307   5.875   2.979   9.935  0.0007 -0.5357 -0.8197
   58SAPC   O11 4308   5.644   3.021   9.908 -1.0900 -0.1129 -0.2624
   58SAPC    C1 4309   5.568   2.901   9.924  0.1101 -0.7669 -0.6842
   58SAPC    HA 4310   5.563   2.865  10.029  1.5605 -0.7414 -0.5961
   58SAPC    HB 4311   5.466   2.919   9.884 -0.1938 -1.4910 -0.2506
   58SAPC    C2 4312   5.624   2.777   9.853  0.0517 -0.1396 -0.2828
   58SAPC    HS 4313   5.733   2.771   9.876  0.5162  0.8017 -2.1106
   58SAPC   O21 4314   5.608   2.792   9.711  0.2039 -0.0376  0.1985
   58SAPC   C21 4315   5.712   2.749   9.629 -0.2068 -0.2201 -0.2228
   58SAPC   O22 4316   5.819   2.716   9.668 -0.0789  0.9266 -0.2080
   58SAPC   C22 4317   5.667   2.753   9.485  0.2696 -0.4842  0.0622
   58SAPC   H2R 4318   5.559   2.778   9.487  0.5143  0.5870  0.8039
   58SAPC   H2S 4319   5.713   2.844   9.440 -2.5691  0.5996 -0.8996
   58SAPC    C3 4320   5.553   2.647   9.892 -0.5201 -0.1349  0.1142
   58SAPC    HX 4321   5.458   2.655   9.836  0.9300  0.9845 -2.3454
   58SAPC    HY 4322   5.525   2.646   9.999 -0.1281 -1.6664  0.2306
   58SAPC   O31 4323   5.623   2.528   9.847 -0.4216 -0.3892 -0.7375
   58SAPC   C31 4324   5.684   2.451   9.943 -0.6425 -0.1230  0.7967
   58SAPC   O32 4325   5.674   2.472  10.059 -0.0956  0.0791 -0.6403
   58SAPC   C32 4326   5.753   2.334   9.880 -0.0170  0.4298 -0.5436
   58SAPC   H2X 4327   5.791   2.261   9.955 -1.7308 -0.1590 -0.2035
   58SAPC   H2Y 4328   5.846   2.374   9.834  0.6017 -0.5322 -0.1710
   58SAPC   C23 4329   5.690   2.633   9.392 -0.3684  0.2657  0.7439
   58SAPC   H3R 4330   5.794   2.597   9.410 -0.9182 -1.1911  1.1584
   58SAPC   H3S 4331   5.693   2.664   9.285 -1.7954 -1.4677  0.1531
   58SAPC   C24 4332   5.595   2.509   9.417  0.1867 -0.2982 -0.4061
   58SAPC   H4R 4333   5.587   2.464   9.518 -0.5697  1.7427  0.5091
   58SAPC   H4S 4334   5.634   2.428   9.353  0.8981  1.6396 -2.5586
   58SAPC   C25 4335   5.460   2.548   9.375  0.4202  0.2577  0.0619
   58SAPC   H5R 4336   5.386   2.561   9.455  0.6642 -0.1851  0.3629
   58SAPC   C26 4337   5.411   2.545   9.245  0.2225  0.4955 -0.9484
   58SAPC   H6R 4338   5.306   2.567   9.220  0.3798  0.5558 -1.5530
   58SAPC   C27 4339   5.492   2.517   9.120 -0.3385 -0.3553 -0.4949
   58SAPC   H7R 4340   5.599   2.500   9.141  0.5020  1.2500 -2.9998
   58SAPC   H7S 4341   5.508   2.615   9.069  1.4565  0.4434  1.4646
   58SAPC   C28 4342   5.438   2.404   9.040 -0.8250 -0.5799 -0.1497
   58SAPC   H8R 4343   5.371   2.339   9.099 -0.7407 -0.2551  0.3100
   58SAPC   C29 4344   5.447   2.386   8.904  0.4666  0.9992 -0.2192
   58SAPC   H9R 4345   5.390   2.300   8.864  0.8189 -0.2884  1.8919
   58SAPC  C210 4346   5.516   2.475   8.805  0.8370 -0.5225 -0.2234
   58SAPC  H10R 4347   5.603   2.428   8.756  3.9832  3.1654  1.3005
   58SAPC  H10S 4348   5.566   2.564   8.850  2.5066 -0.4399 -2.1435
   58SAPC  C211 4349   5.418   2.521   8.696  0.2628 -0.0031 -0.2800
   58SAPC  H11R 4350   5.399   2.629   8.707 -0.2543 -0.2023  0.9667
   58SAPC  C212 4351   5.378   2.453   8.591  0.1474  0.6339  0.1166
   58SAPC  H12R 4352   5.301   2.501   8.529 -0.8880 -0.1597  0.7571
   58SAPC  C213 4353   5.417   2.314   8.539  0.3282  0.6207  0.2938
   58SAPC  H13R 4354   5.516   2.282   8.577  1.1489 -0.0426 -2.1981
   58SAPC  H13S 4355   5.449   2.328   8.433  1.4970  0.6809  0.6383
   58SAPC  C214 4356   5.309   2.214   8.557 -0.0339  0.2445  0.0503
   58SAPC  H14R 4357   5.316   2.146   8.643 -1.7322 -0.1613 -0.0870
   58SAPC  C215 4358   5.190   2.198   8.501  0.5392  0.3572  0.2471
   58SAPC  H15R 4359   5.125   2.118   8.539 -0.1439  1.8699  2.4666
   58SAPC  C216 4360   5.147   2.263   8.369 -0.0416  0.0894 -0.3703
   58SAPC  H16R 4361   5.228   2.316   8.313  0.0357  0.7550  0.3492
   58SAPC  H16S 4362   5.066   2.337   8.387 -0.9358 -1.4425  2.6016
   58SAPC  C217 4363   5.094   2.165   8.273  0.7272  0.1102 -0.2516
   58SAPC  H17R 4364   4.998   2.124   8.310 -1.2972  3.9954 -0.6341
   58SAPC  H17S 4365   5.159   2.080   8.244  0.2735  0.2640 -1.8115
   58SAPC  C218 4366   5.059   2.226   8.137 -0.4694  0.3772  0.0486
   58SAPC  H18R 4367   5.154   2.257   8.089  0.5400 -0.6371  1.3408
   58SAPC  H18S 4368   5.001   2.319   8.153 -1.3719 -0.3309  1.0573
   58SAPC  C219 4369   5.000   2.121   8.038 -0.2528 -0.6314 -0.0929
   58SAPC  H19R 4370   4.904   2.090   8.086 -0.8879  3.0447  1.2812
   58SAPC  H19S 4371   5.057   2.026   8.029 -1.7950 -1.6203  0.1907
   58SAPC  C220 4372   4.956   2.175   7.901  0.3420  0.0246  0.5596
   58SAPC  H20R 4373   4.866   2.239   7.907  0.3648  0.0833  0.2982
   58SAPC  H20S 4374   4.923   2.096   7.829  0.3003 -0.3997  1.0343
   58SAPC  H20T 4375   5.037   2.229   7.848 -1.5209  1.6129 -0.7841
   58SAPC   C33 4376   5.674   2.253   9.772  0.5504 -0.3704  0.2771
   58SAPC   H3X 4377   5.663   2.310   9.677 -0.8811 -2.6670 -1.0185
   58SAPC   H3Y 4378   5.573   2.236   9.814  0.8678  0.5488  1.4604
   58SAPC   C34 4379   5.744   2.134   9.718 -0.0887  0.7381 -0.0551
   58SAPC   H4X 4380   5.752   2.059   9.799 -0.7811  1.6583  0.8968
   58SAPC   H4Y 4381   5.847   2.165   9.689  0.6476 -0.4766  1.1707
   58SAPC   C35 4382   5.669   2.067   9.596  0.0505 -0.4238 -0.5811
   58SAPC   H5X 4383   5.559   2.078   9.609 -0.1274 -0.0934 -2.1516
   58SAPC   H5Y 4384   5.698   1.960   9.595  0.6061 -0.2749 -0.7506
   58SAPC   C36 4385   5.703   2.122   9.457  0.1951 -0.3483  0.4590
   58SAPC   H6X 4386   5.814   2.123   9.446  0.1000 -0.2035 -0.7085
   58SAPC   H6Y 4387   5.678   2.230   9.447  3.9624  0.5820 -0.4613
   58SAPC   C37 4388   5.638   2.051   9.337  0.5365  0.0706 -0.0030
   58SAPC   H7X 4389   5.529   2.068   9.351  0.0960 -0.4539 -2.3831
   58SAPC   H7Y 4390   5.667   1.944   9.336  0.9854  0.1920 -0.2831
   58SAPC   C38 4391   5.680   2.106   9.200 -0.2757  0.1717  0.1658
   58SAPC   H8X 4392   5.790   2.098   9.187 -0.2519  0.3979  0.2388
   58SAPC   H8Y 4393   5.649   2.212   9.193  1.8608  0.8115 -0.2774
   58SAPC   C39 4394   5.624   2.011   9.090  0.2884  0.0084  0.2671
   58SAPC   H9X 4395   5.514   2.024   9.099  0.2395 -1.3500  2.3360
   58SAPC   H9Y 4396   5.652   1.906   9.113  0.4139  0.0094  0.1186
   58SAPC  C310 4397   5.680   2.048   8.953 -0.3629  1.1398 -0.3858
   58SAPC  H10X 4398   5.787   2.038   8.926 -1.1115 -1.2766 -2.9326
   58SAPC  H10Y 4399   5.664   2.157   8.936 -1.8157  0.5334 -3.7177
   58SAPC  C311 4400   5.606   1.973   8.838 -0.1426  0.6187 -0.8093
   58SAPC  H11X 4401   5.496   1.981   8.850  0.1124  1.8633  1.2967
   58SAPC  H11Y 4402   5.636   1.867   8.855  2.0131  1.0406 -1.7005
   58SAPC  C312 4403   5.650   2.007   8.696 -0.7598 -0.2834  0.4797
   58SAPC  H12X 4404   5.762   2.010   8.693 -0.7522  0.3543  1.0414
   58SAPC  H12Y 4405   5.608   2.108   8.674  1.0153  0.6266  1.0065
   58SAPC  C313 4406   5.609   1.893   8.597 -0.0502 -0.0622 -0.1321
   58SAPC  H13X 4407   5.500   1.902   8.582 -0.0134 -1.7101 -1.8250
   58SAPC  H13Y 4408   5.627   1.798   8.652  1.3965  1.4548  2.2108
   58SAPC  C314 4409   5.680   1.877   8.461  0.3260 -0.0756 -0.2962
   58SAPC  H14X 4410   5.786   1.856   8.485  0.0623  0.5441  1.5612
   58SAPC  H14Y 4411   5.667   1.978   8.416 -0.4042 -0.2608 -0.5279
   58SAPC  C315 4412   5.624   1.760   8.382  0.2295 -0.0125 -0.3438
   58SAPC  H15X 4413   5.648   1.771   8.274  1.3869 -2.5277 -0.4318
   58SAPC  H15Y 4414   5.513   1.770   8.377  0.1618 -1.0964 -2.3134
   58SAPC  C316 4415   5.683   1.629   8.424 -0.1842  0.1323 -0.2820
   58SAPC  H16X 4416   5.606   1.568   8.477 -1.8151  0.1625 -2.4978
   58SAPC  H16Y 4417   5.755   1.643   8.507 -0.1199 -2.5754  0.2077
   58SAPC  C317 4418   5.733   1.567   8.295 -0.3592  0.3400  0.4029
   58SAPC  H17X 4419   5.802   1.484   8.321 -1.2585  0.6553  4.3834
   58SAPC  H17Y 4420   5.791   1.645   8.242  0.8306 -0.3438  0.6608
   58SAPC  C318 4421   5.624   1.512   8.197  0.2374  0.3078  0.5190
   58SAPC  H18X 4422   5.553   1.583   8.151  0.2192 -0.7459 -1.1917
   58SAPC  H18Y 4423   5.551   1.452   8.255  0.0431  0.3421  0.3128
   58SAPC  H18Z 4424   5.668   1.455   8.112 -0.3189  0.8433 -0.1383
   59SAPC     N 4425   1.116   2.672  10.442 -0.2014 -0.0047 -0.0736
   59SAPC   C12 4426   1.147   2.683  10.293 -0.2452 -0.3486 -0.2237
   59SAPC  H12A 4427   1.212   2.768  10.279  1.2686 -1.6887 -1.8190
   59SAPC  H12B 4428   1.060   2.695  10.230 -1.3216 -0.9066  1.1042
   59SAPC   C13 4429   1.000   2.579  10.462 -0.0718  0.2195  0.0195
   59SAPC  H13A 4430   1.029   2.477  10.439 -0.4472  0.3915 -1.2593
   59SAPC  H13B 4431   0.974   2.578  10.567 -0.2035 -0.0310 -0.0150
   59SAPC  H13C 4432   0.914   2.611  10.407  0.9097  0.8342 -1.2064
   59SAPC   C14 4433   1.233   2.631  10.522 -0.2634  0.0763 -0.1528
   59SAPC  H14A 4434   1.275   2.543  10.475 -2.9624 -1.3639 -0.0851
   59SAPC  H14B 4435   1.304   2.712  10.527 -0.6995  0.8167 -3.5001
   59SAPC  H14C 4436   1.207   2.598  10.622  1.5799 -1.6184 -0.1704
   59SAPC   C15 4437   1.067   2.810  10.490 -0.1957 -0.0812  0.1791
   59SAPC  H15A 4438   1.151   2.876  10.509  2.5359 -3.3158  0.3540
   59SAPC  H15B 4439   0.999   2.843  10.414 -1.3877  0.5921  1.4934
   59SAPC  H15C 4440   1.015   2.798  10.584 -1.2818 -0.1705 -0.4282
   59SAPC   C11 4441   1.209   2.561  10.223  0.4184  0.1821  0.4273
   59SAPC  H11A 4442   1.291   2.529  10.289 -1.0227  1.2607  2.8946
   59SAPC  H11B 4443   1.244   2.611  10.130 -1.2021  1.5097  0.4680
   59SAPC     P 4444   1.035   2.449  10.074 -0.1665 -0.3519  0.0885
   59SAPC   O13 4445   0.942   2.331  10.087 -0.5378 -0.4868  0.4608
   59SAPC   O14 4446   0.976   2.581  10.045 -0.4894 -0.0053  0.7862
   59SAPC   O12 4447   1.119   2.455  10.203  1.1498  0.4258 -0.1474
   59SAPC   O11 4448   1.148   2.418   9.971  0.4591  0.4723 -0.0304
   59SAPC    C1 4449   1.135   2.453   9.830  0.7529  0.1990  0.6249
   59SAPC    HA 4450   1.057   2.530   9.809  0.1434  0.3524  3.2149
   59SAPC    HB 4451   1.233   2.494   9.796  0.3365  0.9203  0.2619
   59SAPC    C2 4452   1.124   2.325   9.737 -0.0030  0.0247 -0.0854
   59SAPC    HS 4453   1.142   2.359   9.633 -1.0755  0.0361 -0.2801
   59SAPC   O21 4454   1.004   2.245   9.753  0.6592 -0.1667  0.4249
   59SAPC   C21 4455   0.888   2.293   9.698 -0.0283  0.3464 -0.1022
   59SAPC   O22 4456   0.881   2.399   9.639 -0.0310 -0.1393  0.4458
   59SAPC   C22 4457   0.769   2.211   9.736  0.7728 -0.2062 -0.0522
   59SAPC   H2R 4458   0.783   2.104   9.710 -2.2720 -0.5684 -0.5588
   59SAPC   H2S 4459   0.764   2.231   9.845 -0.9462  0.7644 -0.2702
   59SAPC    C3 4460   1.236   2.228   9.783  0.5496  0.7413  0.1433
   59SAPC    HX 4461   1.226   2.204   9.891 -1.7118 -0.3813 -0.2483
   59SAPC    HY 4462   1.332   2.279   9.762 -0.5723  2.8523 -0.1755
   59SAPC   O31 4463   1.246   2.110   9.703  0.3861  0.2302  0.0227
   59SAPC   C31 4464   1.340   2.026   9.725 -0.3219  0.1679 -0.1810
   59SAPC   O32 4465   1.433   2.039   9.806  0.7995 -0.5338 -0.5878
   59SAPC   C32 4466   1.324   1.906   9.636 -0.0800  0.1175 -0.8148
   59SAPC   H2X 4467   1.221   1.867   9.647  0.3177 -1.4804 -2.2529
   59SAPC   H2Y 4468   1.397   1.831   9.675 -1.4256 -1.4277 -1.1641
   59SAPC   C23 4469   0.636   2.267   9.678  0.1629 -0.2453 -0.1631
   59SAPC   H3R 4470   0.632   2.376   9.697  0.5895  0.4167 -3.3414
   59SAPC   H3S 4471   0.563   2.231   9.754 -1.3815  0.3479 -1.3168
   59SAPC   C24 4472   0.611   2.234   9.531 -0.1838  0.0956  0.1909
   59SAPC   H4R 4473   0.691   2.280   9.469 -0.7369  0.4983 -0.2431
   59SAPC   H4S 4474   0.511   2.271   9.497 -0.3551  0.3826  0.9898
   59SAPC   C25 4475   0.608   2.081   9.512 -0.1096 -0.2578  0.1813
   59SAPC   H5R 4476   0.523   2.030   9.560 -1.3410 -0.5804 -2.2122
   59SAPC   C26 4477   0.684   2.010   9.425  0.0304 -0.2320 -0.9060
   59SAPC   H6R 4478   0.656   1.905   9.413  1.8865 -1.1586  1.8756
   59SAPC   C27 4479   0.805   2.057   9.351  0.1012  0.4589  0.0059
   59SAPC   H7R 4480   0.838   2.159   9.381 -2.1783  1.2087  0.2318
   59SAPC   H7S 4481   0.774   2.074   9.245 -1.0703  2.1748  0.5569
   59SAPC   C28 4482   0.915   1.962   9.365 -0.5758 -0.8707  0.3659
   59SAPC   H8R 4483   0.941   1.929   9.466  0.4654 -0.1989  0.3331
   59SAPC   C29 4484   0.963   1.884   9.270 -0.7033  0.3659  0.0847
   59SAPC   H9R 4485   1.036   1.807   9.297  0.2871  1.2012 -0.1755
   59SAPC  C210 4486   0.931   1.889   9.123  0.5280 -0.0436 -0.2134
   59SAPC  H10R 4487   0.925   1.997   9.097  2.0596  0.2790  0.6624
   59SAPC  H10S 4488   0.830   1.843   9.110 -0.9822  2.8386  0.5466
   59SAPC  C211 4489   1.027   1.826   9.030 -0.2834 -0.4931 -0.3556
   59SAPC  H11R 4490   1.117   1.786   9.077 -0.3385  0.3652  0.5090
   59SAPC  C212 4491   1.020   1.824   8.897  0.4592  0.5526  0.0917
   59SAPC  H12R 4492   1.108   1.777   8.851 -0.8728 -1.3052 -0.7209
   59SAPC  C213 4493   0.905   1.879   8.809 -0.4587  0.5005  0.1373
   59SAPC  H13R 4494   0.816   1.914   8.864  0.3740  2.9167  0.0524
   59SAPC  H13S 4495   0.866   1.792   8.752  0.1581  0.9688 -1.0336
   59SAPC  C214 4496   0.961   1.987   8.723  0.0458  0.1144 -0.2519
   59SAPC  H14R 4497   0.959   2.088   8.767 -1.8154  0.5185 -1.1382
   59SAPC  C215 4498   0.998   1.973   8.596 -0.8808  0.1119  0.5002
   59SAPC  H15R 4499   1.042   2.060   8.547 -0.4937 -0.2843  0.1437
   59SAPC  C216 4500   0.996   1.848   8.512  0.2901  0.5598 -1.2452
   59SAPC  H16R 4501   0.900   1.837   8.457 -0.4527  2.2087 -0.3751
   59SAPC  H16S 4502   0.993   1.758   8.578 -1.9121  1.0741 -0.5594
   59SAPC  C217 4503   1.123   1.818   8.432 -0.0101  0.2076  0.2518
   59SAPC  H17R 4504   1.139   1.910   8.371 -1.1672  0.2116 -0.0608
   59SAPC  H17S 4505   1.108   1.740   8.354 -2.7621  0.8001  0.1138
   59SAPC  C218 4506   1.254   1.787   8.515  0.0512  0.4075  0.3671
   59SAPC  H18R 4507   1.225   1.691   8.563 -0.4410  1.1121  1.5256
   59SAPC  H18S 4508   1.265   1.858   8.599  1.7002 -0.4029  0.8657
   59SAPC  C219 4509   1.391   1.761   8.437 -0.6742  0.0963  0.0042
   59SAPC  H19R 4510   1.373   1.747   8.329 -0.4251 -0.7628  0.0665
   59SAPC  H19S 4511   1.436   1.663   8.466  0.4292  0.7067  0.4414
   59SAPC  C220 4512   1.494   1.869   8.456 -0.1036  0.1761 -0.1494
   59SAPC  H20R 4513   1.503   1.897   8.563  2.7026 -3.7034  0.8909
   59SAPC  H20S 4514   1.454   1.962   8.410 -1.3835 -0.5878 -0.6232
   59SAPC  H20T 4515   1.595   1.842   8.417 -0.6828 -2.0377 -0.2501
   59SAPC   C33 4516   1.357   1.929   9.486 -0.2289 -1.2965 -0.8069
   59SAPC   H3X 4517   1.466   1.948   9.470  0.7575 -3.5767  2.2053
   59SAPC   H3Y 4518   1.304   2.023   9.461 -0.2276 -1.0023  0.2424
   59SAPC   C34 4519   1.334   1.818   9.388 -0.4374 -0.1203  0.9326
   59SAPC   H4X 4520   1.226   1.801   9.369 -0.2867  1.5658 -2.1538
   59SAPC   H4Y 4521   1.388   1.724   9.414  1.0458  0.4164 -0.0610
   59SAPC   C35 4522   1.402   1.854   9.247 -0.2567  0.3214 -0.5413
   59SAPC   H5X 4523   1.385   1.759   9.193 -1.4934 -1.2001  2.3020
   59SAPC   H5Y 4524   1.511   1.852   9.268 -0.7009  0.6339  2.2107
   59SAPC   C36 4525   1.370   1.985   9.174  0.0585 -0.1383 -0.1075
   59SAPC   H6X 4526   1.408   2.071   9.232 -0.5701  0.3670 -0.4384
   59SAPC   H6Y 4527   1.262   2.000   9.155 -0.3094 -1.6217  0.6607
   59SAPC   C37 4528   1.430   1.992   9.033 -0.4357 -0.3119 -0.5474
   59SAPC   H7X 4529   1.401   2.081   8.972  0.9459 -0.5355 -1.5690
   59SAPC   H7Y 4530   1.390   1.897   8.992 -0.3921 -0.2315 -0.7780
   59SAPC   C38 4531   1.587   1.990   9.038 -0.2136 -0.4078 -0.5903
   59SAPC   H8X 4532   1.616   1.890   9.077  0.7754  0.7156  1.7726
   59SAPC   H8Y 4533   1.619   2.071   9.108  1.4163  0.5662 -2.3814
   59SAPC   C39 4534   1.650   2.017   8.896 -0.3510 -0.1922 -0.0004
   59SAPC   H9X 4535   1.603   2.111   8.861 -0.0066  0.5377  1.4228
   59SAPC   H9Y 4536   1.625   1.936   8.825  0.9404  0.1434 -0.8742
   59SAPC  C310 4537   1.804   2.020   8.894  0.0546  0.1855  0.6714
   59SAPC  H10X 4538   1.850   1.921   8.915  0.8453 -0.1536 -2.2410
   59SAPC  H10Y 4539   1.843   2.093   8.969  1.3351  0.6329 -0.3941
   59SAPC  C311 4540   1.861   2.068   8.763 -0.5964  0.2117  1.0070
   59SAPC  H11X 4541   1.796   2.021   8.686 -1.4070  1.0150  1.1859
   59SAPC  H11Y 4542   1.963   2.023   8.762 -0.7030 -0.0472  1.3835
   59SAPC  C312 4543   1.881   2.222   8.736  0.3606  0.1858  0.6377
   59SAPC  H12X 4544   1.937   2.259   8.824 -0.1506  1.2544  0.5325
   59SAPC  H12Y 4545   1.777   2.254   8.712  0.5091 -0.8738 -1.7070
   59SAPC  C313 4546   1.971   2.258   8.609  0.9221  0.1998  0.3862
   59SAPC  H13X 4547   2.067   2.203   8.626  0.8197 -1.4225 -3.3268
   59SAPC  H13Y 4548   1.988   2.368   8.610  0.8304  0.2759 -1.6122
   59SAPC  C314 4549   1.924   2.207   8.470  0.1201  0.5709  0.0729
   59SAPC  H14X 4550   1.917   2.097   8.457 -1.1461  0.8063 -1.4941
   59SAPC  H14Y 4551   1.982   2.250   8.385 -2.2997  0.9563 -1.4708
   59SAPC  C315 4552   1.789   2.261   8.436 -0.1478  0.3693 -0.2302
   59SAPC  H15X 4553   1.792   2.368   8.404 -2.1922  0.0475 -1.6945
   59SAPC  H15Y 4554   1.722   2.246   8.524  0.1193 -0.3161 -0.1436
   59SAPC  C316 4555   1.723   2.188   8.318 -0.0340 -0.4497  0.0173
   59SAPC  H16X 4556   1.718   2.078   8.332 -1.0130 -0.4361 -0.1484
   59SAPC  H16Y 4557   1.786   2.206   8.229  0.0398 -1.9869 -0.2785
   59SAPC  C317 4558   1.572   2.225   8.308  0.3223  0.7013 -0.2348
   59SAPC  H17X 4559   1.554   2.330   8.277  1.1768  1.0100  0.2662
   59SAPC  H17Y 4560   1.525   2.215   8.409  2.4155 -1.5081  0.6305
   59SAPC  C318 4561   1.502   2.154   8.197  0.3290  0.4844  0.3312
   59SAPC  H18X 4562   1.506   2.043   8.196  0.0640  0.4320 -2.1361
   59SAPC  H18Y 4563   1.551   2.196   8.106  0.2686  0.5829  0.3437
   59SAPC  H18Z 4564   1.394   2.179   8.187  0.4603  1.8144  1.7561
   60SAPC     N 4565   1.299   1.005  10.870 -0.4548 -0.1321  0.2385
   60SAPC   C12 4566   1.281   0.857  10.836 -0.1192  0.6902 -0.4862
   60SAPC  H12A 4567   1.192   0.820  10.886 -0.9305  0.2265 -2.1869
   60SAPC  H12B 4568   1.362   0.801  10.879  1.0176  1.4646 -1.5825
   60SAPC   C13 4569   1.435   1.053  10.837 -0.4408  0.0699 -0.7467
   60SAPC  H13A 4570   1.464   1.021  10.738 -1.0115 -0.7339 -0.6669
   60SAPC  H13B 4571   1.431   1.160  10.849 -1.0690 -0.1614  1.4865
   60SAPC  H13C 4572   1.499   1.006  10.910 -2.7380 -0.1304  1.2766
   60SAPC   C14 4573   1.205   1.086  10.783  0.1155 -0.8520  0.0369
   60SAPC  H14A 4574   1.101   1.060  10.802 -1.1700  2.9152 -1.0681
   60SAPC  H14B 4575   1.223   1.189  10.809  0.5573 -0.8544 -0.2620
   60SAPC  H14C 4576   1.214   1.073  10.676  0.4332 -0.0685 -0.0369
   60SAPC   C15 4577   1.269   1.022  11.018 -0.1706  0.5794  0.4903
   60SAPC  H15A 4578   1.173   0.985  11.051 -0.1941 -2.5864 -2.5533
   60SAPC  H15B 4579   1.344   0.974  11.079  0.4042  0.1916 -0.5052
   60SAPC  H15C 4580   1.295   1.118  11.060  3.7340 -0.2434  0.3482
   60SAPC   C11 4581   1.263   0.816  10.685  0.4096 -0.2263 -0.3720
   60SAPC  H11A 4582   1.161   0.853  10.658  0.9300  1.4782 -0.1524
   60SAPC  H11B 4583   1.273   0.706  10.672  0.2059 -0.2143 -0.6482
   60SAPC     P 4584   1.331   0.919  10.461  0.4804 -0.2242 -0.2179
   60SAPC   O13 4585   1.238   1.038  10.470  0.2477  0.0478  0.2281
   60SAPC   O14 4586   1.446   0.923  10.373  0.1837 -0.4851 -0.0330
   60SAPC   O12 4587   1.370   0.874  10.608 -0.5750  0.9253  0.4610
   60SAPC   O11 4588   1.245   0.803  10.402 -0.1416 -0.6855  0.8239
   60SAPC    C1 4589   1.110   0.816  10.364  0.4596 -0.4210  0.0953
   60SAPC    HA 4590   1.058   0.719  10.380  0.1551 -0.1186  0.9772
   60SAPC    HB 4591   1.055   0.891  10.425 -2.0548 -0.8683 -1.4664
   60SAPC    C2 4592   1.105   0.849  10.214  0.1291  0.1677  0.3006
   60SAPC    HS 4593   0.994   0.850  10.202  0.0297  0.6560  1.1431
   60SAPC   O21 4594   1.180   0.748  10.142  0.7545  0.1760 -0.0493
   60SAPC   C21 4595   1.120   0.624  10.127 -0.1634 -0.2844 -0.5299
   60SAPC   O22 4596   1.019   0.591  10.187 -0.5927 -0.1290 -0.3172
   60SAPC   C22 4597   1.175   0.550  10.007  0.2702 -0.7740 -0.2576
   60SAPC   H2R 4598   1.247   0.617   9.956  0.7360  0.4382  1.8819
   60SAPC   H2S 4599   1.246   0.484  10.061  0.4632 -0.2479  0.1350
   60SAPC    C3 4600   1.141   0.994  10.170  0.0974  0.0710  0.1538
   60SAPC    HX 4601   1.251   1.009  10.178  0.3608 -1.2558 -0.5834
   60SAPC    HY 4602   1.102   1.073  10.237 -1.6594  0.4284 -1.2123
   60SAPC   O31 4603   1.083   1.017  10.036 -0.3211  0.2116 -0.0579
   60SAPC   C31 4604   1.170   1.026   9.934  0.2330  0.0810  0.1128
   60SAPC   O32 4605   1.294   1.020   9.946  0.4455  0.3228 -0.0039
   60SAPC   C32 4606   1.093   1.029   9.802 -0.4204 -0.4231  0.8320
   60SAPC   H2X 4607   1.027   1.118   9.804  1.0782  0.7746 -0.4981
   60SAPC   H2Y 4608   1.031   0.937   9.790  0.2185 -0.6779 -0.8466
   60SAPC   C23 4609   1.071   0.480   9.924  0.4380 -1.0039 -0.1784
   60SAPC   H3R 4610   0.986   0.456   9.991 -0.6282  0.4380 -0.9507
   60SAPC   H3S 4611   1.109   0.383   9.885  0.0346 -1.4989  0.6360
   60SAPC   C24 4612   1.023   0.568   9.807 -0.1849  0.4263 -0.2032
   60SAPC   H4R 4613   0.992   0.664   9.854 -1.2407 -0.7246  1.5811
   60SAPC   H4S 4614   0.935   0.525   9.754 -1.2633  1.2448  0.8701
   60SAPC   C25 4615   1.132   0.590   9.704 -0.3678  0.5149  0.2369
   60SAPC   H5R 4616   1.201   0.665   9.746 -0.3764 -0.4385  2.0361
   60SAPC   C26 4617   1.144   0.547   9.580  0.1723  0.2102 -0.0432
   60SAPC   H6R 4618   1.227   0.580   9.516 -0.3868  0.0332 -0.8951
   60SAPC   C27 4619   1.050   0.439   9.520 -0.5526  0.4178 -0.3487
   60SAPC   H7R 4620   0.977   0.486   9.450  0.8563  2.9283 -0.2608
   60SAPC   H7S 4621   0.993   0.397   9.605  0.6311 -0.5948 -0.0367
   60SAPC   C28 4622   1.126   0.341   9.432  1.0218  0.0926 -0.3078
   60SAPC   H8R 4623   1.234   0.358   9.421  1.5254 -0.8105  2.5400
   60SAPC   C29 4624   1.065   0.241   9.364  0.0540 -0.5183  0.3375
   60SAPC   H9R 4625   1.134   0.178   9.306  1.4284 -1.3260  2.7354
   60SAPC  C210 4626   0.917   0.219   9.338 -0.5447  0.2529 -0.5993
   60SAPC  H10R 4627   0.864   0.314   9.323  1.4103  1.8725  1.8775
   60SAPC  H10S 4628   0.872   0.185   9.433  3.1896 -0.9316  0.9407
   60SAPC  C211 4629   0.907   0.109   9.238  0.9393 -0.1098  0.1414
   60SAPC  H11R 4630   0.874   0.010   9.276 -1.0859 -0.0770 -1.3506
   60SAPC  C212 4631   0.917   0.118   9.110 -0.3140 -0.1791  0.4900
   60SAPC  H12R 4632   0.909   0.025   9.052  0.3448  0.1804 -0.1922
   60SAPC  C213 4633   0.953   0.240   9.019 -0.2770 -0.3274  0.2467
   60SAPC  H13R 4634   1.052   0.230   8.971 -0.6707  1.1412 -0.9410
   60SAPC  H13S 4635   0.972   0.330   9.081  2.5071 -0.3529 -0.4694
   60SAPC  C214 4636   0.856   0.277   8.906  0.3286 -0.5826 -0.2643
   60SAPC  H14R 4637   0.759   0.317   8.939  0.1067 -1.9452  0.8125
   60SAPC  C215 4638   0.873   0.252   8.776 -0.3615  0.6884  0.3721
   60SAPC  H15R 4639   0.791   0.284   8.710 -1.1245 -2.7025 -0.5311
   60SAPC  C216 4640   0.982   0.169   8.712 -0.3240 -0.5110 -0.5577
   60SAPC  H16R 4641   0.944   0.065   8.715 -0.7326 -0.3529  1.9397
   60SAPC  H16S 4642   1.073   0.172   8.775 -0.1286 -0.2801 -0.8470
   60SAPC  C217 4643   1.013   0.216   8.570  0.1178 -0.3319  0.7575
   60SAPC  H17R 4644   1.038   0.324   8.566 -0.7137 -0.1279  0.8815
   60SAPC  H17S 4645   0.916   0.212   8.516  0.7314  2.9064 -0.8467
   60SAPC  C218 4646   1.114   0.144   8.472  0.0691 -0.2359  0.2181
   60SAPC  H18R 4647   1.103   0.188   8.371 -0.0948 -4.4623 -1.7903
   60SAPC  H18S 4648   1.096   0.037   8.448  1.6657  0.0813 -2.7768
   60SAPC  C219 4649   1.259   0.166   8.519 -0.4118  0.4511  0.5296
   60SAPC  H19R 4650   1.273   0.131   8.624  0.0802  3.4213  1.5515
   60SAPC  H19S 4651   1.278   0.275   8.518  0.0866  0.3620 -0.1479
   60SAPC  C220 4652   1.369   0.106   8.426 -0.0369  0.3312  0.1932
   60SAPC  H20R 4653   1.467   0.156   8.443  0.6905 -0.6696 -0.9361
   60SAPC  H20S 4654   1.357   0.136   8.320  1.2037 -1.4579 -0.5056
   60SAPC  H20T 4655   1.373  -0.005   8.436  2.2023  0.2294 -1.0792
   60SAPC   C33 4656   1.195   1.022   9.683  0.5032 -0.5083 -0.2146
   60SAPC   H3X 4657   1.244   0.922   9.682 -0.0224 -0.7850  0.7772
   60SAPC   H3Y 4658   1.261   1.112   9.679 -0.9886  0.6116 -0.2686
   60SAPC   C34 4659   1.108   1.019   9.554  0.1489 -0.8271  0.7670
   60SAPC   H4X 4660   1.050   1.113   9.546  0.6816 -0.4083  1.6541
   60SAPC   H4Y 4661   1.040   0.933   9.569  0.0407 -1.1697 -1.4550
   60SAPC   C35 4662   1.189   0.997   9.428  0.3015  0.1077 -0.7367
   60SAPC   H5X 4663   1.222   0.892   9.411 -0.1886  0.3113 -3.6006
   60SAPC   H5Y 4664   1.274   1.067   9.434  0.3560  0.0168 -0.4716
   60SAPC   C36 4665   1.119   1.039   9.302  0.0815  0.2283  0.5416
   60SAPC   H6X 4666   1.122   1.150   9.288  1.4039  0.3428  1.5823
   60SAPC   H6Y 4667   1.012   1.007   9.301 -0.8640  3.1041  0.4703
   60SAPC   C37 4668   1.190   0.985   9.173  0.0671  0.0823  0.1639
   60SAPC   H7X 4669   1.206   0.875   9.171 -0.5657 -0.0376  0.9907
   60SAPC   H7Y 4670   1.289   1.035   9.170  1.1327 -1.9463 -0.0817
   60SAPC   C38 4671   1.117   1.017   9.043  0.7871  0.6141  0.2277
   60SAPC   H8X 4672   1.092   1.125   9.048  1.3471  0.8162 -1.0524
   60SAPC   H8Y 4673   1.027   0.953   9.030  3.0458 -2.6319 -0.6464
   60SAPC   C39 4674   1.205   0.998   8.921 -0.1334 -0.1068 -0.4600
   60SAPC   H9X 4675   1.238   0.892   8.917 -1.3302 -0.7966  3.5386
   60SAPC   H9Y 4676   1.294   1.064   8.923  0.3907 -0.6592 -2.6173
   60SAPC  C310 4677   1.126   1.035   8.793 -0.0629 -0.0243  0.2152
   60SAPC  H10X 4678   1.055   1.119   8.807 -2.2874 -1.9535  1.0007
   60SAPC  H10Y 4679   1.056   0.951   8.775 -1.1796  0.6052  1.4706
   60SAPC  C311 4680   1.218   1.052   8.670  0.3599  0.3918 -0.9015
   60SAPC  H11X 4681   1.271   0.954   8.662 -0.2043 -0.0614  0.5290
   60SAPC  H11Y 4682   1.295   1.130   8.690  0.8118 -0.2858  0.1293
   60SAPC  C312 4683   1.144   1.090   8.537  0.1626  0.1630  0.0666
   60SAPC  H12X 4684   1.117   1.197   8.537  1.0958  0.4308  1.7543
   60SAPC  H12Y 4685   1.044   1.044   8.526 -0.2017  1.2620 -1.6151
   60SAPC  C313 4686   1.231   1.069   8.409  0.5107 -0.4836 -0.6407
   60SAPC  H13X 4687   1.179   1.118   8.324 -1.9778  0.5604  1.3413
   60SAPC  H13Y 4688   1.242   0.960   8.395  1.5121 -0.3641 -0.8450
   60SAPC  C314 4689   1.363   1.139   8.423 -0.4610 -0.2358  0.4705
   60SAPC  H14X 4690   1.434   1.084   8.489  0.0830 -0.1349 -0.0275
   60SAPC  H14Y 4691   1.360   1.237   8.476  0.9207 -0.5985  1.2591
   60SAPC  C315 4692   1.420   1.177   8.286  0.5553  0.3732 -0.0611
   60SAPC  H15X 4693   1.354   1.247   8.231  1.8103  0.3187 -1.7282
   60SAPC  H15Y 4694   1.419   1.085   8.223  1.6119  0.3692 -0.1001
   60SAPC  C316 4695   1.569   1.229   8.297  0.3252  0.2367 -0.0904
   60SAPC  H16X 4696   1.620   1.211   8.200 -0.7845 -2.2835 -0.3051
   60SAPC  H16Y 4697   1.607   1.157   8.373  0.2400 -0.2052 -0.4567
   60SAPC  C317 4698   1.588   1.371   8.341 -0.7915  0.4859 -0.2348
   60SAPC  H17X 4699   1.699   1.372   8.330 -0.6498 -1.5272  0.6653
   60SAPC  H17Y 4700   1.562   1.373   8.449  2.0909  1.8959  0.5453
   60SAPC  C318 4701   1.529   1.494   8.263 -0.3955  0.3649  0.4558
   60SAPC  H18X 4702   1.566   1.589   8.306 -0.8676  0.9659 -0.4427
   60SAPC  H18Y 4703   1.418   1.494   8.253 -0.4813 -1.3270  1.0151
   60SAPC  H18Z 4704   1.580   1.491   8.164 -0.2162  0.7078  0.5378
   61SAPC     N 4705   1.941   6.046  10.663  0.2670  0.2335  0.3428
   61SAPC   C12 4706   1.904   6.154  10.560 -0.2018 -0.7500 -0.1098
   61SAPC  H12A 4707   1.884   6.248  10.611 -0.0560  0.8313 -2.7920
   61SAPC  H12B 4708   1.814   6.118  10.514  1.2125 -1.9867 -2.0586
   61SAPC   C13 4709   1.836   6.044  10.764  0.5194  0.0825 -0.7575
   61SAPC  H13A 4710   1.789   6.139  10.790 -1.1062 -1.0749  0.8489
   61SAPC  H13B 4711   1.754   5.975  10.748 -0.0677 -0.3677  3.1176
   61SAPC  H13C 4712   1.884   5.997  10.849  1.2895 -1.6758 -2.1036
   61SAPC   C14 4713   1.957   5.914  10.598 -0.1522 -0.3515  0.4415
   61SAPC  H14A 4714   1.977   5.839  10.674 -2.5150 -1.7979 -0.2487
   61SAPC  H14B 4715   1.866   5.879  10.552 -0.6615 -0.5618  1.5735
   61SAPC  H14C 4716   2.040   5.921  10.529 -2.2249 -0.5447 -2.2370
   61SAPC   C15 4717   2.071   6.081  10.728  0.0366 -0.0596 -0.7698
   61SAPC  H15A 4718   2.138   6.111  10.649 -1.0101  1.1123 -1.2462
   61SAPC  H15B 4719   2.065   6.170  10.790 -2.9876 -1.1649  0.7118
   61SAPC  H15C 4720   2.118   5.999  10.780 -0.8760  0.6492  1.2915
   61SAPC   C11 4721   2.004   6.179  10.438  0.1988  1.1843 -0.0855
   61SAPC  H11A 4722   1.954   6.254  10.373  0.6785  0.3540 -1.4711
   61SAPC  H11B 4723   2.017   6.089  10.374  0.0641  0.3293  1.0560
   61SAPC     P 4724   2.200   6.353  10.465  0.0325 -0.0843 -0.1045
   61SAPC   O13 4725   2.100   6.450  10.418  0.0680 -0.3213  0.3652
   61SAPC   O14 4726   2.264   6.375  10.596 -0.3786 -0.0531 -0.3399
   61SAPC   O12 4727   2.135   6.211  10.469 -0.6906 -0.1766  0.2802
   61SAPC   O11 4728   2.315   6.342  10.360 -0.5198 -0.1411  0.2331
   61SAPC    C1 4729   2.430   6.257  10.356  0.3621  0.0407 -0.1271
   61SAPC    HA 4730   2.524   6.314  10.341 -0.8822  2.3035  0.0725
   61SAPC    HB 4731   2.447   6.206  10.453 -1.0179  0.0471  0.1405
   61SAPC    C2 4732   2.421   6.140  10.247 -0.3175 -0.0262 -0.8625
   61SAPC    HS 4733   2.517   6.085  10.255  0.5386  1.6421  1.5405
   61SAPC   O21 4734   2.403   6.191  10.115  0.1146  0.1768 -0.1460
   61SAPC   C21 4735   2.514   6.233  10.066 -0.4998 -0.7450 -0.2123
   61SAPC   O22 4736   2.625   6.226  10.113 -0.4603  0.4222  0.0799
   61SAPC   C22 4737   2.486   6.279   9.930 -0.2427  0.5088  1.0347
   61SAPC   H2R 4738   2.406   6.217   9.883 -2.7488  1.2522  3.9867
   61SAPC   H2S 4739   2.431   6.376   9.934 -0.2358  0.6738 -1.2385
   61SAPC    C3 4740   2.302   6.045  10.267  0.1845  0.4174 -0.5211
   61SAPC    HX 4741   2.206   6.097  10.249 -0.6201 -0.8470 -0.0494
   61SAPC    HY 4742   2.297   6.003  10.370  1.7213 -1.2544 -1.0728
   61SAPC   O31 4743   2.311   5.944  10.169 -0.0025  0.6296 -0.2724
   61SAPC   C31 4744   2.367   5.828  10.196 -0.5661  0.2361 -0.5854
   61SAPC   O32 4745   2.429   5.804  10.300  1.1624  0.0125  0.2901
   61SAPC   C32 4746   2.336   5.730  10.083 -0.0760 -0.1743 -0.2955
   61SAPC   H2X 4747   2.237   5.769  10.050 -0.1996  1.4751  1.7755
   61SAPC   H2Y 4748   2.326   5.627  10.123  1.2943 -0.1592  0.1426
   61SAPC   C23 4749   2.618   6.287   9.845 -0.2684 -0.3580  0.1615
   61SAPC   H3R 4750   2.674   6.193   9.822  2.2431  1.5878 -2.3996
   61SAPC   H3S 4751   2.701   6.337   9.900  0.9956 -0.9023 -1.1558
   61SAPC   C24 4752   2.583   6.376   9.722  0.0799 -0.1574 -0.3011
   61SAPC   H4R 4753   2.684   6.407   9.686 -0.8428  0.6564 -2.3965
   61SAPC   H4S 4754   2.538   6.471   9.756 -0.6557  0.0163 -1.6832
   61SAPC   C25 4755   2.492   6.322   9.607  0.0755  0.3830  0.5862
   61SAPC   H5R 4756   2.541   6.253   9.538  2.5986  2.2828  0.3136
   61SAPC   C26 4757   2.375   6.375   9.567  0.9365 -0.1607 -0.1675
   61SAPC   H6R 4758   2.330   6.329   9.477 -1.1995 -0.0374  0.7815
   61SAPC   C27 4759   2.290   6.485   9.631 -1.3497  0.4318  0.4242
   61SAPC   H7R 4760   2.293   6.574   9.563  0.9570 -0.9814 -1.4973
   61SAPC   H7S 4761   2.339   6.514   9.726 -1.3333 -1.7569  1.1352
   61SAPC   C28 4762   2.154   6.438   9.665  0.0970  0.5437  0.1459
   61SAPC   H8R 4763   2.147   6.376   9.756  0.9805  1.1170  0.6170
   61SAPC   C29 4764   2.050   6.447   9.587  0.4173 -0.9309  0.0429
   61SAPC   H9R 4765   1.957   6.405   9.628 -1.3412  0.6520 -2.0709
   61SAPC  C210 4766   2.028   6.500   9.447 -0.4637 -0.5286 -0.2065
   61SAPC  H10R 4767   2.090   6.587   9.418 -0.0724 -1.0163 -0.8966
   61SAPC  H10S 4768   1.922   6.529   9.428 -0.6463 -1.6210 -1.0301
   61SAPC  C211 4769   2.062   6.389   9.349 -0.0401 -0.5385  0.2776
   61SAPC  H11R 4770   2.058   6.282   9.372 -0.0704 -0.6807 -0.3699
   61SAPC  C212 4771   2.073   6.398   9.214  0.6834  0.3424 -0.3833
   61SAPC  H12R 4772   2.106   6.312   9.153 -2.2831 -0.0700 -1.6098
   61SAPC  C213 4773   2.051   6.528   9.144 -0.1565 -0.0281  0.8916
   61SAPC  H13R 4774   1.999   6.598   9.212  2.9542  2.3664  0.9926
   61SAPC  H13S 4775   1.991   6.507   9.052  0.5347 -3.0286  1.0052
   61SAPC  C214 4776   2.178   6.598   9.102 -0.6021 -0.4625 -0.0581
   61SAPC  H14R 4777   2.267   6.574   9.163 -2.1763 -3.9593  1.1269
   61SAPC  C215 4778   2.184   6.694   9.005  0.4544 -0.1733  0.0954
   61SAPC  H15R 4779   2.282   6.738   8.985  0.8368 -0.2332  1.7078
   61SAPC  C216 4780   2.069   6.727   8.903 -0.3498  0.3272 -1.0831
   61SAPC  H16R 4781   2.081   6.826   8.854 -0.0854  0.7330 -0.2032
   61SAPC  H16S 4782   1.977   6.730   8.963 -0.0854 -2.3820 -0.3859
   61SAPC  C217 4783   2.045   6.618   8.801  0.1258  0.2269  0.2052
   61SAPC  H17R 4784   1.958   6.648   8.739  1.2548  0.4808 -1.2892
   61SAPC  H17S 4785   2.013   6.520   8.843  2.9099 -1.2729 -0.9162
   61SAPC  C218 4786   2.168   6.587   8.712  0.2440 -0.4935 -0.0625
   61SAPC  H18R 4787   2.163   6.486   8.665  0.7109 -0.1729 -0.8315
   61SAPC  H18S 4788   2.258   6.582   8.776  0.8223 -0.0855 -0.8248
   61SAPC  C219 4789   2.196   6.677   8.600 -0.2180 -0.5633  0.2444
   61SAPC  H19R 4790   2.212   6.777   8.647  1.2763 -0.4583 -0.4111
   61SAPC  H19S 4791   2.118   6.699   8.524  2.3567  1.8189 -1.9261
   61SAPC  C220 4792   2.319   6.638   8.521  0.5984 -0.2902  0.4444
   61SAPC  H20R 4793   2.406   6.618   8.587 -0.2463  0.7579  1.9450
   61SAPC  H20S 4794   2.350   6.715   8.447 -1.2608 -0.1349 -0.2384
   61SAPC  H20T 4795   2.305   6.546   8.460 -2.3478 -1.3911  2.5482
   61SAPC   C33 4796   2.434   5.721   9.962  0.5804 -0.0323  0.0675
   61SAPC   H3X 4797   2.397   5.636   9.902 -0.2886  0.8979 -0.7474
   61SAPC   H3Y 4798   2.536   5.689   9.993  0.3732 -1.6029 -0.7556
   61SAPC   C34 4799   2.435   5.854   9.881  0.9897 -0.1490 -0.6604
   61SAPC   H4X 4800   2.517   5.917   9.922 -0.8885  0.8686  1.7363
   61SAPC   H4Y 4801   2.333   5.897   9.887 -0.1547 -2.7783  0.5274
   61SAPC   C35 4802   2.485   5.821   9.738 -0.5499  0.3711 -0.9767
   61SAPC   H5X 4803   2.421   5.742   9.693 -1.3160  1.3185 -1.5921
   61SAPC   H5Y 4804   2.584   5.772   9.753  0.0366  2.0364  0.9824
   61SAPC   C36 4805   2.504   5.946   9.653  0.5450 -0.1039  0.6280
   61SAPC   H6X 4806   2.595   6.000   9.685  0.8304 -1.0011  1.3589
   61SAPC   H6Y 4807   2.420   6.016   9.673  1.7482  2.1859 -1.6388
   61SAPC   C37 4808   2.517   5.913   9.501  0.0243 -0.1047  0.7135
   61SAPC   H7X 4809   2.505   6.009   9.447 -3.3741 -1.4042 -1.1491
   61SAPC   H7Y 4810   2.430   5.848   9.476 -0.7719  1.1683  0.0817
   61SAPC   C38 4811   2.645   5.839   9.445 -0.0826  0.2465 -1.0135
   61SAPC   H8X 4812   2.656   5.748   9.508 -2.2232  0.8529  0.3718
   61SAPC   H8Y 4813   2.734   5.901   9.471  0.0660  0.4676 -2.0278
   61SAPC   C39 4814   2.656   5.808   9.295  0.0959  0.1231 -0.2576
   61SAPC   H9X 4815   2.760   5.833   9.266 -0.4810  0.0177 -2.6160
   61SAPC   H9Y 4816   2.592   5.880   9.241  0.7455  0.4228 -0.6383
   61SAPC  C310 4817   2.629   5.660   9.253 -0.3392  0.4556 -0.4688
   61SAPC  H10X 4818   2.522   5.634   9.267  0.1172 -0.7501  1.0560
   61SAPC  H10Y 4819   2.689   5.589   9.314  1.8266  0.9677 -1.9229
   61SAPC  C311 4820   2.679   5.630   9.112 -0.1351 -0.2144  0.4582
   61SAPC  H11X 4821   2.789   5.637   9.128  0.0282 -1.0443 -0.2363
   61SAPC  H11Y 4822   2.645   5.717   9.052 -1.3392 -0.4234  0.8045
   61SAPC  C312 4823   2.647   5.496   9.046  0.3427 -0.4166  0.3673
   61SAPC  H12X 4824   2.545   5.468   9.078 -0.1083  1.6672  0.9228
   61SAPC  H12Y 4825   2.725   5.426   9.082 -0.8602 -1.3887  1.1497
   61SAPC  C313 4826   2.655   5.502   8.893  0.0975 -0.4738 -0.1592
   61SAPC  H13X 4827   2.580   5.569   8.846 -1.9069 -1.1263  1.8695
   61SAPC  H13Y 4828   2.636   5.400   8.853  0.1236 -0.0285 -1.3386
   61SAPC  C314 4829   2.798   5.533   8.838 -0.3384 -0.5922  0.2151
   61SAPC  H14X 4830   2.861   5.477   8.910  0.7854  0.3183 -0.0250
   61SAPC  H14Y 4831   2.836   5.636   8.854  1.2362 -1.1810  0.3982
   61SAPC  C315 4832   2.829   5.498   8.695  0.3551 -0.0240 -0.0033
   61SAPC  H15X 4833   2.798   5.394   8.669 -3.6896  1.1103 -0.5349
   61SAPC  H15Y 4834   2.935   5.524   8.677 -0.1870  3.1685  0.8197
   61SAPC  C316 4835   2.743   5.581   8.592  0.1709  0.3775 -1.6329
   61SAPC  H16X 4836   2.761   5.683   8.632  1.6613 -0.3970 -0.2115
   61SAPC  H16Y 4837   2.638   5.558   8.620  0.9419 -0.2216  1.0946
   61SAPC  C317 4838   2.777   5.552   8.446  0.4141  0.0296  0.1941
   61SAPC  H17X 4839   2.762   5.444   8.428  2.1300 -0.1846 -0.0910
   61SAPC  H17Y 4840   2.887   5.553   8.428  0.4305  0.9559  0.2788
   61SAPC  C318 4841   2.703   5.647   8.346  0.5217 -0.2162  0.1948
   61SAPC  H18X 4842   2.593   5.657   8.358  0.6893  1.0317  0.7052
   61SAPC  H18Y 4843   2.719   5.610   8.242 -0.5008 -0.0031 -0.0449
   61SAPC  H18Z 4844   2.749   5.747   8.356  1.7053 -0.6372 -0.7114
   62SAPC     N 4845   2.612   5.145  10.555 -0.2711 -0.1842 -0.2761
   62SAPC   C12 4846   2.536   5.198  10.434  0.3907  0.4197 -0.1567
   62SAPC  H12A 4847   2.593   5.161  10.350  1.0166 -0.9804  0.8489
   62SAPC  H12B 4848   2.534   5.306  10.437 -3.6418  0.5436 -0.7485
   62SAPC   C13 4849   2.592   4.997  10.560  0.4076 -1.0801 -0.8362
   62SAPC  H13A 4850   2.624   4.953  10.467 -0.6552 -1.0911 -1.2116
   62SAPC  H13B 4851   2.645   4.961  10.647  1.9186 -0.0489 -1.2835
   62SAPC  H13C 4852   2.485   4.987  10.568  0.5049 -0.5573  2.8944
   62SAPC   C14 4853   2.758   5.179  10.522 -0.2040  0.1220 -0.5159
   62SAPC  H14A 4854   2.820   5.125  10.592 -1.9992 -3.4762 -1.4492
   62SAPC  H14B 4855   2.791   5.173  10.419  0.3384  0.0933 -0.3483
   62SAPC  H14C 4856   2.769   5.286  10.533 -0.3442  0.1185 -0.3364
   62SAPC   C15 4857   2.567   5.209  10.678  0.1846 -0.3620  0.3701
   62SAPC  H15A 4858   2.464   5.191  10.705 -0.5837  0.1546 -2.0350
   62SAPC  H15B 4859   2.624   5.165  10.759  2.9278  0.5132 -0.9707
   62SAPC  H15C 4860   2.579   5.317  10.676 -1.2714 -0.0807  2.6677
   62SAPC   C11 4861   2.384   5.155  10.414  0.1171  0.3394  0.0271
   62SAPC  H11A 4862   2.365   5.046  10.422 -0.5885  0.3139 -1.5404
   62SAPC  H11B 4863   2.349   5.179  10.311 -0.6505  0.4757  0.3097
   62SAPC     P 4864   2.148   5.183  10.543  0.1410 -0.1443  0.2351
   62SAPC   O13 4865   2.147   5.051  10.608  0.4631  0.1749 -0.0482
   62SAPC   O14 4866   2.093   5.293  10.622  0.4625 -0.0190 -0.7316
   62SAPC   O12 4867   2.300   5.227  10.504 -0.2864  0.2464  0.0169
   62SAPC   O11 4868   2.064   5.172  10.405 -0.0088 -0.4714 -0.4001
   62SAPC    C1 4869   2.054   5.272  10.304  0.6049  0.1682 -0.4465
   62SAPC    HA 4870   1.955   5.321  10.313  0.2398  0.0164 -2.8617
   62SAPC    HB 4871   2.138   5.345  10.310  1.8633 -1.1381 -1.4462
   62SAPC    C2 4872   2.071   5.215  10.162 -0.5810 -0.3034 -0.1196
   62SAPC    HS 4873   2.171   5.167  10.163  1.5785  3.7291  0.9655
   62SAPC   O21 4874   2.050   5.316  10.062 -0.1040 -0.0808 -0.6487
   62SAPC   C21 4875   2.149   5.391  10.025 -0.4311 -0.2140  0.0980
   62SAPC   O22 4876   2.263   5.382  10.067 -0.6302  0.5559 -0.4359
   62SAPC   C22 4877   2.101   5.490   9.917  0.2313 -0.1120 -0.5158
   62SAPC   H2R 4878   2.001   5.529   9.946  1.5798  2.9629  0.3765
   62SAPC   H2S 4879   2.166   5.580   9.913  1.0635 -0.7134 -0.7921
   62SAPC    C3 4880   1.960   5.104  10.140  0.0907  0.4548  0.1194
   62SAPC    HX 4881   1.866   5.163  10.141 -1.8875 -2.4946  0.1103
   62SAPC    HY 4882   1.964   5.033  10.225  1.7022 -0.0252 -0.3276
   62SAPC   O31 4883   1.972   5.035  10.015 -0.2590 -0.5844  0.2815
   62SAPC   C31 4884   1.893   5.092   9.918  0.3429  0.0795  0.2752
   62SAPC   O32 4885   1.789   5.148   9.939  0.0953 -0.7108  0.2350
   62SAPC   C32 4886   1.951   5.071   9.780  0.5783 -0.1734  0.2562
   62SAPC   H2X 4887   1.957   4.961   9.766  0.1134  0.0977 -2.6965
   62SAPC   H2Y 4888   2.047   5.125   9.790  0.5734 -0.2206  0.5538
   62SAPC   C23 4889   2.090   5.427   9.777  0.0190 -0.6716  0.1035
   62SAPC   H3R 4890   2.001   5.363   9.785 -0.2805 -0.3435 -0.4942
   62SAPC   H3S 4891   2.183   5.372   9.751  0.6041  0.8634 -1.2529
   62SAPC   C24 4892   2.051   5.537   9.666 -0.3947 -0.4563 -0.3663
   62SAPC   H4R 4893   1.987   5.616   9.712  1.0614  0.4269  0.2050
   62SAPC   H4S 4894   1.989   5.480   9.594 -0.7303  0.0174 -0.4633
   62SAPC   C25 4895   2.175   5.600   9.601  0.0006  0.1148  0.0305
   62SAPC   H5R 4896   2.216   5.685   9.658 -0.3701  0.5859 -0.4031
   62SAPC   C26 4897   2.222   5.567   9.480 -0.5220 -0.1398  0.1384
   62SAPC   H6R 4898   2.316   5.617   9.450 -1.5373  2.3594  0.8279
   62SAPC   C27 4899   2.179   5.446   9.392  0.2716  0.2282 -0.1187
   62SAPC   H7R 4900   2.090   5.391   9.430 -0.5462  1.5330 -0.0570
   62SAPC   H7S 4901   2.260   5.371   9.403 -1.3655 -1.4115  1.4316
   62SAPC   C28 4902   2.137   5.484   9.256  1.1756  0.1267  0.3521
   62SAPC   H8R 4903   2.070   5.571   9.263  1.8872  0.6352  0.9297
   62SAPC   C29 4904   2.171   5.434   9.133  0.6942 -0.0088  0.0435
   62SAPC   H9R 4905   2.137   5.475   9.037  1.7453 -0.6415 -0.6141
   62SAPC  C210 4906   2.267   5.321   9.115 -0.0700  0.3880  0.3371
   62SAPC  H10R 4907   2.213   5.224   9.119  0.5370  0.0342  0.2436
   62SAPC  H10S 4908   2.334   5.313   9.204  0.3517 -0.5763 -0.0425
   62SAPC  C211 4909   2.341   5.331   8.985  0.2815 -0.0977  0.6034
   62SAPC  H11R 4910   2.334   5.431   8.939  1.0094  0.3045  1.3497
   62SAPC  C212 4911   2.410   5.236   8.923  0.4129 -0.7431  0.0172
   62SAPC  H12R 4912   2.464   5.263   8.830 -1.2589  3.0700 -0.0204
   62SAPC  C213 4913   2.430   5.097   8.970 -1.3254  1.0661 -0.3644
   62SAPC  H13R 4914   2.380   5.026   8.900 -1.1558  0.2226  0.3422
   62SAPC  H13S 4915   2.369   5.069   9.059  0.6874 -2.0050  0.2071
   62SAPC  C214 4916   2.575   5.058   9.001  0.0156 -0.4193 -0.1567
   62SAPC  H14R 4917   2.633   5.023   8.914  0.8709  1.8658 -0.5494
   62SAPC  C215 4918   2.630   5.055   9.122  0.3316  0.4116 -0.5334
   62SAPC  H15R 4919   2.734   5.019   9.130  0.3673  0.0775 -2.1044
   62SAPC  C216 4920   2.559   5.092   9.248 -0.1908  0.2175 -0.2965
   62SAPC  H16R 4921   2.528   5.015   9.322  1.8121 -0.6107 -0.2551
   62SAPC  H16S 4922   2.466   5.153   9.238  0.5227  1.7122  1.4657
   62SAPC  C217 4923   2.641   5.187   9.342  1.0256  0.1735  0.5024
   62SAPC  H17R 4924   2.624   5.293   9.314 -0.6982  0.3318  1.9903
   62SAPC  H17S 4925   2.745   5.147   9.340  0.1585 -2.2231 -1.1100
   62SAPC  C218 4926   2.589   5.183   9.487  0.1425 -0.1833  0.3371
   62SAPC  H18R 4927   2.578   5.080   9.526 -2.6459  0.1319  0.5712
   62SAPC  H18S 4928   2.488   5.227   9.496  0.2897  0.6163 -1.4540
   62SAPC  C219 4929   2.673   5.257   9.596 -0.6036  0.3751 -0.0466
   62SAPC  H19R 4930   2.708   5.355   9.557 -0.1195 -0.0608 -0.7207
   62SAPC  H19S 4931   2.764   5.197   9.620  0.6601  2.5240  0.8187
   62SAPC  C220 4932   2.603   5.276   9.729 -0.7469  0.3782 -0.2399
   62SAPC  H20R 4933   2.615   5.184   9.789  0.8838 -0.7450 -2.1877
   62SAPC  H20S 4934   2.497   5.301   9.709 -0.8215  0.4035  0.1711
   62SAPC  H20T 4935   2.656   5.350   9.793  0.7715 -0.5448 -0.3757
   62SAPC   C33 4936   1.866   5.127   9.663  0.3497 -0.6817  0.1263
   62SAPC   H3X 4937   1.839   5.232   9.687  0.7854 -1.0479  2.3876
   62SAPC   H3Y 4938   1.773   5.066   9.663  0.2896 -0.5948 -0.3399
   62SAPC   C34 4939   1.949   5.114   9.535 -0.5936 -0.5969 -0.0383
   62SAPC   H4X 4940   1.982   5.009   9.528 -0.0366 -0.4572  0.3925
   62SAPC   H4Y 4941   2.035   5.183   9.551  0.1401 -1.3414 -0.7647
   62SAPC   C35 4942   1.866   5.157   9.415 -0.4154 -0.2907  0.7045
   62SAPC   H5X 4943   1.829   5.262   9.420 -1.0959 -0.3802 -1.4548
   62SAPC   H5Y 4944   1.778   5.090   9.404 -1.6417  1.5943 -2.3564
   62SAPC   C36 4945   1.938   5.155   9.280  0.1827  0.9421 -0.1925
   62SAPC   H6X 4946   1.953   5.047   9.257 -2.6787  0.0662  1.4736
   62SAPC   H6Y 4947   2.042   5.192   9.292  0.4125  0.0407  0.7728
   62SAPC   C37 4948   1.868   5.232   9.169 -0.2642 -0.1856  0.4486
   62SAPC   H7X 4949   1.879   5.342   9.180  0.7458 -0.4791  2.8752
   62SAPC   H7Y 4950   1.763   5.195   9.170 -0.4153  0.1770 -0.6087
   62SAPC   C38 4951   1.929   5.198   9.028 -0.0927  0.3405 -0.1358
   62SAPC   H8X 4952   2.038   5.216   9.028 -0.0345  0.1350 -1.7562
   62SAPC   H8Y 4953   1.883   5.276   8.964 -1.3861 -0.2413  0.0563
   62SAPC   C39 4954   1.911   5.054   8.995  1.4415 -0.0079  0.3888
   62SAPC   H9X 4955   1.812   5.025   9.035  1.4491  0.0372  0.4396
   62SAPC   H9Y 4956   1.989   4.984   9.031  0.3564 -1.4920 -0.0412
   62SAPC  C310 4957   1.901   5.040   8.839  0.0244 -0.0914 -1.0202
   62SAPC  H10X 4958   1.912   4.931   8.820  0.9211  0.0593 -1.3997
   62SAPC  H10Y 4959   1.977   5.105   8.792  0.5193  2.2177  2.6503
   62SAPC  C311 4960   1.764   5.086   8.784  0.4528  0.0091  0.3714
   62SAPC  H11X 4961   1.765   5.197   8.784  0.2397  0.0117  0.3149
   62SAPC  H11Y 4962   1.679   5.060   8.851  1.2373 -2.2134  0.6188
   62SAPC  C312 4963   1.733   5.008   8.651  0.6506 -0.2828 -0.3396
   62SAPC  H12X 4964   1.732   4.900   8.675 -1.5943 -0.0871  0.6762
   62SAPC  H12Y 4965   1.819   5.037   8.587 -0.4869  1.1211 -1.2914
   62SAPC  C313 4966   1.613   5.063   8.567  0.7088 -0.1115 -0.2190
   62SAPC  H13X 4967   1.637   5.169   8.544  0.1095 -0.0347 -0.5041
   62SAPC  H13Y 4968   1.525   5.070   8.634 -0.5214  2.3407 -1.9474
   62SAPC  C314 4969   1.602   4.992   8.433 -0.0561  0.3968  0.0606
   62SAPC  H14X 4970   1.589   4.883   8.445 -0.1711  0.5644  1.7122
   62SAPC  H14Y 4971   1.694   5.007   8.372 -1.3183  0.0753 -2.0437
   62SAPC  C315 4972   1.488   5.047   8.341 -0.4136 -0.1638 -0.7677
   62SAPC  H15X 4973   1.505   5.022   8.234 -2.4237  0.4380 -1.2726
   62SAPC  H15Y 4974   1.478   5.157   8.347 -1.2282 -0.1923 -1.5115
   62SAPC  C316 4975   1.350   4.987   8.374 -0.2126 -0.1713  0.8873
   62SAPC  H16X 4976   1.308   5.006   8.475  0.3528 -0.9422  1.2686
   62SAPC  H16Y 4977   1.384   4.882   8.366  3.0604  0.8057  0.5733
   62SAPC  C317 4978   1.242   5.002   8.264 -0.4298 -0.1516  1.1381
   62SAPC  H17X 4979   1.145   4.969   8.304 -1.6405  0.4360 -1.1150
   62SAPC  H17Y 4980   1.277   4.944   8.175 -0.0619  0.4324  0.8903
   62SAPC  C318 4981   1.214   5.147   8.212 -0.1039  0.1317 -0.2398
   62SAPC  H18X 4982   1.299   5.171   8.144  1.1605 -3.7132 -0.3170
   62SAPC  H18Y 4983   1.205   5.223   8.292 -1.4536 -0.2620  0.0083
   62SAPC  H18Z 4984   1.113   5.141   8.166 -0.2231 -0.0089  0.0393
   63SAPC     N 4985   2.448   3.759   5.946 -0.4608  0.8013 -0.5489
   63SAPC   C12 4986   2.440   3.693   6.082 -0.5981  0.1164 -0.3433
   63SAPC  H12A 4987   2.503   3.750   6.148  1.9360 -0.9442 -1.6978
   63SAPC  H12B 4988   2.487   3.596   6.071  0.0214  0.3597  0.1748
   63SAPC   C13 4989   2.401   3.672   5.844  0.6462  0.8377  0.2405
   63SAPC  H13A 4990   2.467   3.589   5.824  1.1969  1.2519  0.3123
   63SAPC  H13B 4991   2.307   3.625   5.868 -1.3391  2.4528 -3.6679
   63SAPC  H13C 4992   2.384   3.726   5.752 -2.7707 -3.1141 -1.7854
   63SAPC   C14 4993   2.368   3.882   5.939 -0.3286 -0.7187  0.3684
   63SAPC  H14A 4994   2.262   3.861   5.935 -0.4857  0.1526 -2.3236
   63SAPC  H14B 4995   2.383   3.959   6.013  0.1227 -0.6400  0.1974
   63SAPC  H14C 4996   2.404   3.927   5.848 -0.2647 -2.2854 -0.4022
   63SAPC   C15 4997   2.593   3.791   5.917 -0.3609 -0.3316  0.0301
   63SAPC  H15A 4998   2.656   3.704   5.926  1.1516  0.7653  0.4652
   63SAPC  H15B 4999   2.597   3.822   5.814  0.8824 -2.8436 -0.7601
   63SAPC  H15C 5000   2.621   3.864   5.991  1.6655 -1.3888  0.3712
   63SAPC   C11 5001   2.303   3.668   6.149  0.1043  0.3244 -0.0897
   63SAPC  H11A 5002   2.245   3.762   6.147  0.0956  0.3461 -2.8795
   63SAPC  H11B 5003   2.310   3.642   6.257 -0.1399  0.2405 -0.0940
   63SAPC     P 5004   2.235   3.424   6.107 -0.4091 -0.4200  0.2243
   63SAPC   O13 5005   2.097   3.385   6.124 -0.5087  0.1144  0.1031
   63SAPC   O14 5006   2.312   3.361   5.994  0.7333  0.1330 -0.3001
   63SAPC   O12 5007   2.228   3.578   6.076 -0.7206  0.8453  0.1936
   63SAPC   O11 5008   2.322   3.413   6.241 -0.1141  0.4527  0.3191
   63SAPC    C1 5009   2.275   3.328   6.345 -0.4590 -0.4785 -0.0918
   63SAPC    HA 5010   2.212   3.240   6.318  0.3624 -0.8110 -0.9805
   63SAPC    HB 5011   2.363   3.272   6.382 -0.9137  0.1683  2.0918
   63SAPC    C2 5012   2.219   3.418   6.463 -0.0565 -0.2172 -0.3659
   63SAPC    HS 5013   2.141   3.474   6.409 -2.0025 -2.2236  0.1997
   63SAPC   O21 5014   2.337   3.493   6.510 -0.8759 -0.5317 -0.2887
   63SAPC   C21 5015   2.311   3.614   6.559  0.4977 -0.4544 -0.2188
   63SAPC   O22 5016   2.203   3.670   6.569  0.5417 -0.2576  0.1400
   63SAPC   C22 5017   2.444   3.678   6.602 -0.3114 -0.4466 -1.0780
   63SAPC   H2R 5018   2.523   3.643   6.532 -1.6847 -2.3018 -1.7804
   63SAPC   H2S 5019   2.422   3.787   6.600  1.7690  0.0952  0.7660
   63SAPC    C3 5020   2.154   3.327   6.575  0.4844  0.1163  0.2212
   63SAPC    HX 5021   2.224   3.256   6.624 -2.2603 -2.1160  1.2034
   63SAPC    HY 5022   2.086   3.258   6.521  2.1410 -0.2297 -1.5221
   63SAPC   O31 5023   2.087   3.394   6.683  0.1698 -0.5714  0.5112
   63SAPC   C31 5024   1.958   3.417   6.666  0.6337 -1.0332 -0.2475
   63SAPC   O32 5025   1.882   3.368   6.580 -0.2913 -0.2773  0.0857
   63SAPC   C32 5026   1.915   3.525   6.770  0.3234 -0.1582 -0.5393
   63SAPC   H2X 5027   1.987   3.609   6.760  0.0479  0.0953 -0.3956
   63SAPC   H2Y 5028   1.920   3.474   6.869 -0.1450 -1.2832 -1.0817
   63SAPC   C23 5029   2.484   3.639   6.745  0.0584  0.4199 -0.8264
   63SAPC   H3R 5030   2.391   3.632   6.806  0.5815  0.5063 -0.0042
   63SAPC   H3S 5031   2.546   3.718   6.792  1.5805 -0.5906 -1.0721
   63SAPC   C24 5032   2.555   3.509   6.751 -0.6120  0.6254 -0.4530
   63SAPC   H4R 5033   2.657   3.523   6.709  0.8157 -2.1698  1.7369
   63SAPC   H4S 5034   2.509   3.430   6.688  1.9752 -0.8834 -0.6324
   63SAPC   C25 5035   2.572   3.464   6.899  0.5082 -0.0092  0.6234
   63SAPC   H5R 5036   2.675   3.469   6.937  0.7813 -0.0042 -0.0929
   63SAPC   C26 5037   2.486   3.406   6.980  0.1033  1.1237  0.7426
   63SAPC   H6R 5038   2.517   3.380   7.082  0.2299  3.7049  1.4215
   63SAPC   C27 5039   2.357   3.355   6.930  0.2328  0.1763  0.2296
   63SAPC   H7R 5040   2.350   3.245   6.948 -0.2599 -0.1952 -1.9805
   63SAPC   H7S 5041   2.341   3.354   6.820 -0.7218 -0.5819  0.3572
   63SAPC   C28 5042   2.238   3.420   6.988 -0.0288 -0.4814 -0.4156
   63SAPC   H8R 5043   2.182   3.477   6.912  2.9859  1.8086 -1.1185
   63SAPC   C29 5044   2.199   3.421   7.119 -0.1316  0.2505  0.3628
   63SAPC   H9R 5045   2.120   3.492   7.149 -0.7736 -0.2284 -0.1597
   63SAPC  C210 5046   2.261   3.354   7.239  0.5287 -0.0649 -0.4051
   63SAPC  H10R 5047   2.360   3.312   7.214  0.8663 -0.5693  1.6457
   63SAPC  H10S 5048   2.203   3.261   7.256  0.5236 -0.3404 -1.8030
   63SAPC  C211 5049   2.277   3.438   7.365  0.1913 -0.2603 -0.7303
   63SAPC  H11R 5050   2.260   3.545   7.346 -0.1122 -0.2310 -0.3146
   63SAPC  C212 5051   2.331   3.399   7.481 -0.5484  0.0785  0.3038
   63SAPC  H12R 5052   2.337   3.478   7.557  1.6781  0.6450 -0.4099
   63SAPC  C213 5053   2.369   3.258   7.503 -0.3519  0.0978 -0.2606
   63SAPC  H13R 5054   2.431   3.225   7.417 -2.0129 -1.2886 -1.0027
   63SAPC  H13S 5055   2.274   3.200   7.502  0.2809 -1.0257 -2.8080
   63SAPC  C214 5056   2.459   3.237   7.625 -0.1555 -0.0854 -0.0274
   63SAPC  H14R 5057   2.565   3.258   7.607 -0.7031  2.1234 -0.9250
   63SAPC  C215 5058   2.422   3.198   7.753  0.6572 -0.3373  0.2887
   63SAPC  H15R 5059   2.502   3.206   7.828 -0.0174  0.6629  0.9195
   63SAPC  C216 5060   2.283   3.158   7.811  0.1268  0.6481  0.4007
   63SAPC  H16R 5061   2.277   3.048   7.798 -1.3025  0.7925 -0.2931
   63SAPC  H16S 5062   2.202   3.210   7.756  0.8386 -0.0895 -1.4046
   63SAPC  C217 5063   2.268   3.184   7.963 -0.1263  0.2716 -0.0808
   63SAPC  H17R 5064   2.160   3.190   7.988  0.0615  0.7218  0.6474
   63SAPC  H17S 5065   2.321   3.274   8.002  0.5090  0.7807 -1.9657
   63SAPC  C218 5066   2.327   3.068   8.041 -0.3612  1.0070  0.2383
   63SAPC  H18R 5067   2.428   3.064   7.995 -0.7152  3.1189 -0.8339
   63SAPC  H18S 5068   2.273   2.973   8.023  2.6874 -0.8519  0.1915
   63SAPC  C219 5069   2.337   3.084   8.196  0.4278  0.2750  0.5252
   63SAPC  H19R 5070   2.372   2.988   8.240 -1.8405 -1.1291 -0.5409
   63SAPC  H19S 5071   2.233   3.103   8.230 -0.6520 -0.6498 -1.9876
   63SAPC  C220 5072   2.420   3.200   8.252  0.3063 -0.1029  0.5162
   63SAPC  H20R 5073   2.399   3.214   8.360 -1.8289  1.8144 -0.0718
   63SAPC  H20S 5074   2.402   3.291   8.191  1.2108 -0.0095  0.3749
   63SAPC  H20T 5075   2.530   3.186   8.243  0.2380  0.4938 -1.7698
   63SAPC   C33 5076   1.770   3.573   6.763 -0.6140 -0.8651  0.0870
   63SAPC   H3X 5077   1.710   3.486   6.795 -2.7459 -0.3397 -2.1471
   63SAPC   H3Y 5078   1.723   3.597   6.665 -0.4752  1.3560  0.5102
   63SAPC   C34 5079   1.743   3.685   6.858 -0.9329 -0.0855 -0.3930
   63SAPC   H4X 5080   1.769   3.781   6.810  2.6752  0.6402  2.5136
   63SAPC   H4Y 5081   1.797   3.678   6.955  0.1213 -1.0246 -1.0160
   63SAPC   C35 5082   1.590   3.690   6.898 -0.2234 -0.0005 -0.0694
   63SAPC   H5X 5083   1.530   3.654   6.812 -0.4815  2.4219 -0.9798
   63SAPC   H5Y 5084   1.566   3.798   6.913 -0.3293 -0.0341 -0.0003
   63SAPC   C36 5085   1.557   3.601   7.018  0.3367 -0.0947  0.6369
   63SAPC   H6X 5086   1.631   3.623   7.098  0.8622  0.1150  0.0988
   63SAPC   H6Y 5087   1.579   3.501   6.975  0.4908  0.0552  0.3600
   63SAPC   C37 5088   1.424   3.622   7.089 -0.4668 -0.8342 -0.8317
   63SAPC   H7X 5089   1.357   3.558   7.027 -0.7562 -0.3674 -1.0056
   63SAPC   H7Y 5090   1.398   3.730   7.094 -1.5682 -0.9793 -2.6215
   63SAPC   C38 5091   1.427   3.566   7.226 -0.3860 -0.1803 -0.9201
   63SAPC   H8X 5092   1.464   3.463   7.205 -5.0353 -1.6561 -3.3565
   63SAPC   H8Y 5093   1.324   3.541   7.261  1.0551 -3.0711  1.7058
   63SAPC   C39 5094   1.506   3.662   7.322  0.8568 -0.1044  0.0395
   63SAPC   H9X 5095   1.463   3.763   7.303 -3.1377 -1.3271  1.6018
   63SAPC   H9Y 5096   1.612   3.649   7.292 -0.1859 -3.1258 -3.0580
   63SAPC  C310 5097   1.489   3.637   7.475 -0.1163  0.1636 -0.1825
   63SAPC  H10X 5098   1.532   3.535   7.487  0.6795  0.6781  1.6918
   63SAPC  H10Y 5099   1.384   3.636   7.512 -0.0829  1.0785 -0.0610
   63SAPC  C311 5100   1.566   3.730   7.566  0.2703  0.5059  0.0786
   63SAPC  H11X 5101   1.535   3.834   7.540 -0.8682  0.0538 -0.4637
   63SAPC  H11Y 5102   1.673   3.717   7.538  0.5320 -1.2063  1.7302
   63SAPC  C312 5103   1.556   3.697   7.716  0.1795  0.1664  0.4896
   63SAPC  H12X 5104   1.598   3.602   7.755  1.7974  0.9001  0.6289
   63SAPC  H12Y 5105   1.453   3.696   7.757  1.6549 -0.1357  4.6055
   63SAPC  C313 5106   1.625   3.816   7.789  0.0720  0.0548 -0.0758
   63SAPC  H13X 5107   1.571   3.912   7.778  2.3879  1.7572  2.0215
   63SAPC  H13Y 5108   1.725   3.819   7.741  0.0796 -0.2965 -0.0801
   63SAPC  C314 5109   1.660   3.798   7.944 -0.8975 -0.2822 -0.5148
   63SAPC  H14X 5110   1.713   3.701   7.957  0.6403  0.8389  2.4685
   63SAPC  H14Y 5111   1.573   3.804   8.012 -1.1407 -2.6559 -0.5279
   63SAPC  C315 5112   1.758   3.911   7.987  0.1404  0.0747 -0.0376
   63SAPC  H15X 5113   1.710   4.006   7.957 -0.7797 -0.2105  0.4875
   63SAPC  H15Y 5114   1.849   3.900   7.924  1.9072  1.8652  2.0479
   63SAPC  C316 5115   1.805   3.889   8.129 -0.1543  0.3168  0.1303
   63SAPC  H16X 5116   1.886   3.960   8.155 -0.1792  0.4756 -0.2196
   63SAPC  H16Y 5117   1.849   3.788   8.135  0.7879  0.7346  0.3360
   63SAPC  C317 5118   1.695   3.900   8.243 -0.4434 -0.1789  0.1726
   63SAPC  H17X 5119   1.617   3.822   8.230 -1.2178  0.3641  1.4916
   63SAPC  H17Y 5120   1.645   3.998   8.226 -0.3892 -0.5423 -2.6825
   63SAPC  C318 5121   1.752   3.879   8.377  0.3129 -0.4242  0.4537
   63SAPC  H18X 5122   1.821   3.964   8.399  0.1691 -0.0739 -0.3803
   63SAPC  H18Y 5123   1.802   3.782   8.396 -2.6555 -2.2799 -0.4809
   63SAPC  H18Z 5124   1.670   3.872   8.451  0.8437 -0.2334  1.0609
   64SAPC     N 5125   5.780   6.180   5.615  0.0460  0.2170 -0.8563
   64SAPC   C12 5126   5.675   6.100   5.698 -0.5303  0.0566  0.1378
   64SAPC  H12A 5127   5.728   6.016   5.742  0.2762  0.2753 -0.3967
   64SAPC  H12B 5128   5.597   6.067   5.632 -0.9352  3.6683 -1.4390
   64SAPC   C13 5129   5.710   6.289   5.546 -0.4077  0.5784  0.0870
   64SAPC  H13A 5130   5.776   6.359   5.498 -1.1456  1.8331  0.8259
   64SAPC  H13B 5131   5.662   6.232   5.468  0.3265 -1.5757  1.1222
   64SAPC  H13C 5132   5.643   6.329   5.621 -0.2383  0.2776  0.4033
   64SAPC   C14 5133   5.899   6.231   5.699 -0.4696 -0.5524 -0.8326
   64SAPC  H14A 5134   5.854   6.303   5.766  0.6381  2.3639 -2.9855
   64SAPC  H14B 5135   5.953   6.151   5.748  0.7348 -1.0340 -2.8327
   64SAPC  H14C 5136   5.963   6.300   5.646 -1.7149  1.8098  0.5514
   64SAPC   C15 5137   5.833   6.091   5.505 -0.4977 -0.0001  0.4065
   64SAPC  H15A 5138   5.751   6.026   5.481  0.0723 -0.5055 -0.2089
   64SAPC  H15B 5139   5.846   6.147   5.414 -2.8480 -1.2672 -0.7956
   64SAPC  H15C 5140   5.913   6.033   5.550 -2.1011 -1.0932  2.0197
   64SAPC   C11 5141   5.604   6.169   5.817 -0.6416  0.3445  0.6018
   64SAPC  H11A 5142   5.676   6.240   5.862 -0.2069  0.2089  0.1352
   64SAPC  H11B 5143   5.568   6.089   5.885  0.1354 -0.7740 -0.2585
   64SAPC     P 5144   5.355   6.172   5.767 -0.3374 -0.1186 -0.2088
   64SAPC   O13 5145   5.259   6.278   5.729 -0.1466 -0.4343  0.9272
   64SAPC   O14 5146   5.356   6.051   5.688 -0.9100  0.7937  0.6501
   64SAPC   O12 5147   5.492   6.238   5.760 -0.4226  0.2546 -0.5565
   64SAPC   O11 5148   5.347   6.130   5.916  0.6046 -0.3149  0.0970
   64SAPC    C1 5149   5.346   6.223   6.023  0.1405 -0.2661 -0.3757
   64SAPC    HA 5150   5.441   6.220   6.079 -0.7050 -1.3197  1.0902
   64SAPC    HB 5151   5.328   6.329   5.997  0.6038  0.2359  1.2756
   64SAPC    C2 5152   5.220   6.183   6.117  0.1804 -0.1770  0.1663
   64SAPC    HS 5153   5.127   6.185   6.056  0.1084 -0.6732  0.2573
   64SAPC   O21 5154   5.218   6.280   6.218  0.1828  0.0166 -0.1508
   64SAPC   C21 5155   5.101   6.315   6.275 -0.2640 -0.4855 -0.4468
   64SAPC   O22 5156   4.995   6.287   6.233  0.2624 -0.1890 -0.0512
   64SAPC   C22 5157   5.117   6.420   6.386  0.0703  0.0475 -0.1256
   64SAPC   H2R 5158   5.123   6.517   6.332  0.8526 -0.8329 -1.6986
   64SAPC   H2S 5159   5.021   6.416   6.441  0.9310 -1.6256  1.3426
   64SAPC    C3 5160   5.234   6.041   6.181  0.1416 -0.2917  0.3404
   64SAPC    HX 5161   5.257   5.970   6.099 -0.3922  1.3953 -1.3284
   64SAPC    HY 5162   5.129   6.011   6.202 -0.0739 -0.1179 -0.4840
   64SAPC   O31 5163   5.329   6.036   6.294  0.1776  0.6276  0.0012
   64SAPC   C31 5164   5.262   6.016   6.409 -0.5851 -0.2071  0.1741
   64SAPC   O32 5165   5.147   5.994   6.422 -0.8050  0.3888 -0.0782
   64SAPC   C32 5166   5.357   6.014   6.524 -0.0509 -0.7929 -0.5118
   64SAPC   H2X 5167   5.415   6.109   6.531  0.3106 -0.9530 -1.1608
   64SAPC   H2Y 5168   5.436   5.944   6.488  2.7527  0.7729  2.1010
   64SAPC   C23 5169   5.239   6.394   6.486  0.5965 -0.1930  0.1299
   64SAPC   H3R 5170   5.321   6.370   6.415 -1.9532 -1.0076 -2.7896
   64SAPC   H3S 5171   5.206   6.307   6.547  1.3030 -0.7290 -0.2392
   64SAPC   C24 5172   5.275   6.522   6.557 -0.1742  0.1638 -0.6104
   64SAPC   H4R 5173   5.202   6.562   6.631  1.6357  1.2659  0.6460
   64SAPC   H4S 5174   5.281   6.617   6.500  0.2635  1.2354  1.1464
   64SAPC   C25 5175   5.404   6.501   6.630 -0.1237  0.8044 -0.4686
   64SAPC   H5R 5176   5.493   6.524   6.569  0.9415  0.2263  0.8230
   64SAPC   C26 5177   5.420   6.457   6.763  0.6883 -0.4282 -0.0759
   64SAPC   H6R 5178   5.521   6.432   6.800  1.5468 -0.8996 -2.5208
   64SAPC   C27 5179   5.305   6.449   6.856 -0.1476 -0.1699  0.3326
   64SAPC   H7R 5180   5.320   6.357   6.917 -0.7085  1.1716  2.6381
   64SAPC   H7S 5181   5.203   6.431   6.816  1.1922 -2.8020 -2.2881
   64SAPC   C28 5182   5.305   6.575   6.937  0.3833 -0.6694 -0.4278
   64SAPC   H8R 5183   5.327   6.675   6.897 -1.2908 -0.8021 -1.8228
   64SAPC   C29 5184   5.293   6.564   7.075  0.1334  0.3428  0.1431
   64SAPC   H9R 5185   5.282   6.654   7.137 -1.5675 -1.2741  2.3423
   64SAPC  C210 5186   5.263   6.445   7.158  0.2786  0.1515 -0.1698
   64SAPC  H10R 5187   5.226   6.362   7.094 -1.5682  1.1753 -0.4985
   64SAPC  H10S 5188   5.181   6.480   7.225 -0.7577 -1.7527 -0.3543
   64SAPC  C211 5189   5.397   6.414   7.233 -0.2694 -0.0329 -0.0493
   64SAPC  H11R 5190   5.481   6.410   7.163  0.1351  0.2060  0.4195
   64SAPC  C212 5191   5.422   6.425   7.366  0.3452 -0.2217  0.5686
   64SAPC  H12R 5192   5.528   6.403   7.388  0.2658  0.4790  1.7538
   64SAPC  C213 5193   5.324   6.447   7.478 -1.0412 -0.1620 -0.1090
   64SAPC  H13R 5194   5.370   6.421   7.576  0.6137 -0.2628 -0.8689
   64SAPC  H13S 5195   5.242   6.372   7.480  0.4053 -1.8295  0.0996
   64SAPC  C214 5196   5.281   6.591   7.482 -0.0134  0.5995 -0.5783
   64SAPC  H14R 5197   5.310   6.663   7.404  0.6591  1.1240  0.1533
   64SAPC  C215 5198   5.196   6.644   7.574  0.2844  0.2883  0.1003
   64SAPC  H15R 5199   5.178   6.752   7.565  1.4550  0.5013  0.1263
   64SAPC  C216 5200   5.118   6.578   7.686 -0.3338 -0.4521 -0.6986
   64SAPC  H16R 5201   5.143   6.471   7.704 -1.2903 -0.3121  1.8432
   64SAPC  H16S 5202   5.009   6.575   7.663 -0.8174 -0.6850  1.4400
   64SAPC  C217 5203   5.137   6.646   7.826  0.8467  0.8304 -0.1686
   64SAPC  H17R 5204   5.056   6.605   7.890 -0.0802  2.2904 -0.3532
   64SAPC  H17S 5205   5.111   6.754   7.823 -1.7116  0.2343 -2.5255
   64SAPC  C218 5206   5.283   6.639   7.884  1.2063 -0.5745 -0.0778
   64SAPC  H18R 5207   5.356   6.699   7.826  0.5866  0.4482  0.1620
   64SAPC  H18S 5208   5.313   6.533   7.880  2.1034 -0.2759 -1.8376
   64SAPC  C219 5209   5.279   6.703   8.017 -0.3220 -0.2357 -0.3801
   64SAPC  H19R 5210   5.209   6.651   8.086  0.8721 -1.2842  0.0623
   64SAPC  H19S 5211   5.240   6.805   7.996 -0.8062 -0.4239 -0.4016
   64SAPC  C220 5212   5.426   6.721   8.073 -0.0096 -0.2195 -0.7961
   64SAPC  H20R 5213   5.429   6.759   8.177  1.5224 -1.0213 -0.5195
   64SAPC  H20S 5214   5.485   6.784   8.003  1.0814  0.5517  0.7867
   64SAPC  H20T 5215   5.472   6.621   8.062  0.5835  0.2876 -3.9159
   64SAPC   C33 5216   5.296   5.978   6.655  0.4418  0.2783  0.0793
   64SAPC   H3X 5217   5.258   5.874   6.648 -1.6999  1.0629 -0.5318
   64SAPC   H3Y 5218   5.206   6.035   6.686 -0.2159 -0.2713 -0.7645
   64SAPC   C34 5219   5.386   5.976   6.781  0.0898  0.6234 -0.5759
   64SAPC   H4X 5220   5.462   5.895   6.778  0.0058  0.4780  0.6670
   64SAPC   H4Y 5221   5.314   5.942   6.858  0.1546 -1.9435 -1.5810
   64SAPC   C35 5222   5.467   6.105   6.811  0.4546  1.3475  0.2041
   64SAPC   H5X 5223   5.399   6.192   6.808 -1.7651 -0.1892  2.2111
   64SAPC   H5Y 5224   5.527   6.115   6.718  0.7244 -1.2223  0.0190
   64SAPC   C36 5225   5.552   6.090   6.937  0.7865  0.0605 -0.2892
   64SAPC   H6X 5226   5.620   6.177   6.942  0.5859  0.2515 -0.7998
   64SAPC   H6Y 5227   5.619   6.002   6.927  1.5344  0.3951  1.4558
   64SAPC   C37 5228   5.471   6.064   7.066  0.1172  0.3064  0.9733
   64SAPC   H7X 5229   5.402   5.979   7.048  1.7121 -0.7952 -0.2907
   64SAPC   H7Y 5230   5.401   6.149   7.080  1.5205  1.8219 -0.7243
   64SAPC   C38 5231   5.548   6.048   7.193  0.4424  0.2397 -0.4902
   64SAPC   H8X 5232   5.620   6.133   7.196 -0.0415  0.6518 -0.2831
   64SAPC   H8Y 5233   5.612   5.957   7.192  1.0052  0.6253 -1.3602
   64SAPC   C39 5234   5.461   6.046   7.319 -0.2913 -0.3306 -0.2544
   64SAPC   H9X 5235   5.410   5.948   7.317 -0.6582 -0.1394 -0.3203
   64SAPC   H9Y 5236   5.386   6.128   7.311  0.2053  0.1763  0.1920
   64SAPC  C310 5237   5.541   6.078   7.450 -0.2126  0.0714  0.4690
   64SAPC  H10X 5238   5.597   6.174   7.441 -0.0034 -0.2267 -3.2134
   64SAPC  H10Y 5239   5.621   6.003   7.462  0.8294  1.1106  0.2209
   64SAPC  C311 5240   5.433   6.079   7.553  0.3176  0.5092  0.2460
   64SAPC  H11X 5241   5.382   5.981   7.554 -2.0788  1.6748  1.2321
   64SAPC  H11Y 5242   5.354   6.156   7.542  0.8938  1.0591 -0.1594
   64SAPC  C312 5243   5.485   6.112   7.697  0.0010  0.2156  0.0407
   64SAPC  H12X 5244   5.526   6.214   7.712  0.6589 -0.1610  0.8896
   64SAPC  H12Y 5245   5.563   6.037   7.723 -1.0130 -0.7627  0.3306
   64SAPC  C313 5246   5.365   6.100   7.802  0.4813  0.0763 -0.2973
   64SAPC  H13X 5247   5.409   6.083   7.903  0.9283  2.3961 -0.0383
   64SAPC  H13Y 5248   5.307   6.009   7.777  0.8592 -0.5749  1.0900
   64SAPC  C314 5249   5.281   6.222   7.810  0.1069 -0.3721 -0.9711
   64SAPC  H14X 5250   5.216   6.240   7.722  0.5798 -1.4497 -1.5660
   64SAPC  H14Y 5251   5.349   6.308   7.830 -3.3962  2.0522  1.6925
   64SAPC  C315 5252   5.178   6.211   7.928 -0.2207 -0.1253 -0.0527
   64SAPC  H15X 5253   5.148   6.105   7.940 -2.6927  0.3873 -1.0438
   64SAPC  H15Y 5254   5.085   6.267   7.903  1.2576  1.7062 -1.7760
   64SAPC  C316 5255   5.233   6.258   8.057  0.2344 -0.1547 -0.5258
   64SAPC  H16X 5256   5.279   6.358   8.040  0.9842 -0.6481 -1.4557
   64SAPC  H16Y 5257   5.314   6.192   8.093 -0.1250  0.6807  1.9973
   64SAPC  C317 5258   5.111   6.283   8.151 -0.6198 -0.3591 -0.0093
   64SAPC  H17X 5259   5.050   6.192   8.171 -1.4865 -0.1458 -1.5363
   64SAPC  H17Y 5260   5.045   6.351   8.093 -1.0643 -1.1632 -0.4526
   64SAPC  C318 5261   5.155   6.354   8.275 -0.0036 -0.5248 -0.2665
   64SAPC  H18X 5262   5.204   6.284   8.347  0.7255  0.9326  0.7055
   64SAPC  H18Y 5263   5.065   6.393   8.327  1.2803  4.5875 -1.3651
   64SAPC  H18Z 5264   5.215   6.445   8.252 -1.3680 -0.1107 -2.5012
   65SAPC     N 5265   4.299   1.068   6.096 -0.4539 -0.9965  0.2112
   65SAPC   C12 5266   4.448   1.088   6.109 -0.5931 -0.7177 -0.4961
   65SAPC  H12A 5267   4.495   0.993   6.134 -0.1599 -0.9273 -2.0052
   65SAPC  H12B 5268   4.466   1.150   6.196  0.4979  0.0842 -1.2644
   65SAPC   C13 5269   4.248   0.997   6.219 -0.2620  0.0809  0.1527
   65SAPC  H13A 5270   4.143   0.969   6.215  0.6161 -3.9972  1.1993
   65SAPC  H13B 5271   4.293   0.899   6.221  0.7491  0.5365  0.7270
   65SAPC  H13C 5272   4.257   1.044   6.316  1.1068 -1.7888  0.9831
   65SAPC   C14 5273   4.230   1.193   6.077  0.0277 -0.4201 -0.1349
   65SAPC  H14A 5274   4.265   1.237   5.985  0.7542  0.4685  0.5466
   65SAPC  H14B 5275   4.124   1.179   6.063 -0.7330  3.8189  0.0851
   65SAPC  H14C 5276   4.255   1.264   6.155 -0.1541 -2.4964  1.9331
   65SAPC   C15 5277   4.255   0.983   5.980 -0.6089  0.4351 -0.2011
   65SAPC  H15A 5278   4.148   0.989   5.966 -0.6596 -1.3555 -0.8798
   65SAPC  H15B 5279   4.299   1.011   5.886  2.2781  0.0790  0.9381
   65SAPC  H15C 5280   4.283   0.879   5.987 -1.5388  0.2863  2.4430
   65SAPC   C11 5281   4.522   1.142   5.982 -0.0557  0.1977  0.4608
   65SAPC  H11A 5282   4.629   1.161   6.007  0.2580 -1.9804  0.9336
   65SAPC  H11B 5283   4.478   1.237   5.945  0.6024 -0.2660 -1.6564
   65SAPC     P 5284   4.607   0.912   5.877 -0.2047  0.0164 -0.4681
   65SAPC   O13 5285   4.556   0.825   5.768 -0.0030  0.0959 -0.5006
   65SAPC   O14 5286   4.744   0.960   5.867 -0.0245 -0.3811  0.0941
   65SAPC   O12 5287   4.516   1.040   5.881 -0.2522  0.1164  0.1226
   65SAPC   O11 5288   4.583   0.832   6.012 -0.3278  0.3298 -0.3612
   65SAPC    C1 5289   4.685   0.796   6.103 -0.3612  0.2526  1.0398
   65SAPC    HA 5290   4.732   0.702   6.069  1.9668  1.9902 -0.9195
   65SAPC    HB 5291   4.760   0.878   6.102  1.8774 -1.6743  2.1967
   65SAPC    C2 5292   4.630   0.782   6.247 -0.5658 -0.1855  0.7848
   65SAPC    HS 5293   4.598   0.885   6.272  1.1652  0.6757 -0.3107
   65SAPC   O21 5294   4.725   0.728   6.336  0.1748  0.5660 -0.1458
   65SAPC   C21 5295   4.807   0.822   6.386 -0.2757  0.2136 -0.2479
   65SAPC   O22 5296   4.814   0.938   6.346  0.1630  0.4550 -0.6109
   65SAPC   C22 5297   4.900   0.766   6.487 -0.0347  0.4623 -0.5077
   65SAPC   H2R 5298   4.854   0.677   6.535  0.6654 -1.2945 -2.9162
   65SAPC   H2S 5299   4.996   0.744   6.435  2.2561  0.2880  3.4389
   65SAPC    C3 5300   4.506   0.694   6.251  0.4367  0.1223 -0.2773
   65SAPC    HX 5301   4.542   0.599   6.206  0.4095  0.6606 -1.4781
   65SAPC    HY 5302   4.427   0.739   6.188 -0.1665  0.5204  0.7544
   65SAPC   O31 5303   4.462   0.673   6.380  0.2362 -0.0503  0.4665
   65SAPC   C31 5304   4.339   0.681   6.419 -0.8546 -0.2960 -0.1193
   65SAPC   O32 5305   4.239   0.699   6.351  0.3045  0.6651 -0.2221
   65SAPC   C32 5306   4.346   0.673   6.567  0.4249 -0.1572  0.0409
   65SAPC   H2X 5307   4.346   0.780   6.597 -3.7707 -0.5134  2.0157
   65SAPC   H2Y 5308   4.444   0.627   6.595  1.7917  1.7402 -1.3843
   65SAPC   C23 5309   4.928   0.858   6.609  0.8571  0.1162  0.0417
   65SAPC   H3R 5310   4.835   0.875   6.666  0.6618 -1.1336  0.1253
   65SAPC   H3S 5311   4.959   0.953   6.560  1.0992 -1.6531 -3.6320
   65SAPC   C24 5312   5.033   0.804   6.707 -0.4836 -0.5028 -0.5358
   65SAPC   H4R 5313   5.133   0.819   6.661  0.2264 -2.0399  0.4175
   65SAPC   H4S 5314   5.015   0.697   6.730 -1.0932 -0.0912  1.0851
   65SAPC   C25 5315   5.047   0.899   6.822  0.1753  0.0726  0.2271
   65SAPC   H5R 5316   5.051   1.005   6.792  0.2431  0.1414  0.4751
   65SAPC   C26 5317   5.039   0.871   6.952 -0.5167  0.7946  0.2576
   65SAPC   H6R 5318   5.010   0.951   7.022  0.0578  0.7926  0.5045
   65SAPC   C27 5319   5.021   0.727   7.009 -0.0678 -0.7467  0.1654
   65SAPC   H7R 5320   5.063   0.642   6.952  0.7419 -0.0212 -0.3621
   65SAPC   H7S 5321   4.912   0.708   7.012 -0.6123  0.4897 -4.2813
   65SAPC   C28 5322   5.095   0.709   7.140  0.3796  0.2500  0.1588
   65SAPC   H8R 5323   5.204   0.729   7.140  0.7105 -1.4329  0.4841
   65SAPC   C29 5324   5.048   0.689   7.266  0.4327 -0.2248  0.5300
   65SAPC   H9R 5325   5.115   0.677   7.352  1.9644 -2.5317 -0.8558
   65SAPC  C210 5326   4.906   0.656   7.303 -0.0394 -0.3401 -0.1125
   65SAPC  H10R 5327   4.842   0.656   7.213  1.3745  1.6008 -1.1814
   65SAPC  H10S 5328   4.861   0.739   7.361 -0.0693 -2.1106  2.5764
   65SAPC  C211 5329   4.866   0.527   7.371  0.2867 -0.0278 -0.1658
   65SAPC  H11R 5330   4.840   0.442   7.305  2.8743 -1.1452  0.1446
   65SAPC  C212 5331   4.860   0.507   7.505  0.1614  0.3062  0.1720
   65SAPC  H12R 5332   4.815   0.421   7.556  0.1219  0.2934  0.1146
   65SAPC  C213 5333   4.908   0.608   7.602 -0.3860 -0.0294 -0.8221
   65SAPC  H13R 5334   4.851   0.703   7.591  1.1451  0.7562 -2.5729
   65SAPC  H13S 5335   5.015   0.632   7.579 -0.4961 -0.3368 -1.6809
   65SAPC  C214 5336   4.919   0.566   7.743 -0.1227 -0.5143 -0.1408
   65SAPC  H14R 5337   4.973   0.472   7.762  1.8620  0.7187  0.7580
   65SAPC  C215 5338   4.877   0.634   7.851 -0.2433 -0.4803  0.3995
   65SAPC  H15R 5339   4.889   0.581   7.947  0.6294 -1.5022 -0.2440
   65SAPC  C216 5340   4.806   0.768   7.861 -0.1203  0.1930 -0.4400
   65SAPC  H16R 5341   4.737   0.778   7.774 -0.9223 -0.1846  0.1400
   65SAPC  H16S 5342   4.884   0.846   7.847  0.3114  0.2165  1.7650
   65SAPC  C217 5343   4.724   0.775   7.995  0.2974 -0.0007  0.3213
   65SAPC  H17R 5344   4.661   0.683   7.993  0.3327 -0.0127 -0.4416
   65SAPC  H17S 5345   4.668   0.871   7.996 -0.8316 -0.6352  0.1532
   65SAPC  C218 5346   4.805   0.769   8.126  0.3734 -0.4415 -0.2515
   65SAPC  H18R 5347   4.901   0.824   8.117  1.3845 -2.1924 -0.5436
   65SAPC  H18S 5348   4.836   0.664   8.142  2.4668 -0.0662 -1.4475
   65SAPC  C219 5349   4.718   0.834   8.244 -0.4325 -0.6808  0.6444
   65SAPC  H19R 5350   4.629   0.770   8.260 -3.5339  2.8241 -0.9650
   65SAPC  H19S 5351   4.675   0.933   8.215 -1.6630 -1.0214  1.2567
   65SAPC  C220 5352   4.800   0.846   8.367 -0.5391  0.1542 -0.2657
   65SAPC  H20R 5353   4.885   0.916   8.351  1.7454 -1.6886  2.7015
   65SAPC  H20S 5354   4.849   0.747   8.378 -0.3470  0.3682  0.9138
   65SAPC  H20T 5355   4.747   0.875   8.459  1.0178  1.3851  0.2888
   65SAPC   C33 5356   4.233   0.599   6.637  0.9179 -0.3435 -0.8473
   65SAPC   H3X 5357   4.215   0.501   6.588  0.7479 -1.1873  0.8420
   65SAPC   H3Y 5358   4.140   0.660   6.640  0.4739 -1.0441  0.0757
   65SAPC   C34 5359   4.266   0.570   6.784  0.4306  0.0634  0.0716
   65SAPC   H4X 5360   4.370   0.536   6.802 -0.1752 -2.1366 -0.2845
   65SAPC   H4Y 5361   4.216   0.485   6.834  0.3299  0.2427  0.2798
   65SAPC   C35 5362   4.231   0.697   6.865  0.4811 -0.0805  0.5156
   65SAPC   H5X 5363   4.123   0.715   6.846  0.6233  0.9056  0.5808
   65SAPC   H5Y 5364   4.301   0.779   6.839 -1.4997  2.0056  1.4117
   65SAPC   C36 5365   4.246   0.674   7.017 -0.2571  0.4146  0.2840
   65SAPC   H6X 5366   4.353   0.669   7.047  0.4369  0.3260 -2.0062
   65SAPC   H6Y 5367   4.200   0.579   7.052 -3.9256  1.6872 -0.6541
   65SAPC   C37 5368   4.197   0.795   7.092 -0.2061 -0.0927 -0.2893
   65SAPC   H7X 5369   4.090   0.807   7.065  0.0696  0.0636 -1.3344
   65SAPC   H7Y 5370   4.252   0.884   7.057 -0.7567  1.5548  2.6514
   65SAPC   C38 5371   4.200   0.785   7.251 -0.5574 -0.0222 -0.3240
   65SAPC   H8X 5372   4.308   0.770   7.276 -1.3075 -2.2931  2.0395
   65SAPC   H8Y 5373   4.150   0.689   7.275  1.4753 -1.5461 -1.7623
   65SAPC   C39 5374   4.158   0.917   7.324 -0.2131  0.8044  0.9873
   65SAPC   H9X 5375   4.062   0.953   7.281 -0.7988 -1.9524 -0.2537
   65SAPC   H9Y 5376   4.235   0.988   7.286 -0.3831  0.8002  0.6253
   65SAPC  C310 5377   4.179   0.910   7.473 -0.7294  0.2478  0.5779
   65SAPC  H10X 5378   4.287   0.934   7.484 -0.6114  0.5584 -0.9221
   65SAPC  H10Y 5379   4.178   0.803   7.500 -0.5879  0.0139 -0.3054
   65SAPC  C311 5380   4.073   0.998   7.546  0.7075 -0.1246  0.6406
   65SAPC  H11X 5381   3.978   0.942   7.546 -0.2252  1.1077  5.1462
   65SAPC  H11Y 5382   4.059   1.095   7.494 -0.5530  0.4640  2.0114
   65SAPC  C312 5383   4.110   1.020   7.690  0.2336  1.0023  0.0356
   65SAPC  H12X 5384   4.209   1.071   7.694  0.4359  0.6147  0.0345
   65SAPC  H12Y 5385   4.130   0.921   7.738 -0.4204  0.8147 -0.0741
   65SAPC  C313 5386   4.017   1.109   7.769  0.0889  0.7835  0.5776
   65SAPC  H13X 5387   3.976   1.193   7.708  2.0882  2.0896  0.9295
   65SAPC  H13Y 5388   4.091   1.166   7.829  0.1295 -1.0320  2.3557
   65SAPC  C314 5389   3.913   1.041   7.855 -0.0325 -0.3441  0.7493
   65SAPC  H14X 5390   3.971   0.962   7.908  2.4085  1.6369  1.1595
   65SAPC  H14Y 5391   3.836   0.990   7.793  3.5251 -3.3307 -1.6045
   65SAPC  C315 5392   3.849   1.138   7.952  0.7391  0.3925  0.7254
   65SAPC  H15X 5393   3.793   1.207   7.884  0.9393  1.2206  1.3742
   65SAPC  H15Y 5394   3.935   1.194   7.995  1.7156 -0.3948 -0.1528
   65SAPC  C316 5395   3.747   1.080   8.049 -0.0740  0.7105 -0.2594
   65SAPC  H16X 5396   3.793   1.036   8.141 -0.8880 -0.4840 -0.3881
   65SAPC  H16Y 5397   3.691   0.999   7.997  2.2504  0.6685 -2.8831
   65SAPC  C317 5398   3.642   1.178   8.093  0.0110 -0.2764  0.4971
   65SAPC  H17X 5399   3.586   1.214   8.004  1.6399 -1.3065 -1.0408
   65SAPC  H17Y 5400   3.706   1.260   8.132 -0.4690  0.4628 -0.2405
   65SAPC  C318 5401   3.542   1.145   8.207 -0.3313  0.2354  0.2852
   65SAPC  H18X 5402   3.477   1.058   8.182 -1.1320  0.5571  1.2280
   65SAPC  H18Y 5403   3.469   1.225   8.230 -1.6032 -0.5651 -0.7915
   65SAPC  H18Z 5404   3.599   1.119   8.299 -3.4668 -2.2408  1.7233
   66SAPC     N 5405   2.962   6.699   5.374 -0.5139  0.5169  0.3165
   66SAPC   C12 5406   2.955   6.594   5.266  0.3400 -0.3549 -0.3057
   66SAPC  H12A 5407   2.979   6.630   5.167  1.0320 -0.4356 -0.1760
   66SAPC  H12B 5408   2.850   6.570   5.271  0.3293  0.0297  2.0318
   66SAPC   C13 5409   3.084   6.673   5.459 -0.7779 -0.5330 -0.1187
   66SAPC  H13A 5410   3.082   6.736   5.547 -0.8485 -0.5223 -0.1273
   66SAPC  H13B 5411   3.087   6.571   5.495  0.8540 -0.2942  0.5252
   66SAPC  H13C 5412   3.163   6.699   5.390 -0.3605 -0.8081  0.2468
   66SAPC   C14 5413   2.990   6.837   5.312 -0.1653  0.3703  0.7403
   66SAPC  H14A 5414   3.079   6.822   5.253  0.3306  0.1565  1.5361
   66SAPC  H14B 5415   2.915   6.868   5.241  0.4268  1.0532  0.3947
   66SAPC  H14C 5416   2.999   6.906   5.395 -1.9803  1.7021 -0.1024
   66SAPC   C15 5417   2.847   6.697   5.467  0.7623  0.2434  0.7709
   66SAPC  H15A 5418   2.768   6.753   5.419  2.5034  1.5828 -0.6704
   66SAPC  H15B 5419   2.814   6.601   5.504 -1.2421  1.2819  1.8540
   66SAPC  H15C 5420   2.852   6.759   5.555 -1.5067 -1.8010  2.4699
   66SAPC   C11 5421   3.032   6.454   5.284  0.3267 -0.7136  0.0186
   66SAPC  H11A 5422   3.141   6.475   5.278  0.7277 -2.0108  1.8602
   66SAPC  H11B 5423   3.015   6.391   5.194  0.7828  1.8551 -1.9875
   66SAPC     P 5424   2.872   6.310   5.413 -0.0072  0.2303 -0.0773
   66SAPC   O13 5425   2.757   6.393   5.438  0.6111 -0.2446 -0.6365
   66SAPC   O14 5426   2.868   6.226   5.293  0.1472 -0.4838  0.6238
   66SAPC   O12 5427   3.008   6.394   5.410  0.4538 -0.1281 -0.2846
   66SAPC   O11 5428   2.904   6.220   5.543  0.1198 -0.1183 -0.6591
   66SAPC    C1 5429   2.938   6.290   5.666  0.0107  0.4170 -0.0271
   66SAPC    HA 5430   2.960   6.399   5.662 -0.6542  0.5918  0.8438
   66SAPC    HB 5431   2.845   6.276   5.725 -0.7288 -2.0572 -1.6526
   66SAPC    C2 5432   3.061   6.229   5.737  0.0454 -0.1687  0.2840
   66SAPC    HS 5433   3.143   6.236   5.663 -1.6449 -0.0464 -1.6757
   66SAPC   O21 5434   3.031   6.093   5.783  0.3022 -0.0520  0.0441
   66SAPC   C21 5435   3.135   6.037   5.832  0.2935 -0.4928  0.0309
   66SAPC   O22 5436   3.252   6.080   5.811  0.3832 -0.2150  0.5798
   66SAPC   C22 5437   3.089   5.915   5.922 -0.3197  1.1720  1.2236
   66SAPC   H2R 5438   3.054   5.957   6.019  0.4792 -0.1813  2.1238
   66SAPC   H2S 5439   3.007   5.857   5.875  0.8297  0.2424  0.2809
   66SAPC    C3 5440   3.096   6.329   5.861  0.3490  0.0710 -0.0224
   66SAPC    HX 5441   3.114   6.428   5.815 -1.6467  0.6768  0.4075
   66SAPC    HY 5442   3.186   6.297   5.919  0.6615 -1.0172 -1.0685
   66SAPC   O31 5443   2.974   6.347   5.937 -0.7665  0.2715 -0.2076
   66SAPC   C31 5444   2.956   6.268   6.039  0.2772 -0.0997 -0.1478
   66SAPC   O32 5445   3.038   6.184   6.073  0.4656  0.8622 -0.2047
   66SAPC   C32 5446   2.831   6.311   6.117 -0.5209 -0.1448  0.1706
   66SAPC   H2X 5447   2.749   6.240   6.092 -1.1465  0.5782  0.1281
   66SAPC   H2Y 5448   2.806   6.416   6.093 -0.1150  0.2113  1.2557
   66SAPC   C23 5449   3.208   5.809   5.950  0.2331  0.5444  0.0501
   66SAPC   H3R 5450   3.236   5.752   5.859 -1.2319  0.0490 -0.1260
   66SAPC   H3S 5451   3.165   5.735   6.020  0.0373 -0.9327 -1.5516
   66SAPC   C24 5452   3.331   5.862   6.021 -0.4698 -0.2416  0.4423
   66SAPC   H4R 5453   3.400   5.907   5.946 -1.5632  0.9164  0.0953
   66SAPC   H4S 5454   3.393   5.776   6.053  2.6802  1.0096 -1.8021
   66SAPC   C25 5455   3.284   5.948   6.131  0.2274 -0.8127  0.1652
   66SAPC   H5R 5456   3.256   6.050   6.101  2.0493 -0.1772  0.5427
   66SAPC   C26 5457   3.277   5.914   6.261 -0.0935  0.0654  0.4944
   66SAPC   H6R 5458   3.234   5.979   6.339 -1.4316 -0.7888  0.4966
   66SAPC   C27 5459   3.329   5.785   6.312 -0.2933 -0.2950  0.2015
   66SAPC   H7R 5460   3.262   5.706   6.271  3.0975 -1.7797 -3.0702
   66SAPC   H7S 5461   3.306   5.786   6.420  1.8824  1.4585  0.7165
   66SAPC   C28 5462   3.483   5.752   6.298  0.8880  0.7653 -0.5955
   66SAPC   H8R 5463   3.514   5.711   6.201 -0.6634  1.6958 -1.5182
   66SAPC   C29 5464   3.568   5.737   6.398  0.1230 -0.5036  0.5495
   66SAPC   H9R 5465   3.672   5.702   6.388 -0.2454 -1.8091  0.9861
   66SAPC  C210 5466   3.536   5.782   6.539 -0.3745 -0.0435  0.2952
   66SAPC  H10R 5467   3.470   5.872   6.538 -1.1842 -0.6138  1.1244
   66SAPC  H10S 5468   3.630   5.813   6.589  0.8251 -1.1602 -1.1936
   66SAPC  C211 5469   3.472   5.673   6.623 -0.4231 -0.0347 -0.3496
   66SAPC  H11R 5470   3.460   5.571   6.586 -1.5965 -0.8303  2.0114
   66SAPC  C212 5471   3.433   5.690   6.747 -0.5192  0.4338 -0.2334
   66SAPC  H12R 5472   3.386   5.601   6.791 -0.5631 -0.4574 -1.9882
   66SAPC  C213 5473   3.443   5.812   6.830 -0.6373 -0.4002 -0.3781
   66SAPC  H13R 5474   3.377   5.810   6.920 -1.0298  2.6040 -0.4976
   66SAPC  H13S 5475   3.423   5.905   6.772 -0.3703 -0.6746 -0.9172
   66SAPC  C214 5476   3.576   5.805   6.907 -0.2310  0.7827  0.3455
   66SAPC  H14R 5477   3.653   5.734   6.874  0.7575  1.0900  1.9001
   66SAPC  C215 5478   3.605   5.859   7.029  0.4147 -0.0871  0.0519
   66SAPC  H15R 5479   3.707   5.854   7.068  1.5796  4.6214 -1.6703
   66SAPC  C216 5480   3.513   5.954   7.098 -0.5516 -0.4627  0.4781
   66SAPC  H16R 5481   3.453   6.002   7.018  3.7100  0.1832 -2.6886
   66SAPC  H16S 5482   3.574   6.043   7.125 -0.7937 -0.5864  1.4569
   66SAPC  C217 5483   3.425   5.908   7.221  0.8964  0.1808  0.2850
   66SAPC  H17R 5484   3.358   5.831   7.177  1.1635 -0.8015  1.5405
   66SAPC  H17S 5485   3.378   6.001   7.259  1.4229  1.1838 -1.4117
   66SAPC  C218 5486   3.513   5.839   7.322  0.5862 -0.0352  0.2914
   66SAPC  H18R 5487   3.608   5.889   7.351  0.9311 -0.1807 -0.5827
   66SAPC  H18S 5488   3.537   5.733   7.300 -0.3752  0.0138 -1.1195
   66SAPC  C219 5489   3.445   5.830   7.461  0.0423 -0.7131  0.3272
   66SAPC  H19R 5490   3.343   5.785   7.465 -0.0940 -0.3682  1.0049
   66SAPC  H19S 5491   3.432   5.930   7.509  0.3908 -1.0666  1.1840
   66SAPC  C220 5492   3.535   5.760   7.568  0.1209 -0.6381  0.6384
   66SAPC  H20R 5493   3.555   5.663   7.518  2.0146  0.8080 -1.6576
   66SAPC  H20S 5494   3.491   5.759   7.669 -0.1341  1.5653  0.6067
   66SAPC  H20T 5495   3.634   5.812   7.569 -0.4075  0.5009 -1.0166
   66SAPC   C33 5496   2.850   6.295   6.280  0.0752  0.1368  0.7949
   66SAPC   H3X 5497   2.863   6.185   6.289  0.3817  0.2020  1.1604
   66SAPC   H3Y 5498   2.750   6.324   6.319  0.7290  2.5361  0.8333
   66SAPC   C34 5499   2.961   6.373   6.347  0.0275  0.0459 -0.5911
   66SAPC   H4X 5500   2.977   6.475   6.307 -0.7419  0.2601 -0.3664
   66SAPC   H4Y 5501   3.045   6.303   6.329 -0.7248 -2.0036  2.9022
   66SAPC   C35 5502   2.932   6.384   6.503  0.0048 -0.0492 -0.1976
   66SAPC   H5X 5503   3.028   6.419   6.546 -0.4070 -1.1904  1.8124
   66SAPC   H5Y 5504   2.914   6.281   6.541 -0.9359  0.5786  1.1630
   66SAPC   C36 5505   2.816   6.472   6.541 -0.2232  0.5364 -0.6582
   66SAPC   H6X 5506   2.722   6.413   6.544  0.5858 -0.8107  2.7681
   66SAPC   H6Y 5507   2.814   6.554   6.465  2.2137 -0.2843 -1.7100
   66SAPC   C37 5508   2.845   6.524   6.689 -0.3058  0.3777 -0.2973
   66SAPC   H7X 5509   2.786   6.614   6.720  1.1661  1.8216 -1.5047
   66SAPC   H7Y 5510   2.947   6.564   6.673 -0.2340  0.1636 -0.3743
   66SAPC   C38 5511   2.844   6.419   6.796  0.6022 -0.1274  0.5124
   66SAPC   H8X 5512   2.891   6.322   6.769 -0.0135 -1.0654  2.6298
   66SAPC   H8Y 5513   2.740   6.391   6.820 -0.8703  1.7900 -2.9030
   66SAPC   C39 5514   2.911   6.473   6.924  0.0603 -0.4345 -0.4490
   66SAPC   H9X 5515   2.846   6.557   6.955  0.9424 -0.1943  0.7978
   66SAPC   H9Y 5516   3.012   6.510   6.898  0.0446  0.2810  0.4748
   66SAPC  C310 5517   2.910   6.375   7.038  0.0205 -0.4730  0.1658
   66SAPC  H10X 5518   2.989   6.300   7.016 -0.3537 -0.4586 -1.3143
   66SAPC  H10Y 5519   2.814   6.320   7.050 -0.5523  0.5342  0.2567
   66SAPC  C311 5520   2.939   6.432   7.182 -0.2665 -0.9849  0.1657
   66SAPC  H11X 5521   2.856   6.494   7.222 -2.9817 -3.0896 -1.8201
   66SAPC  H11Y 5522   3.028   6.498   7.179 -1.1101  0.1872  0.2717
   66SAPC  C312 5523   2.967   6.322   7.283 -0.5074 -0.2962  0.3148
   66SAPC  H12X 5524   3.054   6.264   7.246 -1.2299 -0.3940 -1.3102
   66SAPC  H12Y 5525   2.879   6.255   7.274 -0.5722 -0.5071  2.1972
   66SAPC  C313 5526   2.979   6.368   7.428 -0.6522 -0.0191 -0.1444
   66SAPC  H13X 5527   3.043   6.294   7.479  0.7681  1.5539  0.4433
   66SAPC  H13Y 5528   2.878   6.356   7.474  0.2058  1.2088  2.2036
   66SAPC  C314 5529   3.037   6.510   7.452  0.4262 -0.6703 -0.8136
   66SAPC  H14X 5530   2.995   6.585   7.382 -1.4911 -0.1645  0.7938
   66SAPC  H14Y 5531   3.143   6.501   7.421  1.2281 -0.1558  1.6439
   66SAPC  C315 5532   3.017   6.557   7.598 -0.5897  0.0095 -0.2804
   66SAPC  H15X 5533   2.909   6.541   7.623  0.0034 -0.4937  2.2311
   66SAPC  H15Y 5534   3.035   6.666   7.605  1.0537 -0.3240  1.7090
   66SAPC  C316 5535   3.118   6.488   7.696  0.8515  0.2233 -0.5255
   66SAPC  H16X 5536   3.217   6.530   7.668  0.5592  1.8671  0.7175
   66SAPC  H16Y 5537   3.116   6.378   7.686 -0.1973  0.4247 -3.5087
   66SAPC  C317 5538   3.087   6.529   7.847  0.4389  0.3520 -0.2683
   66SAPC  H17X 5539   3.008   6.463   7.888  0.9877  0.4515  0.9856
   66SAPC  H17Y 5540   3.059   6.635   7.864 -0.0761 -0.2282  3.0775
   66SAPC  C318 5541   3.212   6.521   7.934 -0.7098  0.6273  0.2669
   66SAPC  H18X 5542   3.297   6.577   7.890 -0.1813  0.7311  1.3847
   66SAPC  H18Y 5543   3.246   6.416   7.952 -3.4355 -0.1452  1.3864
   66SAPC  H18Z 5544   3.197   6.565   8.034 -2.2566 -1.8073  1.2092
   67SAPC     N 5545   6.129   1.370   5.737 -0.1622  0.0758 -0.4342
   67SAPC   C12 5546   6.104   1.455   5.863 -0.7075  0.3256 -0.2507
   67SAPC  H12A 5547   6.195   1.448   5.921  1.0447 -1.1972 -2.9765
   67SAPC  H12B 5548   6.021   1.407   5.912 -1.4083  0.1015 -1.6233
   67SAPC   C13 5549   6.252   1.423   5.679 -0.0789  0.3677  0.0786
   67SAPC  H13A 5550   6.342   1.410   5.738 -0.4671 -0.5369  0.4891
   67SAPC  H13B 5551   6.267   1.384   5.579 -1.3934 -0.0908  0.0404
   67SAPC  H13C 5552   6.245   1.530   5.665  1.5003  0.6228  0.9883
   67SAPC   C14 5553   6.150   1.230   5.782  0.9103 -0.5189  0.6667
   67SAPC  H14A 5554   6.229   1.228   5.856  0.2312  0.2975  1.4445
   67SAPC  H14B 5555   6.058   1.198   5.829  1.1388 -0.0305  1.4631
   67SAPC  H14C 5556   6.169   1.165   5.698 -3.0820  0.7833 -1.5070
   67SAPC   C15 5557   6.017   1.377   5.638  0.8157  0.3117 -0.0038
   67SAPC  H15A 5558   5.934   1.317   5.674  0.6159  1.4199  1.4975
   67SAPC  H15B 5559   5.986   1.479   5.625 -1.9228 -0.2080  1.6368
   67SAPC  H15C 5560   6.052   1.333   5.546  0.5673  1.8069 -0.8480
   67SAPC   C11 5561   6.069   1.602   5.855 -0.4231  0.2689  0.0574
   67SAPC  H11A 5562   6.134   1.657   5.783 -0.0514  0.0785  0.2447
   67SAPC  H11B 5563   6.082   1.655   5.952 -3.0237  0.8864  0.1244
   67SAPC     P 5564   5.842   1.729   5.841 -0.3494  0.1726  0.1272
   67SAPC   O13 5565   5.903   1.866   5.849  0.5719  0.2249 -0.1697
   67SAPC   O14 5566   5.720   1.709   5.766 -0.5742 -0.3718 -0.6433
   67SAPC   O12 5567   5.945   1.623   5.796 -0.0125  0.3613  0.1044
   67SAPC   O11 5568   5.824   1.683   5.988 -0.1010  0.4097  0.3688
   67SAPC    C1 5569   5.755   1.561   6.029 -0.1630  0.4419  0.0574
   67SAPC    HA 5570   5.769   1.482   5.952  0.2605  1.5870 -1.0864
   67SAPC    HB 5571   5.793   1.540   6.131  1.4964  3.8276  0.2623
   67SAPC    C2 5572   5.596   1.586   6.045 -0.4465 -0.1232 -0.5253
   67SAPC    HS 5573   5.547   1.607   5.948  0.0660  1.8307 -0.4127
   67SAPC   O21 5574   5.595   1.695   6.138 -0.8824 -0.5179 -0.1184
   67SAPC   C21 5575   5.508   1.797   6.118  0.0762  0.9129 -0.1216
   67SAPC   O22 5576   5.411   1.791   6.042  0.4777 -0.5930  0.3794
   67SAPC   C22 5577   5.547   1.912   6.209  0.0247 -0.0359  0.2384
   67SAPC   H2R 5578   5.609   1.981   6.149 -1.0619  1.4822  0.8120
   67SAPC   H2S 5579   5.452   1.965   6.232 -0.5999 -0.3783 -1.4544
   67SAPC    C3 5580   5.527   1.462   6.110 -0.0894  0.3282  0.5144
   67SAPC    HX 5581   5.551   1.369   6.054  1.2900  1.4298 -0.8138
   67SAPC    HY 5582   5.418   1.469   6.092 -0.0332  0.9455  0.3942
   67SAPC   O31 5583   5.564   1.434   6.247 -0.1471  0.2242  0.2259
   67SAPC   C31 5584   5.480   1.473   6.341  0.5089  0.0378  0.3568
   67SAPC   O32 5585   5.367   1.525   6.316 -0.3991  0.3990 -0.6545
   67SAPC   C32 5586   5.539   1.437   6.475 -0.2144 -0.7376 -0.2528
   67SAPC   H2X 5587   5.632   1.497   6.485 -1.8230  1.8974  0.0059
   67SAPC   H2Y 5588   5.560   1.329   6.490  1.3009 -0.3693  0.3817
   67SAPC   C23 5589   5.612   1.870   6.346 -0.4470  0.1388 -0.5399
   67SAPC   H3R 5590   5.722   1.856   6.341 -0.6848 -2.6700  0.3045
   67SAPC   H3S 5591   5.585   1.764   6.363 -0.3437  0.0430 -0.9482
   67SAPC   C24 5592   5.581   1.965   6.461  0.2163 -0.6321 -0.3831
   67SAPC   H4R 5593   5.472   1.983   6.470  0.5286  1.0035  0.6405
   67SAPC   H4S 5594   5.633   2.059   6.429 -0.9092 -0.7145 -2.6687
   67SAPC   C25 5595   5.639   1.936   6.600  0.3342  0.7217  0.5996
   67SAPC   H5R 5596   5.625   1.833   6.636  1.1685 -0.2745 -1.7049
   67SAPC   C26 5597   5.718   2.021   6.674  0.7784 -0.0530 -0.5926
   67SAPC   H6R 5598   5.741   1.987   6.776 -2.7568 -1.4624 -0.1131
   67SAPC   C27 5599   5.764   2.157   6.632 -0.2274 -0.1216 -0.1707
   67SAPC   H7R 5600   5.759   2.226   6.720 -3.0837 -0.9952  0.4808
   67SAPC   H7S 5601   5.693   2.211   6.565  0.5063  0.3861 -0.5578
   67SAPC   C28 5602   5.904   2.152   6.576 -0.5665  0.6338  0.3165
   67SAPC   H8R 5603   5.937   2.058   6.530  0.3301  1.4234 -0.6779
   67SAPC   C29 5604   6.003   2.241   6.591 -0.6307 -1.2587  0.1694
   67SAPC   H9R 5605   6.104   2.213   6.558 -0.5209 -0.1060 -0.5488
   67SAPC  C210 5606   5.992   2.376   6.659  0.1639 -0.3040 -0.5394
   67SAPC  H10R 5607   5.899   2.380   6.719  0.4365 -0.7315 -0.0814
   67SAPC  H10S 5608   5.980   2.450   6.577  0.6610  2.5495  1.7746
   67SAPC  C211 5609   6.109   2.417   6.752  0.4383 -0.0151  0.5439
   67SAPC  H11R 5610   6.199   2.452   6.701 -1.9034  1.1514 -3.1550
   67SAPC  C212 5611   6.108   2.429   6.887 -0.1110 -0.4625 -0.2977
   67SAPC  H12R 5612   6.201   2.457   6.939  1.3320 -3.4139 -1.0660
   67SAPC  C213 5613   5.999   2.388   6.982  0.2517 -0.1919  0.0527
   67SAPC  H13R 5614   5.938   2.307   6.938 -1.2976  0.7812  0.3293
   67SAPC  H13S 5615   5.923   2.469   6.983  1.5254  1.0987  2.4491
   67SAPC  C214 5616   6.034   2.362   7.129  0.4048  0.7660 -0.0662
   67SAPC  H14R 5617   6.136   2.327   7.150  0.3726 -0.2480 -1.4922
   67SAPC  C215 5618   5.953   2.384   7.237  0.7248  0.2322  1.0804
   67SAPC  H15R 5619   5.986   2.372   7.341 -0.5279 -0.6724  1.4002
   67SAPC  C216 5620   5.810   2.432   7.242 -0.4989  0.2003  0.4774
   67SAPC  H16R 5621   5.754   2.358   7.303 -1.0789 -0.0897 -0.3839
   67SAPC  H16S 5622   5.758   2.424   7.144 -0.3837  0.5838  0.3854
   67SAPC  C217 5623   5.786   2.569   7.304 -0.7752  0.1488 -0.3345
   67SAPC  H17R 5624   5.677   2.590   7.307 -0.5200  1.6073 -0.2212
   67SAPC  H17S 5625   5.837   2.641   7.236  0.1811 -1.6830 -1.6169
   67SAPC  C218 5626   5.828   2.576   7.449  0.1653 -0.8004 -0.4088
   67SAPC  H18R 5627   5.804   2.680   7.479  0.0512 -1.6949  3.0192
   67SAPC  H18S 5628   5.939   2.575   7.439  0.2301 -0.4523  0.2585
   67SAPC  C219 5629   5.785   2.475   7.546  0.8622  0.4717  0.5205
   67SAPC  H19R 5630   5.839   2.473   7.643 -0.2280 -1.6971  1.1314
   67SAPC  H19S 5631   5.791   2.378   7.493 -0.6458  0.3623  0.5158
   67SAPC  C220 5632   5.635   2.487   7.579  1.0345  0.7394 -0.6281
   67SAPC  H20R 5633   5.619   2.590   7.619  0.5742  0.6452 -0.5653
   67SAPC  H20S 5634   5.606   2.414   7.657 -0.9224  1.1148 -0.9558
   67SAPC  H20T 5635   5.573   2.467   7.489  0.2174  2.3989 -0.4783
   67SAPC   C33 5636   5.459   1.483   6.599 -0.3895  0.7189 -0.4923
   67SAPC   H3X 5637   5.357   1.439   6.593 -0.7261  1.0617  1.8648
   67SAPC   H3Y 5638   5.446   1.592   6.582 -0.6203  0.8286  0.3359
   67SAPC   C34 5639   5.547   1.460   6.727 -0.6456 -0.6015  0.2207
   67SAPC   H4X 5640   5.595   1.559   6.741  1.9100 -1.3984 -1.9778
   67SAPC   H4Y 5641   5.636   1.394   6.722  0.6127  1.1031 -1.2533
   67SAPC   C35 5642   5.462   1.425   6.849  0.1278  0.0402  0.4188
   67SAPC   H5X 5643   5.421   1.322   6.854 -0.2654  0.1044 -1.0768
   67SAPC   H5Y 5644   5.381   1.502   6.848 -1.2928 -1.2423  3.3570
   67SAPC   C36 5645   5.544   1.436   6.982 -0.5240 -0.0939  0.2516
   67SAPC   H6X 5646   5.623   1.512   6.965  0.4526 -1.3760 -1.2186
   67SAPC   H6Y 5647   5.600   1.344   7.008 -0.8680 -1.1485 -2.3871
   67SAPC   C37 5648   5.439   1.464   7.092 -0.3433  0.5873 -0.1261
   67SAPC   H7X 5649   5.386   1.367   7.109 -0.3039  0.4765 -0.6273
   67SAPC   H7Y 5650   5.363   1.533   7.051 -2.0990 -1.1152  0.1015
   67SAPC   C38 5651   5.499   1.512   7.226  0.4802  0.2502 -0.2922
   67SAPC   H8X 5652   5.550   1.606   7.194  2.2349 -0.6023 -0.0912
   67SAPC   H8Y 5653   5.578   1.451   7.274  1.4429  2.3982  1.0282
   67SAPC   C39 5654   5.396   1.539   7.341 -0.3735 -0.0316  0.1479
   67SAPC   H9X 5655   5.328   1.454   7.362 -0.0792 -0.7879 -1.7531
   67SAPC   H9Y 5656   5.329   1.617   7.300 -0.8052 -1.1589 -1.3794
   67SAPC  C310 5657   5.465   1.593   7.464  0.0092 -0.4091 -0.1579
   67SAPC  H10X 5658   5.532   1.682   7.457  0.5638 -0.8027  0.0228
   67SAPC  H10Y 5659   5.534   1.514   7.501 -1.7389 -1.8306  0.2066
   67SAPC  C311 5660   5.364   1.618   7.576 -0.1753 -0.0905 -0.0307
   67SAPC  H11X 5661   5.291   1.535   7.592  1.4759 -1.5100  0.4213
   67SAPC  H11Y 5662   5.302   1.705   7.544  0.7120  1.0219  1.1782
   67SAPC  C312 5663   5.414   1.648   7.710  0.4438 -0.4358  0.4413
   67SAPC  H12X 5664   5.483   1.735   7.707  2.3138 -1.8460  0.5484
   67SAPC  H12Y 5665   5.485   1.573   7.752 -0.1928 -1.6425 -0.5681
   67SAPC  C313 5666   5.299   1.664   7.808 -0.2708  0.1496  0.2788
   67SAPC  H13X 5667   5.242   1.569   7.816 -1.3408  0.5763 -1.6731
   67SAPC  H13Y 5668   5.223   1.738   7.775 -1.3145  0.1013  2.4267
   67SAPC  C314 5669   5.345   1.700   7.948 -0.3002  0.2912  0.4229
   67SAPC  H14X 5670   5.425   1.630   7.978 -1.6144 -0.7719  1.5783
   67SAPC  H14Y 5671   5.255   1.697   8.015 -1.1957  0.4781 -0.7411
   67SAPC  C315 5672   5.388   1.848   7.956  0.4594 -0.1435 -0.0199
   67SAPC  H15X 5673   5.314   1.914   7.904  1.6772  2.0180  0.8334
   67SAPC  H15Y 5674   5.476   1.857   7.889  0.2980 -2.8830 -0.7187
   67SAPC  C316 5675   5.408   1.900   8.097 -0.3693  0.2125 -0.1473
   67SAPC  H16X 5676   5.478   1.829   8.146 -0.5705  2.1553  3.2855
   67SAPC  H16Y 5677   5.311   1.910   8.150 -1.1265 -1.1904 -1.1866
   67SAPC  C317 5678   5.467   2.045   8.104  0.3244  0.7775 -0.7835
   67SAPC  H17X 5679   5.483   2.070   8.211  0.8474  1.3162 -0.9817
   67SAPC  H17Y 5680   5.390   2.120   8.078 -1.0462 -1.2476 -3.1407
   67SAPC  C318 5681   5.598   2.070   8.036 -0.4458 -0.2696  0.4076
   67SAPC  H18X 5682   5.641   2.170   8.059  1.9293 -0.9289 -0.8725
   67SAPC  H18Y 5683   5.580   2.054   7.928 -1.5594  2.5031  0.0859
   67SAPC  H18Z 5684   5.683   2.005   8.067  1.0617  1.9208  1.1546
   68SAPC     N 5685   1.719   2.025   6.038 -0.1521  0.0956 -0.0510
   68SAPC   C12 5686   1.585   2.067   5.980  0.5493  0.0474 -0.0077
   68SAPC  H12A 5687   1.502   2.016   6.028 -0.0503 -1.6819 -2.6774
   68SAPC  H12B 5688   1.587   2.039   5.876  0.0740 -1.9463  0.4805
   68SAPC   C13 5689   1.715   2.050   6.182 -0.6269 -0.2537 -0.9502
   68SAPC  H13A 5690   1.691   2.149   6.216 -1.1626 -1.0970  1.2991
   68SAPC  H13B 5691   1.634   1.997   6.230  0.1015  0.3446  1.0269
   68SAPC  H13C 5692   1.804   2.004   6.223 -1.6084  0.3523  2.1337
   68SAPC   C14 5693   1.750   1.885   6.003  0.1245 -0.4217  0.4254
   68SAPC  H14A 5694   1.734   1.872   5.897 -1.2331  0.4234  0.4897
   68SAPC  H14B 5695   1.851   1.853   6.022  0.0749 -0.4720  0.6033
   68SAPC  H14C 5696   1.697   1.806   6.055 -2.3695 -0.6705 -2.2284
   68SAPC   C15 5697   1.825   2.121   5.988  0.3303  0.1193 -0.1845
   68SAPC  H15A 5698   1.828   2.117   5.881 -0.6368 -3.9197 -0.1901
   68SAPC  H15B 5699   1.802   2.217   6.032  0.9195  1.3021 -2.3292
   68SAPC  H15C 5700   1.921   2.088   6.026  0.9709  1.0848 -0.8889
   68SAPC   C11 5701   1.545   2.220   5.984  0.5570  0.1837  0.0538
   68SAPC  H11A 5702   1.440   2.216   5.949  0.4877 -2.3940  0.3622
   68SAPC  H11B 5703   1.604   2.270   5.905 -0.9774  0.4093 -0.9962
   68SAPC     P 5704   1.602   2.424   6.129  0.1381  0.6058  0.4833
   68SAPC   O13 5705   1.740   2.423   6.078 -0.0670 -0.7994  0.5942
   68SAPC   O14 5706   1.509   2.509   6.058 -0.3720 -0.2794  0.3412
   68SAPC   O12 5707   1.549   2.279   6.111  0.4140  0.2842 -0.3826
   68SAPC   O11 5708   1.606   2.448   6.279  0.5218  0.3384  0.5700
   68SAPC    C1 5709   1.490   2.470   6.362 -0.3211 -0.6585  0.0577
   68SAPC    HA 5710   1.493   2.574   6.400 -1.0149  0.1999 -2.1346
   68SAPC    HB 5711   1.392   2.456   6.311 -1.4434  0.8543  1.6719
   68SAPC    C2 5712   1.492   2.357   6.478  0.3073 -0.1903 -0.5818
   68SAPC    HS 5713   1.455   2.260   6.441 -1.5191  0.3470 -0.2595
   68SAPC   O21 5714   1.403   2.415   6.577 -0.0003  0.1967 -0.3133
   68SAPC   C21 5715   1.354   2.319   6.653 -0.4323 -0.0511  0.2167
   68SAPC   O22 5716   1.363   2.196   6.638 -0.5317 -0.3057  0.3982
   68SAPC   C22 5717   1.273   2.377   6.763  0.2849 -0.5115 -1.2443
   68SAPC   H2R 5718   1.242   2.480   6.737  1.1056 -0.3769 -1.7306
   68SAPC   H2S 5719   1.186   2.308   6.763  0.4586 -0.9616  2.7667
   68SAPC    C3 5720   1.631   2.341   6.533 -0.2721  0.2535  0.1575
   68SAPC    HX 5721   1.664   2.444   6.558  0.4276  0.2690 -0.7774
   68SAPC    HY 5722   1.715   2.304   6.470  1.9637  1.4951  2.2302
   68SAPC   O31 5723   1.639   2.269   6.650  0.2039  0.5743  0.4871
   68SAPC   C31 5724   1.651   2.135   6.636  0.2109 -0.9540 -0.8625
   68SAPC   O32 5725   1.649   2.080   6.528 -0.2050  0.2986  0.0679
   68SAPC   C32 5726   1.652   2.057   6.766 -0.4692  0.0093 -0.2810
   68SAPC   H2X 5727   1.754   2.033   6.802 -0.6044 -0.6927 -0.3635
   68SAPC   H2Y 5728   1.606   1.957   6.748  3.2722 -2.2284  1.5033
   68SAPC   C23 5729   1.337   2.390   6.905  0.2108  0.2808  1.3099
   68SAPC   H3R 5730   1.442   2.424   6.892 -0.4521  1.8676 -0.3788
   68SAPC   H3S 5731   1.352   2.292   6.956  0.8002 -0.4429 -0.1884
   68SAPC   C24 5732   1.282   2.489   7.009  0.2263 -0.3584  0.0580
   68SAPC   H4R 5733   1.271   2.581   6.947 -0.0130  0.2803  1.0252
   68SAPC   H4S 5734   1.359   2.514   7.086  0.5390 -4.2425  1.2178
   68SAPC   C25 5735   1.155   2.439   7.074  0.5722 -0.5886  0.8690
   68SAPC   H5R 5736   1.076   2.422   7.000  0.3078 -0.4090  1.1102
   68SAPC   C26 5737   1.137   2.398   7.199 -0.6189  0.1373 -0.0960
   68SAPC   H6R 5738   1.038   2.375   7.242 -0.1920  3.1365  2.9189
   68SAPC   C27 5739   1.235   2.399   7.315  0.2718  0.0164  1.2265
   68SAPC   H7R 5740   1.218   2.494   7.371 -2.6304  0.8954 -0.8682
   68SAPC   H7S 5741   1.341   2.393   7.284 -0.4182 -0.7095 -1.1927
   68SAPC   C28 5742   1.210   2.292   7.413  0.3047  0.1576 -0.2892
   68SAPC   H8R 5743   1.136   2.212   7.398 -0.2486  0.3635  1.2128
   68SAPC   C29 5744   1.270   2.292   7.534  0.3122 -0.2479 -0.4153
   68SAPC   H9R 5745   1.236   2.207   7.595 -1.6479  0.2680 -0.7027
   68SAPC  C210 5746   1.366   2.398   7.586 -0.6945  0.3871 -0.4102
   68SAPC  H10R 5747   1.302   2.486   7.608 -0.7983 -0.1902  1.7738
   68SAPC  H10S 5748   1.437   2.434   7.508 -1.2175  0.0306 -1.0590
   68SAPC  C211 5749   1.439   2.356   7.710 -0.4128  0.4838  0.2029
   68SAPC  H11R 5750   1.431   2.248   7.733  3.5147  0.4534  2.3591
   68SAPC  C212 5751   1.535   2.419   7.789  0.1982  0.0826  0.0579
   68SAPC  H12R 5752   1.580   2.377   7.880  1.2746  1.9255  0.4093
   68SAPC  C213 5753   1.579   2.557   7.777 -0.3030 -0.2107  0.4072
   68SAPC  H13R 5754   1.598   2.596   7.879  1.5126 -0.6566  0.2699
   68SAPC  H13S 5755   1.492   2.610   7.732  1.1498  0.1263 -2.1969
   68SAPC  C214 5756   1.695   2.571   7.679 -0.5417 -0.8244  0.4649
   68SAPC  H14R 5757   1.671   2.524   7.582  2.4688 -0.1129 -0.7511
   68SAPC  C215 5758   1.803   2.653   7.676 -0.2643 -0.4014 -1.1079
   68SAPC  H15R 5759   1.884   2.645   7.602  0.5385  0.1165 -0.3154
   68SAPC  C216 5760   1.843   2.725   7.801  0.1883  0.2252  0.1935
   68SAPC  H16R 5761   1.945   2.700   7.838 -0.0363  0.6212  1.1043
   68SAPC  H16S 5762   1.777   2.696   7.885  1.0138  1.3141  1.2516
   68SAPC  C217 5763   1.822   2.874   7.773  0.8092 -0.3332  0.3832
   68SAPC  H17R 5764   1.727   2.898   7.719 -0.0022 -1.9384  1.0528
   68SAPC  H17S 5765   1.901   2.896   7.698 -0.8198  1.3158 -0.9693
   68SAPC  C218 5766   1.841   2.957   7.900  0.1762 -0.0707 -0.1793
   68SAPC  H18R 5767   1.833   3.063   7.868 -0.2032 -0.6722 -2.2436
   68SAPC  H18S 5768   1.940   2.923   7.937  1.5190  2.0107 -1.6087
   68SAPC  C219 5769   1.734   2.940   8.004 -0.2474  0.4016 -0.3502
   68SAPC  H19R 5770   1.754   3.013   8.085  1.1376 -0.2127 -0.1110
   68SAPC  H19S 5771   1.729   2.839   8.049  1.3830  1.1630  1.6882
   68SAPC  C220 5772   1.599   2.976   7.946  0.2558  0.6095  0.0254
   68SAPC  H20R 5773   1.523   2.981   8.027  0.6085  1.3460  0.3264
   68SAPC  H20S 5774   1.571   2.905   7.866  3.8056 -0.6023 -0.3420
   68SAPC  H20T 5775   1.599   3.080   7.906  0.6261  0.9471  0.8720
   68SAPC   C33 5776   1.569   2.125   6.878  0.2303 -0.0879  0.7268
   68SAPC   H3X 5777   1.460   2.135   6.861  0.3745  3.9553  1.1782
   68SAPC   H3Y 5778   1.592   2.233   6.885  2.1469 -0.3185 -0.9948
   68SAPC   C34 5779   1.579   2.055   7.011 -0.1881 -0.1177  0.0162
   68SAPC   H4X 5780   1.685   2.055   7.047  0.0925  3.1832 -0.5111
   68SAPC   H4Y 5781   1.549   1.950   6.993 -1.3015  0.2689 -0.4435
   68SAPC   C35 5782   1.485   2.116   7.115 -0.0606 -0.0243  0.9227
   68SAPC   H5X 5783   1.381   2.082   7.096 -1.0553  2.4609  1.5052
   68SAPC   H5Y 5784   1.480   2.225   7.099 -1.0444 -0.1193  0.5631
   68SAPC   C36 5785   1.517   2.083   7.264  0.3641  0.2050  0.4296
   68SAPC   H6X 5786   1.525   1.972   7.262 -1.8538  0.0057 -0.8222
   68SAPC   H6Y 5787   1.427   2.106   7.324 -0.9097 -1.5110 -0.7105
   68SAPC   C37 5788   1.643   2.145   7.307 -0.7279 -0.0166  0.2118
   68SAPC   H7X 5789   1.648   2.254   7.286  1.0600  0.0771  0.9559
   68SAPC   H7Y 5790   1.732   2.103   7.256  0.5557  0.0526  2.2740
   68SAPC   C38 5791   1.667   2.131   7.457  0.1792 -0.4967  1.0579
   68SAPC   H8X 5792   1.680   2.022   7.474  1.4922 -0.7861 -1.3021
   68SAPC   H8Y 5793   1.572   2.161   7.506 -0.3432  0.1329 -0.3061
   68SAPC   C39 5794   1.800   2.187   7.503 -0.1758 -0.1668 -0.2414
   68SAPC   H9X 5795   1.798   2.297   7.486 -1.7826 -0.0039  0.8435
   68SAPC   H9Y 5796   1.883   2.148   7.439 -1.0865 -0.2337 -1.4169
   68SAPC  C310 5797   1.827   2.158   7.649  0.3243 -0.1169  0.2771
   68SAPC  H10X 5798   1.833   2.049   7.670  3.5983  0.3221  2.5652
   68SAPC  H10Y 5799   1.734   2.192   7.699 -0.1603  3.0795 -2.4327
   68SAPC  C311 5800   1.947   2.217   7.708  0.1347 -0.3636 -0.0879
   68SAPC  H11X 5801   1.950   2.324   7.678  0.4524 -0.1049  0.8144
   68SAPC  H11Y 5802   2.041   2.177   7.666  0.6325  2.3517 -1.8035
   68SAPC  C312 5803   1.959   2.204   7.855 -0.4715 -0.4381 -0.1928
   68SAPC  H12X 5804   1.927   2.103   7.890 -3.1250  0.9016  1.6510
   68SAPC  H12Y 5805   1.891   2.274   7.907 -0.3356 -0.3115 -0.1873
   68SAPC  C313 5806   2.106   2.219   7.903  0.2456  0.2591 -0.2645
   68SAPC  H13X 5807   2.169   2.131   7.877 -0.3127 -0.3047  0.2625
   68SAPC  H13Y 5808   2.105   2.218   8.014 -1.7257 -2.4114 -0.2266
   68SAPC  C314 5809   2.174   2.349   7.844  0.6738 -0.2439  0.5680
   68SAPC  H14X 5810   2.104   2.434   7.858 -0.0455 -0.2144 -2.5634
   68SAPC  H14Y 5811   2.181   2.345   7.733  0.5377 -1.2451  0.5813
   68SAPC  C315 5812   2.314   2.377   7.897 -0.5844  0.4045  0.1077
   68SAPC  H15X 5813   2.352   2.422   7.803 -2.6483 -0.1862 -1.0856
   68SAPC  H15Y 5814   2.374   2.284   7.910  0.2495  0.2321 -3.7042
   68SAPC  C316 5815   2.318   2.472   8.014  0.4084 -0.5666  0.2675
   68SAPC  H16X 5816   2.292   2.425   8.112  0.2448  1.2459  1.1299
   68SAPC  H16Y 5817   2.257   2.559   7.982 -0.8354 -1.1302  1.0300
   68SAPC  C317 5818   2.463   2.524   8.034 -0.0097  0.3482  0.2288
   68SAPC  H17X 5819   2.462   2.598   8.117 -1.9039  2.0002 -1.1549
   68SAPC  H17Y 5820   2.480   2.584   7.942 -1.4298  0.8739  0.2890
   68SAPC  C318 5821   2.579   2.417   8.051  0.4952 -0.2213  0.2036
   68SAPC  H18X 5822   2.675   2.463   8.083  1.3730 -1.6461 -0.2817
   68SAPC  H18Y 5823   2.587   2.355   7.959  0.5491  0.8276 -0.5147
   68SAPC  H18Z 5824   2.550   2.344   8.130 -0.2147  0.3901  0.5191
   69SLPC     N 5825   5.110   6.289  10.057  0.2812 -0.2330  0.2543
   69SLPC   C13 5826   4.981   6.226  10.085  0.7002  0.4206  0.0225
   69SLPC  H13A 5827   4.994   6.125  10.121 -0.8033  0.3373  0.3922
   69SLPC  H13B 5828   4.930   6.280  10.163 -1.5920 -0.3424 -0.8467
   69SLPC  H13C 5829   4.909   6.230  10.005  0.6924 -0.2374 -0.0116
   69SLPC   C14 5830   5.169   6.229   9.936 -0.1170  0.4139  0.7807
   69SLPC  H14A 5831   5.268   6.271   9.927  0.1245 -0.2853  0.0362
   69SLPC  H14B 5832   5.185   6.123   9.952 -0.6263  0.1875 -0.1298
   69SLPC  H14C 5833   5.120   6.250   9.842 -0.7928 -1.2664  0.7114
   69SLPC   C15 5834   5.208   6.275  10.172 -0.2613  0.6542  0.1149
   69SLPC  H15A 5835   5.215   6.168  10.188 -1.7585  0.1927 -1.8629
   69SLPC  H15B 5836   5.307   6.311  10.149 -0.8067  1.1419 -1.6243
   69SLPC  H15C 5837   5.180   6.337  10.255  1.4390  2.7798 -0.8034
   69SLPC   C12 5838   5.082   6.443  10.036 -0.1923  0.1120 -0.4163
   69SLPC  H12A 5839   5.019   6.461   9.951 -2.5425 -1.3897  0.9055
   69SLPC  H12B 5840   5.176   6.492  10.017  0.3358 -0.3651  0.8676
   69SLPC   C11 5841   5.018   6.516  10.159 -0.2453 -0.0904  0.1032
   69SLPC  H11A 5842   4.928   6.461  10.193  0.2586 -1.7326 -1.0948
   69SLPC  H11B 5843   4.996   6.621  10.131 -3.0501 -0.2708  1.3031
   69SLPC     P 5844   5.236   6.615  10.278 -0.1452  0.2303 -0.0051
   69SLPC   O13 5845   5.198   6.745  10.330  0.0310  0.9289  0.1525
   69SLPC   O14 5846   5.333   6.539  10.358 -0.0143 -0.2132  0.4883
   69SLPC   O12 5847   5.107   6.518  10.272 -0.0940 -0.0536 -0.0532
   69SLPC   O11 5848   5.275   6.621  10.125  0.2093 -0.0842 -0.4945
   69SLPC    C1 5849   5.391   6.577  10.065 -0.2534  0.4535  0.0889
   69SLPC    HA 5850   5.475   6.577  10.138  1.2832 -2.4322 -1.4642
   69SLPC    HB 5851   5.388   6.470  10.035 -1.5611  0.2019  1.0172
   69SLPC    C2 5852   5.445   6.659   9.945  0.3898  0.2844 -0.0579
   69SLPC    HS 5853   5.451   6.762   9.986  0.3750  0.5532 -0.7046
   69SLPC   O21 5854   5.357   6.643   9.832 -0.1640 -1.1533  0.0199
   69SLPC   C21 5855   5.339   6.750   9.766  0.8331 -0.2294 -0.8464
   69SLPC   O22 5856   5.383   6.863   9.801 -0.1832 -0.0798  0.9053
   69SLPC   C22 5857   5.262   6.728   9.635 -0.2582 -0.3671  0.2857
   69SLPC   H2R 5858   5.254   6.618   9.624  0.1040 -0.1566 -3.7967
   69SLPC   H2S 5859   5.157   6.763   9.645  0.3348  1.5026  0.4139
   69SLPC    C3 5860   5.591   6.613   9.895 -0.0541  0.7802 -0.5167
   69SLPC    HX 5861   5.566   6.522   9.836 -0.5947  1.2786 -1.0728
   69SLPC    HY 5862   5.656   6.597   9.983  1.5628  4.5136 -0.8323
   69SLPC   O31 5863   5.647   6.700   9.802 -0.4910 -0.6901 -0.4835
   69SLPC   C31 5864   5.724   6.794   9.858  0.3963 -0.0269  0.8705
   69SLPC   O32 5865   5.743   6.808   9.979  0.7102 -0.4528 -0.4114
   69SLPC   C32 5866   5.778   6.888   9.745  0.6053 -0.6942  0.1272
   69SLPC   H2X 5867   5.882   6.853   9.727  1.1672 -0.8990  3.2198
   69SLPC   H2Y 5868   5.780   6.987   9.794 -0.7300 -0.7686  0.3621
   69SLPC   C23 5869   5.336   6.785   9.512  0.8037  0.1833 -0.0730
   69SLPC   H3R 5870   5.442   6.752   9.517  0.2297 -1.7591  0.0109
   69SLPC   H3S 5871   5.341   6.895   9.526 -0.2524  0.3507 -0.9032
   69SLPC   C24 5872   5.260   6.746   9.381 -0.0833  0.1567  0.2596
   69SLPC   H4R 5873   5.158   6.785   9.402  0.2146  2.6749 -2.3542
   69SLPC   H4S 5874   5.265   6.637   9.360  0.9369  0.6153 -2.1688
   69SLPC   C25 5875   5.321   6.814   9.253  0.1985  0.1639  0.9689
   69SLPC   H5R 5876   5.430   6.797   9.245 -0.1260 -1.3310 -1.2776
   69SLPC   H5S 5877   5.318   6.925   9.256  0.5045  0.1607  2.1417
   69SLPC   C26 5878   5.242   6.785   9.124 -0.0692 -0.2017 -0.0842
   69SLPC   H6R 5879   5.147   6.842   9.130  1.2810  1.9968  1.2193
   69SLPC   H6S 5880   5.214   6.677   9.125 -1.5168  0.1632  1.3728
   69SLPC   C27 5881   5.318   6.816   8.999  0.4487 -0.0847 -0.1343
   69SLPC   H7R 5882   5.411   6.757   9.003  1.6058  1.7233  0.9903
   69SLPC   H7S 5883   5.360   6.919   9.003  1.0703 -0.2846 -1.1714
   69SLPC   C28 5884   5.235   6.799   8.877 -0.4017  0.6172  0.2686
   69SLPC   H8R 5885   5.269   6.864   8.793  1.2313 -2.1412 -1.3221
   69SLPC   H8S 5886   5.132   6.833   8.903  0.8914  3.4198  2.2473
   69SLPC   C29 5887   5.224   6.654   8.840 -0.1088  0.3348 -0.5294
   69SLPC   H9R 5888   5.209   6.579   8.919  0.1096  1.5109  0.6514
   69SLPC  C210 5889   5.209   6.620   8.713 -0.2401  0.7610  0.1071
   69SLPC  H10R 5890   5.210   6.513   8.685  1.0000  1.1520 -1.4989
   69SLPC  C211 5891   5.237   6.701   8.589  0.5796 -0.0186 -0.2941
   69SLPC  H11R 5892   5.253   6.622   8.513  0.5928 -0.6689  0.3732
   69SLPC  H11S 5893   5.334   6.750   8.611  0.3843  0.4488 -0.4681
   69SLPC  C212 5894   5.131   6.799   8.544  0.1193  0.7847  0.7076
   69SLPC  H12R 5895   5.116   6.883   8.613 -1.5298  0.1506  1.1755
   69SLPC  C213 5896   5.035   6.782   8.450 -0.9471  0.6957  0.2182
   69SLPC  H13R 5897   4.963   6.864   8.433  0.0940  1.4858 -0.4576
   69SLPC  C214 5898   5.015   6.671   8.353 -0.4022 -0.0282 -0.1590
   69SLPC  H14R 5899   5.006   6.587   8.426  0.3880  1.5583  1.8714
   69SLPC  H14S 5900   5.103   6.665   8.285  0.6501 -0.6481  1.2131
   69SLPC  C215 5901   4.885   6.681   8.276  0.9819  0.6131  0.2708
   69SLPC  H15R 5902   4.891   6.776   8.217  2.2536  1.7684  2.1470
   69SLPC  H15S 5903   4.795   6.687   8.340 -0.0955  0.0618 -1.1188
   69SLPC  C216 5904   4.860   6.577   8.171 -0.3595  0.2885 -0.0531
   69SLPC  H16R 5905   4.860   6.471   8.205 -0.1648 -0.0444 -1.0490
   69SLPC  H16S 5906   4.943   6.577   8.097  0.0620  1.9733  0.3851
   69SLPC  C217 5907   4.741   6.620   8.075  0.0523  0.8232 -0.6282
   69SLPC  H17R 5908   4.760   6.727   8.055 -1.3563  1.3974  0.9232
   69SLPC  H17S 5909   4.636   6.616   8.111 -0.6146  3.2640 -2.0312
   69SLPC  C218 5910   4.729   6.563   7.932 -0.3204  0.5996 -1.3060
   69SLPC  H18R 5911   4.818   6.573   7.868  0.1663  0.6850 -0.6277
   69SLPC  H18S 5912   4.650   6.616   7.874 -1.6537  1.5849  1.2207
   69SLPC  H18T 5913   4.711   6.453   7.933 -0.7926  0.6597  0.3126
   69SLPC   C33 5914   5.687   6.887   9.614 -0.5652 -0.2870 -0.9714
   69SLPC   H3X 5915   5.581   6.904   9.640 -0.3762  1.1683 -1.0347
   69SLPC   H3Y 5916   5.698   6.787   9.567  0.5652 -1.0571  0.8196
   69SLPC   C34 5917   5.738   6.989   9.520  0.5530 -0.7802  0.5167
   69SLPC   H4X 5918   5.841   6.968   9.484  0.5386  1.8821 -1.3546
   69SLPC   H4Y 5919   5.752   7.086   9.572 -0.1650 -0.7268  0.6207
   69SLPC   C35 5920   5.651   6.996   9.386  0.4608 -0.0666  0.0521
   69SLPC   H5X 5921   5.548   7.033   9.405 -0.5356 -1.5199 -2.1504
   69SLPC   H5Y 5922   5.646   6.895   9.340  1.2439  0.0926 -0.4073
   69SLPC   C36 5923   5.715   7.088   9.277 -0.7243  0.0456  0.5333
   69SLPC   H6X 5924   5.815   7.053   9.243 -0.4189  1.1759  0.2204
   69SLPC   H6Y 5925   5.745   7.188   9.316 -1.6195  0.1999  0.8495
   69SLPC   C37 5926   5.626   7.111   9.155  0.0081 -0.0637  0.0250
   69SLPC   H7X 5927   5.548   7.179   9.195  0.6555 -1.2857  3.7476
   69SLPC   H7Y 5928   5.573   7.016   9.129 -0.8797  0.5851 -0.5946
   69SLPC   C38 5929   5.707   7.158   9.026 -0.0760  0.0511  0.9708
   69SLPC   H8X 5930   5.792   7.090   9.003  0.2057  0.0252  2.0388
   69SLPC   H8Y 5931   5.752   7.259   9.036  0.0012  0.1963 -0.6699
   69SLPC   C39 5932   5.604   7.157   8.914  0.0759 -0.2327 -0.4354
   69SLPC   H9X 5933   5.524   7.218   8.959  0.2533  0.6744 -1.3109
   69SLPC   H9Y 5934   5.574   7.051   8.899  0.6975 -0.7021  1.4206
   69SLPC  C310 5935   5.671   7.216   8.786  0.2523 -0.2689  0.0296
   69SLPC  H10X 5936   5.723   7.313   8.798  0.7823 -0.2412 -2.0502
   69SLPC  H10Y 5937   5.587   7.244   8.718 -0.6802 -1.4251  0.6566
   69SLPC  C311 5938   5.747   7.118   8.697  0.0766 -0.3490 -0.4482
   69SLPC  H11X 5939   5.688   7.025   8.701 -1.8007  0.7719 -0.7706
   69SLPC  H11Y 5940   5.851   7.110   8.735  0.2561  2.2529 -0.2048
   69SLPC  C312 5941   5.757   7.159   8.554  0.1449 -0.5996 -0.1839
   69SLPC  H12X 5942   5.657   7.165   8.506 -1.6453 -1.7442  3.0661
   69SLPC  H12Y 5943   5.812   7.081   8.498  2.3117  1.2195 -0.7602
   69SLPC  C313 5944   5.842   7.289   8.533 -0.2726  0.2843 -0.1032
   69SLPC  H13X 5945   5.917   7.281   8.615 -0.3881  0.3222  0.0074
   69SLPC  H13Y 5946   5.763   7.364   8.553  0.1802  0.7681 -0.0947
   69SLPC  C314 5947   5.901   7.311   8.392  0.0438  0.0109  0.0808
   69SLPC  H14X 5948   5.983   7.242   8.364 -0.2151 -1.4440  2.6205
   69SLPC  H14Y 5949   5.958   7.406   8.380 -0.9820  0.3921 -2.1967
   69SLPC  C315 5950   5.790   7.310   8.291 -0.0811  0.2144  0.3409
   69SLPC  H15X 5951   5.700   7.363   8.330 -1.7069 -1.2612 -1.1695
   69SLPC  H15Y 5952   5.760   7.204   8.280 -0.5585  0.1442  2.0234
   69SLPC  C316 5953   5.833   7.363   8.162 -0.4516  0.1891  0.1883
   69SLPC  H16X 5954   5.927   7.315   8.128  0.4893  1.2313  1.1907
   69SLPC  H16Y 5955   5.861   7.471   8.170 -2.4620  0.7452  0.2515
   69SLPC  C317 5956   5.735   7.353   8.046 -0.6467  0.0703 -0.3659
   69SLPC  H17X 5957   5.643   7.413   8.059 -0.1518  0.3334  2.8378
   69SLPC  H17Y 5958   5.702   7.248   8.035 -1.5924  0.2590  0.5100
   69SLPC  C318 5959   5.790   7.392   7.906 -0.2850  1.0432  0.7147
   69SLPC  H18X 5960   5.739   7.348   7.818  0.8234  0.0503  0.5379
   69SLPC  H18Y 5961   5.899   7.367   7.906 -0.2326  1.1770 -0.6037
   69SLPC  H18Z 5962   5.794   7.503   7.897  3.9309  1.0166  0.3375
   70SLPC     N 5963   5.141   5.004  10.590 -0.2493  0.3775  0.0452
   70SLPC   C13 5964   5.031   4.946  10.679  0.0665 -0.0642 -0.2445
   70SLPC  H13A 5965   5.079   4.922  10.773  0.0287  0.5701 -0.0606
   70SLPC  H13B 5966   4.963   5.028  10.690 -0.0690 -0.0002 -1.4715
   70SLPC  H13C 5967   4.972   4.863  10.642 -1.5879 -0.0981  2.2565
   70SLPC   C14 5968   5.269   4.923  10.608  0.3789 -0.2236  0.3092
   70SLPC  H14A 5969   5.347   4.974  10.554 -0.5053  1.1508  0.2639
   70SLPC  H14B 5970   5.287   4.911  10.714  0.7497  1.5806  0.4776
   70SLPC  H14C 5971   5.273   4.825  10.563  0.8831  0.1204 -0.4123
   70SLPC   C15 5972   5.157   5.150  10.625 -0.2514 -0.0968 -0.3488
   70SLPC  H15A 5973   5.196   5.170  10.724  0.8948 -1.9060 -0.3926
   70SLPC  H15B 5974   5.238   5.190  10.567  0.4033  0.6357  1.0315
   70SLPC  H15C 5975   5.065   5.206  10.617  0.4525  0.9825 -1.1284
   70SLPC   C12 5976   5.099   4.975  10.444  0.0909  0.5971  0.1656
   70SLPC  H12A 5977   5.104   4.868  10.427  0.1329  1.0267 -3.1610
   70SLPC  H12B 5978   5.168   5.020  10.376 -1.4795  1.1703 -1.1087
   70SLPC   C11 5979   4.956   5.025  10.411  0.3640 -0.0848  0.2495
   70SLPC  H11A 5980   4.955   5.049  10.303 -1.5023  2.3312  0.7226
   70SLPC  H11B 5981   4.934   5.123  10.457 -1.6229 -0.5536  0.3801
   70SLPC     P 5982   4.706   4.969  10.463 -0.0120 -0.1800 -0.0763
   70SLPC   O13 5983   4.618   4.863  10.422  0.2844 -0.0412  0.3729
   70SLPC   O14 5984   4.687   5.014  10.605 -0.1276  0.7768  0.4288
   70SLPC   O12 5985   4.858   4.922  10.438  0.5394 -0.2189 -0.0340
   70SLPC   O11 5986   4.701   5.105  10.374 -0.2616  0.6671 -0.0317
   70SLPC    C1 5987   4.622   5.131  10.260 -0.5079 -0.3866  0.2555
   70SLPC    HA 5988   4.518   5.101  10.282 -0.2987 -1.2357  0.1159
   70SLPC    HB 5989   4.633   5.237  10.228 -2.3226 -0.1838  0.1999
   70SLPC    C2 5990   4.671   5.045  10.134  0.1545  0.5356  0.4097
   70SLPC    HS 5991   4.664   4.945  10.181  0.0486  0.9263  1.2481
   70SLPC   O21 5992   4.808   5.082  10.102  0.7505 -0.0530  0.0346
   70SLPC   C21 5993   4.879   4.982  10.072 -0.5719 -0.4149  0.2512
   70SLPC   O22 5994   4.839   4.866  10.058  0.5576 -0.5266 -0.3229
   70SLPC   C22 5995   5.026   5.017  10.044 -1.3756  0.4653 -0.3025
   70SLPC   H2R 5996   5.034   5.125  10.018  2.2050  0.5747  0.6696
   70SLPC   H2S 5997   5.075   5.005  10.143 -1.0864  1.4282 -0.3159
   70SLPC    C3 5998   4.582   5.065  10.010  0.2995 -0.3458  1.2921
   70SLPC    HX 5999   4.585   5.172   9.979  3.6037 -0.2368  1.5951
   70SLPC    HY 6000   4.479   5.046  10.045  0.5829  0.8754  2.9160
   70SLPC   O31 6001   4.620   4.994   9.889  0.0184  0.3570  0.1673
   70SLPC   C31 6002   4.586   4.866   9.880 -0.0035  0.0341  0.5439
   70SLPC   O32 6003   4.522   4.804   9.964 -0.1020  0.7624  0.1018
   70SLPC   C32 6004   4.655   4.804   9.761  0.1396  0.0398  0.5219
   70SLPC   H2X 6005   4.764   4.820   9.764  0.1899 -0.0792 -0.3128
   70SLPC   H2Y 6006   4.618   4.852   9.667 -3.3834 -0.2025  1.6317
   70SLPC   C23 6007   5.094   4.931   9.930  0.0077 -0.2489 -0.7690
   70SLPC   H3R 6008   5.076   4.825   9.955  0.8187 -0.7235 -2.1039
   70SLPC   H3S 6009   5.202   4.953   9.949 -0.3533  1.9849 -0.9632
   70SLPC   C24 6010   5.056   4.977   9.795  1.1356 -0.3940 -0.0899
   70SLPC   H4R 6011   5.088   5.080   9.767  0.5595 -0.8485 -2.7170
   70SLPC   H4S 6012   4.945   4.986   9.788  1.0572 -0.1149  1.3118
   70SLPC   C25 6013   5.103   4.887   9.677 -0.3282 -0.1415  0.2994
   70SLPC   H5R 6014   5.042   4.795   9.683 -1.6442  0.6637 -0.2365
   70SLPC   H5S 6015   5.208   4.855   9.689 -0.2087  0.2003  0.1785
   70SLPC   C26 6016   5.086   4.939   9.537  0.1539  0.5918  0.2450
   70SLPC   H6R 6017   5.174   5.007   9.527  0.0326  0.5740 -1.1659
   70SLPC   H6S 6018   5.004   5.013   9.526  0.0147  0.3534 -0.3036
   70SLPC   C27 6019   5.081   4.829   9.428  0.2397  0.1457 -0.0106
   70SLPC   H7R 6020   5.000   4.763   9.465 -1.5231  2.8543  1.2903
   70SLPC   H7S 6021   5.175   4.770   9.430  0.0124 -0.2199  1.3569
   70SLPC   C28 6022   5.053   4.885   9.288  0.2499 -0.0869 -1.1620
   70SLPC   H8R 6023   5.102   4.982   9.268  1.4588 -0.6421 -0.9951
   70SLPC   H8S 6024   4.942   4.897   9.292  0.5120  2.4616  0.9800
   70SLPC   C29 6025   5.097   4.780   9.183  0.4239 -0.8295  0.0101
   70SLPC   H9R 6026   5.082   4.678   9.219  0.0980 -1.0240 -0.6682
   70SLPC  C210 6027   5.158   4.805   9.062  0.8780 -0.1455 -0.0229
   70SLPC  H10R 6028   5.171   4.720   8.994  2.1754  0.7801 -0.9790
   70SLPC  C211 6029   5.190   4.934   8.996  0.1466 -0.9650  0.3655
   70SLPC  H11R 6030   5.300   4.940   8.979 -0.1038  1.0730 -0.8745
   70SLPC  H11S 6031   5.169   5.009   9.075  0.0405 -0.8071  0.1910
   70SLPC  C212 6032   5.109   4.969   8.867 -0.4043  0.2405 -0.1789
   70SLPC  H12R 6033   5.000   4.954   8.873 -0.1803 -2.9479 -1.9316
   70SLPC  C213 6034   5.161   5.010   8.744  0.2249 -0.0514 -0.1809
   70SLPC  H13R 6035   5.098   5.016   8.655  0.2416 -0.3347 -0.2124
   70SLPC  C214 6036   5.314   5.025   8.717  0.0654 -0.0601 -0.1882
   70SLPC  H14R 6037   5.364   5.061   8.810  0.8223 -0.2773 -0.4972
   70SLPC  H14S 6038   5.336   5.115   8.656 -0.0404  0.6904  0.8463
   70SLPC  C215 6039   5.394   4.909   8.657  0.8418 -1.2462 -0.3659
   70SLPC  H15R 6040   5.383   4.926   8.548 -1.0476  0.8393  0.0848
   70SLPC  H15S 6041   5.349   4.811   8.685 -2.5197  0.2877  0.1067
   70SLPC  C216 6042   5.539   4.922   8.690  0.4402  0.2246 -0.4075
   70SLPC  H16R 6043   5.551   4.899   8.798  0.4560 -1.6497 -0.7792
   70SLPC  H16S 6044   5.573   5.026   8.668  1.4404 -0.4929 -2.5417
   70SLPC  C217 6045   5.618   4.828   8.604 -0.1736  1.4670  1.1036
   70SLPC  H17R 6046   5.632   4.861   8.499  4.9345 -1.9234  0.3104
   70SLPC  H17S 6047   5.560   4.735   8.586 -0.4791  1.7816  0.4541
   70SLPC  C218 6048   5.764   4.791   8.663 -0.1671  0.1243 -0.1423
   70SLPC  H18R 6049   5.804   4.708   8.599 -1.1907 -1.5736  1.3203
   70SLPC  H18S 6050   5.748   4.760   8.769 -2.2339  0.4147 -0.3281
   70SLPC  H18T 6051   5.830   4.880   8.660 -1.2539  1.0212  1.4652
   70SLPC   C33 6052   4.648   4.647   9.756  0.4068  0.2081 -0.6659
   70SLPC   H3X 6053   4.539   4.624   9.754  0.7406 -1.4535 -1.9414
   70SLPC   H3Y 6054   4.690   4.609   9.851 -1.2317 -0.8212 -0.3000
   70SLPC   C34 6055   4.712   4.585   9.633  0.3224 -0.2853 -0.8621
   70SLPC   H4X 6056   4.706   4.474   9.637 -0.1477 -0.2568 -0.7279
   70SLPC   H4Y 6057   4.821   4.603   9.625  0.5490 -1.3790 -0.3444
   70SLPC   C35 6058   4.649   4.633   9.504 -0.3716  0.2070  0.0992
   70SLPC   H5X 6059   4.663   4.743   9.493 -0.5085  0.7221  3.8273
   70SLPC   H5Y 6060   4.538   4.621   9.496 -0.7011  2.5980  0.1717
   70SLPC   C36 6061   4.717   4.565   9.378  0.1349 -0.2383 -0.6059
   70SLPC   H6X 6062   4.675   4.465   9.352  0.5343 -0.8559  1.0239
   70SLPC   H6Y 6063   4.825   4.545   9.396  0.2624  0.8317 -0.1327
   70SLPC   C37 6064   4.700   4.663   9.259 -0.2719 -0.1087  0.5179
   70SLPC   H7X 6065   4.750   4.758   9.287 -1.0288  0.4324  0.0619
   70SLPC   H7Y 6066   4.594   4.682   9.233 -0.0645 -2.2266 -2.3915
   70SLPC   C38 6067   4.776   4.610   9.141 -0.3514 -0.5420  0.1062
   70SLPC   H8X 6068   4.736   4.512   9.108  1.0694 -1.7588  1.8117
   70SLPC   H8Y 6069   4.882   4.595   9.172 -0.6682 -0.6457  1.1649
   70SLPC   C39 6070   4.767   4.698   9.018 -0.8489 -0.5512 -0.1032
   70SLPC   H9X 6071   4.842   4.678   8.938 -1.9068 -2.8561 -0.5745
   70SLPC   H9Y 6072   4.792   4.803   9.046 -0.5417 -0.2926 -1.3020
   70SLPC  C310 6073   4.640   4.703   8.940 -0.0232  0.0687 -0.0334
   70SLPC  H10X 6074   4.586   4.794   8.975  2.4224  1.3746  0.5689
   70SLPC  H10Y 6075   4.594   4.603   8.951  2.0588 -0.8351  0.8597
   70SLPC  C311 6076   4.650   4.719   8.789  0.3981  0.3037 -0.5383
   70SLPC  H11X 6077   4.712   4.634   8.754  2.0800  1.7982 -1.3771
   70SLPC  H11Y 6078   4.707   4.814   8.775  0.6287 -0.0240 -1.9574
   70SLPC  C312 6079   4.520   4.735   8.711  0.4272 -0.7273 -0.0058
   70SLPC  H12X 6080   4.440   4.800   8.750 -2.9939 -2.9148 -2.7325
   70SLPC  H12Y 6081   4.463   4.639   8.706 -2.4509  0.7444  1.9530
   70SLPC  C313 6082   4.537   4.767   8.562 -0.1949 -0.0602  0.2672
   70SLPC  H13X 6083   4.582   4.869   8.562 -2.7349  1.1317  0.5156
   70SLPC  H13Y 6084   4.436   4.775   8.518  0.3189 -1.9613 -1.4481
   70SLPC  C314 6085   4.632   4.661   8.495  0.3259  0.1441  0.2171
   70SLPC  H14X 6086   4.727   4.667   8.552  0.9509 -2.0061 -0.5239
   70SLPC  H14Y 6087   4.650   4.684   8.388 -0.5114  1.3955  0.3223
   70SLPC  C315 6088   4.581   4.518   8.514 -0.3367 -0.2798 -0.2811
   70SLPC  H15X 6089   4.472   4.513   8.494 -0.3931  1.3347 -0.4949
   70SLPC  H15Y 6090   4.588   4.484   8.620 -0.1558 -0.4581 -0.3493
   70SLPC  C316 6091   4.659   4.416   8.433 -0.4030 -0.3623 -0.4683
   70SLPC  H16X 6092   4.643   4.315   8.476 -2.5372 -0.2870 -0.9738
   70SLPC  H16Y 6093   4.763   4.446   8.458 -0.2953 -1.9626  1.2420
   70SLPC  C317 6094   4.618   4.413   8.287  0.4092 -0.0573  0.0938
   70SLPC  H17X 6095   4.623   4.515   8.243  2.0196 -0.2901 -0.3006
   70SLPC  H17Y 6096   4.508   4.401   8.291  0.2678  1.2186  0.7177
   70SLPC  C318 6097   4.695   4.307   8.213  0.1013  0.0242 -0.2472
   70SLPC  H18X 6098   4.792   4.357   8.194 -0.4831  0.7898 -1.3617
   70SLPC  H18Y 6099   4.643   4.286   8.117  1.7061  1.5324 -1.5140
   70SLPC  H18Z 6100   4.701   4.220   8.282 -0.8784  2.0294  2.5623
   71SLPC     N 6101   5.027   2.701  10.549  0.1409  0.5417  0.7612
   71SLPC   C13 6102   4.956   2.826  10.568 -0.0441 -1.0579  0.5354
   71SLPC  H13A 6103   4.971   2.887  10.480 -0.5599 -0.8169  0.6167
   71SLPC  H13B 6104   4.849   2.815  10.569 -0.0744 -1.3614 -1.8008
   71SLPC  H13C 6105   4.978   2.887  10.655 -0.8421  0.8892 -0.5740
   71SLPC   C14 6106   4.966   2.588  10.626 -0.1779 -0.0131 -0.0249
   71SLPC  H14A 6107   4.861   2.574  10.604  0.1858 -1.6897 -0.8541
   71SLPC  H14B 6108   4.996   2.487  10.603 -0.1128 -0.1572  0.6705
   71SLPC  H14C 6109   4.984   2.600  10.731 -2.1430  0.0573  0.3519
   71SLPC   C15 6110   5.162   2.726  10.587 -1.1529 -0.1241  0.1696
   71SLPC  H15A 6111   5.173   2.737  10.693 -0.5215 -3.2927  0.5401
   71SLPC  H15B 6112   5.226   2.643  10.561  0.1494  1.1400 -0.8078
   71SLPC  H15C 6113   5.199   2.814  10.536 -0.5123  0.2638  1.2723
   71SLPC   C12 6114   4.999   2.665  10.402  0.4600  0.4245  0.5813
   71SLPC  H12A 6115   4.895   2.685  10.382  0.3969 -1.1227 -0.8289
   71SLPC  H12B 6116   5.011   2.558  10.390  2.1736  0.8240 -2.0812
   71SLPC   C11 6117   5.066   2.733  10.284  0.0738  0.1603 -0.0264
   71SLPC  H11A 6118   5.032   2.679  10.193  0.4287 -3.5816  1.8503
   71SLPC  H11B 6119   5.177   2.730  10.280  0.1233  2.0026 -1.5506
   71SLPC     P 6120   5.057   2.967  10.163 -0.3120 -0.2049 -0.0421
   71SLPC   O13 6121   5.002   3.099  10.198 -0.7614  0.1531  0.3287
   71SLPC   O14 6122   5.200   2.951  10.135  0.0774  0.1155  0.0806
   71SLPC   O12 6123   5.023   2.868  10.287  0.0462 -0.4538  0.5776
   71SLPC   O11 6124   4.976   2.911  10.037  0.2089  0.4194 -0.1610
   71SLPC    C1 6125   4.843   2.856  10.062  0.4063  0.2995  0.1258
   71SLPC    HA 6126   4.817   2.830  10.167  0.2526 -0.0887 -0.0082
   71SLPC    HB 6127   4.777   2.940  10.032  1.8623  0.9636 -1.3956
   71SLPC    C2 6128   4.819   2.735   9.967  0.6266 -0.0705  0.2114
   71SLPC    HS 6129   4.903   2.668   9.994  0.8955 -0.9699 -2.5058
   71SLPC   O21 6130   4.824   2.778   9.827  0.0347 -0.0412  0.5269
   71SLPC   C21 6131   4.891   2.710   9.742  0.6149 -0.3715  0.5200
   71SLPC   O22 6132   4.961   2.610   9.762 -0.0553  0.0211 -0.0775
   71SLPC   C22 6133   4.871   2.775   9.604  0.6477  0.0563  0.6020
   71SLPC   H2R 6134   4.768   2.761   9.565  1.9001  1.3432 -3.6786
   71SLPC   H2S 6135   4.895   2.882   9.616 -0.7372  0.6357 -1.3311
   71SLPC    C3 6136   4.685   2.653   9.997  0.0114 -0.7134 -0.2280
   71SLPC    HX 6137   4.604   2.729   9.984  1.2787  0.6020 -0.7281
   71SLPC    HY 6138   4.684   2.624  10.104 -1.9152 -1.5409 -0.4286
   71SLPC   O31 6139   4.668   2.549   9.904 -0.0354 -0.2565 -0.1947
   71SLPC   C31 6140   4.708   2.430   9.937 -0.0418 -0.0428  0.6590
   71SLPC   O32 6141   4.766   2.392  10.036 -0.2608 -0.2807 -0.1362
   71SLPC   C32 6142   4.665   2.325   9.827  0.6906 -0.4059  0.1719
   71SLPC   H2X 6143   4.555   2.337   9.818  0.5553 -1.7916 -0.1565
   71SLPC   H2Y 6144   4.701   2.232   9.877  2.9521  0.7861  0.9288
   71SLPC   C23 6145   4.954   2.711   9.479  0.1199 -0.5060 -0.3137
   71SLPC   H3R 6146   4.898   2.619   9.453 -2.5951  0.6936  0.9456
   71SLPC   H3S 6147   5.054   2.690   9.522  0.2958  0.4532 -0.2336
   71SLPC   C24 6148   4.950   2.797   9.350  0.1850  0.1638  1.2508
   71SLPC   H4R 6149   4.958   2.904   9.378 -0.9205  1.1430 -1.8222
   71SLPC   H4S 6150   4.848   2.795   9.307  0.7816  1.4142 -0.3304
   71SLPC   C25 6151   5.055   2.746   9.248 -0.3199 -1.0041  0.1875
   71SLPC   H5R 6152   5.045   2.636   9.254 -3.3573 -0.7617  1.0881
   71SLPC   H5S 6153   5.154   2.771   9.292 -0.8362 -0.9018  1.3172
   71SLPC   C26 6154   5.039   2.792   9.106  0.1352  0.2843 -0.8021
   71SLPC   H6R 6155   5.064   2.899   9.090  1.0541  0.1624 -0.2067
   71SLPC   H6S 6156   4.932   2.774   9.082  0.2886 -0.5287 -0.9093
   71SLPC   C27 6157   5.133   2.710   9.012  0.2831  0.1026  0.7080
   71SLPC   H7R 6158   5.132   2.605   9.049  1.9132  0.5345  2.0591
   71SLPC   H7S 6159   5.236   2.750   9.013 -0.2349  1.4878  0.4930
   71SLPC   C28 6160   5.080   2.713   8.874  0.3749  0.2973  0.0895
   71SLPC   H8R 6161   4.996   2.640   8.880 -0.5251  1.3072  0.0724
   71SLPC   H8S 6162   5.152   2.664   8.805 -1.5796 -2.5086 -0.1616
   71SLPC   C29 6163   5.042   2.848   8.821 -0.2891 -0.0271  0.0205
   71SLPC   H9R 6164   4.986   2.911   8.891 -0.1061  0.4010 -0.2148
   71SLPC  C210 6165   5.104   2.910   8.719  0.5114 -0.7196 -0.4944
   71SLPC  H10R 6166   5.074   3.013   8.696  1.6911 -0.3950 -0.6578
   71SLPC  C211 6167   5.198   2.851   8.617  0.1309  0.1904 -0.6316
   71SLPC  H11R 6168   5.264   2.776   8.667  1.1120  1.7234  0.4662
   71SLPC  H11S 6169   5.264   2.923   8.566  0.1943  0.0722 -0.7171
   71SLPC  C212 6170   5.125   2.771   8.511 -0.0196  0.3591 -0.1115
   71SLPC  H12R 6171   5.063   2.691   8.554  0.7788 -0.9725 -1.3464
   71SLPC  C213 6172   5.128   2.779   8.372 -0.2210  0.1279 -0.7248
   71SLPC  H13R 6173   5.075   2.701   8.314  0.2936 -1.3875  0.7810
   71SLPC  C214 6174   5.190   2.889   8.294  0.6292 -0.8406  0.5679
   71SLPC  H14R 6175   5.200   2.869   8.185  1.5973 -0.5491  0.5928
   71SLPC  H14S 6176   5.296   2.905   8.325  0.4681  1.9649 -0.0802
   71SLPC  C215 6177   5.105   3.026   8.316 -0.0647 -0.0495  0.7774
   71SLPC  H15R 6178   5.105   3.065   8.420 -0.8811  1.7817  0.1238
   71SLPC  H15S 6179   5.000   3.000   8.287  0.3137 -2.3803  1.2643
   71SLPC  C216 6180   5.173   3.142   8.243 -0.2501  0.3399  0.3059
   71SLPC  H16R 6181   5.111   3.232   8.263  1.4411  2.0816 -1.7046
   71SLPC  H16S 6182   5.171   3.127   8.133 -2.0174  0.0925  0.3452
   71SLPC  C217 6183   5.324   3.161   8.287  0.4893  0.3389  0.3420
   71SLPC  H17R 6184   5.381   3.068   8.264  0.6515  0.4390  0.3337
   71SLPC  H17S 6185   5.339   3.181   8.395  1.9626  0.9868  0.0495
   71SLPC  C218 6186   5.394   3.286   8.221  1.2828  0.1362  0.3017
   71SLPC  H18R 6187   5.490   3.314   8.270  1.0943  1.9056 -0.2861
   71SLPC  H18S 6188   5.323   3.370   8.233  1.5983  0.3591  0.6384
   71SLPC  H18T 6189   5.406   3.271   8.111 -0.5460 -0.4933  0.1486
   71SLPC   C33 6190   4.749   2.359   9.693 -0.1364  0.2957 -0.2423
   71SLPC   H3X 6191   4.859   2.366   9.713 -0.2011 -0.2680  0.3463
   71SLPC   H3Y 6192   4.725   2.461   9.657  0.7412  0.1907 -1.1735
   71SLPC   C34 6193   4.745   2.251   9.582  0.3924 -0.0675 -0.0715
   71SLPC   H4X 6194   4.645   2.203   9.579  0.1706  0.3742  0.1965
   71SLPC   H4Y 6195   4.805   2.160   9.605 -0.4054 -0.6042 -0.0337
   71SLPC   C35 6196   4.782   2.314   9.446 -1.1104  0.0417 -0.1102
   71SLPC   H5X 6197   4.893   2.323   9.448 -0.8935 -1.7535 -1.4110
   71SLPC   H5Y 6198   4.725   2.407   9.424 -0.1393  0.1544 -2.5435
   71SLPC   C36 6199   4.754   2.219   9.327  0.1653  0.2675  0.3952
   71SLPC   H6X 6200   4.643   2.214   9.325  0.0932  1.6826 -1.4234
   71SLPC   H6Y 6201   4.809   2.125   9.346  1.1302  0.6294 -0.5288
   71SLPC   C37 6202   4.805   2.265   9.187  0.4531  0.4349  0.9534
   71SLPC   H7X 6203   4.916   2.268   9.192  0.5980 -2.5069  1.3706
   71SLPC   H7Y 6204   4.780   2.370   9.159 -1.7109  0.4289  2.5188
   71SLPC   C38 6205   4.765   2.177   9.071  0.2261  0.8459  0.1729
   71SLPC   H8X 6206   4.655   2.175   9.058 -0.2056  0.8907  3.2307
   71SLPC   H8Y 6207   4.795   2.070   9.079  2.0699  1.4386  2.0735
   71SLPC   C39 6208   4.817   2.234   8.935 -0.5393 -0.8283 -0.6597
   71SLPC   H9X 6209   4.927   2.250   8.946 -0.5892 -0.4701 -0.6708
   71SLPC   H9Y 6210   4.777   2.337   8.926 -0.2389 -0.7163 -0.7348
   71SLPC  C310 6211   4.787   2.154   8.813  0.2850 -0.0702  0.2263
   71SLPC  H10X 6212   4.680   2.160   8.784 -0.3400  0.6347  2.4961
   71SLPC  H10Y 6213   4.817   2.048   8.823 -1.2370 -0.4503  1.1262
   71SLPC  C311 6214   4.859   2.218   8.692  0.4075  0.0716  0.0540
   71SLPC  H11X 6215   4.968   2.200   8.703  0.5758 -1.2768 -2.8106
   71SLPC  H11Y 6216   4.850   2.329   8.702  0.6818  0.0613  0.4380
   71SLPC  C312 6217   4.800   2.186   8.556  0.3012  0.1170  0.1223
   71SLPC  H12X 6218   4.702   2.137   8.572  0.6231 -0.1320  1.4832
   71SLPC  H12Y 6219   4.864   2.122   8.492 -0.1126  0.4500 -0.6334
   71SLPC  C313 6220   4.762   2.304   8.471 -0.2029  0.1191  0.2553
   71SLPC  H13X 6221   4.849   2.373   8.469 -0.4637  0.4475 -0.0626
   71SLPC  H13Y 6222   4.675   2.360   8.512 -0.2789 -0.4272  0.8605
   71SLPC  C314 6223   4.735   2.270   8.320 -0.0573 -0.3956  0.3065
   71SLPC  H14X 6224   4.805   2.191   8.286 -0.2986 -0.4711 -0.0267
   71SLPC  H14Y 6225   4.753   2.361   8.258 -1.0089  0.8773  1.8396
   71SLPC  C315 6226   4.590   2.237   8.276  0.2301  0.6381  0.1042
   71SLPC  H15X 6227   4.526   2.316   8.321  0.3798  0.7515  0.1193
   71SLPC  H15Y 6228   4.562   2.139   8.321  1.1207  1.9024  3.7586
   71SLPC  C316 6229   4.555   2.222   8.130  0.0400  0.4224  0.6565
   71SLPC  H16X 6230   4.447   2.199   8.124 -0.0357  1.1112 -0.8448
   71SLPC  H16Y 6231   4.616   2.138   8.090 -2.1966 -0.3604 -1.3293
   71SLPC  C317 6232   4.591   2.331   8.038 -0.0505  0.6488  0.4660
   71SLPC  H17X 6233   4.700   2.351   8.032 -0.3051  1.7085 -2.5560
   71SLPC  H17Y 6234   4.540   2.423   8.073 -0.5086  0.1639  1.0979
   71SLPC  C318 6235   4.557   2.302   7.891  0.8774  1.0692  0.4296
   71SLPC  H18X 6236   4.612   2.378   7.832 -1.0088  1.7595 -0.5185
   71SLPC  H18Y 6237   4.451   2.320   7.864  0.9095  1.0058  0.2548
   71SLPC  H18Z 6238   4.583   2.196   7.868 -0.4484  0.3114  2.1617
   72SLPC     N 6239   5.133   0.515  10.433 -0.0641  0.4376  0.0000
   72SLPC   C13 6240   5.043   0.575  10.529  0.3527  0.3452 -0.0310
   72SLPC  H13A 6241   4.979   0.648  10.481  0.6913  0.5395 -0.1872
   72SLPC  H13B 6242   4.980   0.502  10.579  0.3513  0.9308  0.8546
   72SLPC  H13C 6243   5.093   0.624  10.611 -0.9616 -1.4354  1.9409
   72SLPC   C14 6244   5.059   0.426  10.339  0.6307 -0.2397 -0.1963
   72SLPC  H14A 6245   4.982   0.489  10.297 -1.2690 -1.4550  1.2958
   72SLPC  H14B 6246   5.118   0.373  10.265  1.8944 -2.1137  2.0229
   72SLPC  H14C 6247   5.023   0.343  10.398  3.0675 -1.2303  0.0051
   72SLPC   C15 6248   5.229   0.423  10.503 -0.6819  0.2808 -0.0699
   72SLPC  H15A 6249   5.292   0.372  10.432 -0.5536  1.0422 -0.5132
   72SLPC  H15B 6250   5.288   0.488  10.566 -1.0074  1.7466 -1.2161
   72SLPC  H15C 6251   5.184   0.341  10.556 -0.0690  0.8285  1.3570
   72SLPC   C12 6252   5.208   0.620  10.357  0.4435  0.2959 -0.2786
   72SLPC  H12A 6253   5.255   0.563  10.278 -1.5274 -0.2442 -1.1334
   72SLPC  H12B 6254   5.282   0.674  10.414  0.9854 -0.4465 -0.2607
   72SLPC   C11 6255   5.129   0.723  10.277  0.0295 -0.1032  0.9065
   72SLPC  H11A 6256   5.090   0.666  10.190 -1.6336  0.4397  1.2557
   72SLPC  H11B 6257   5.201   0.791  10.227 -0.4920  1.6102  2.3626
   72SLPC     P 6258   5.050   0.934  10.412  0.3915 -0.0304  0.1335
   72SLPC   O13 6259   4.953   0.939  10.524  0.2885 -0.8579  0.1289
   72SLPC   O14 6260   5.193   0.958  10.432  0.1036  0.1471 -0.2859
   72SLPC   O12 6261   5.027   0.793  10.349  0.4522  0.1756  0.4945
   72SLPC   O11 6262   4.991   1.033  10.299 -1.0278 -0.2488  0.7998
   72SLPC    C1 6263   5.008   0.999  10.159 -0.4836 -0.1653  0.1750
   72SLPC    HA 6264   5.064   1.084  10.114 -1.5891 -0.7396 -2.4222
   72SLPC    HB 6265   5.071   0.910  10.139  2.0221  1.3785  0.7901
   72SLPC    C2 6266   4.872   0.986  10.092 -0.0615 -0.1877 -0.2057
   72SLPC    HS 6267   4.821   0.895  10.129  0.0489 -0.0490  0.2975
   72SLPC   O21 6268   4.893   0.986   9.951 -0.7465  0.1123 -0.1970
   72SLPC   C21 6269   4.841   0.887   9.885  0.3105  0.4125  0.5632
   72SLPC   O22 6270   4.777   0.795   9.933  0.4560  0.2555  0.2713
   72SLPC   C22 6271   4.873   0.897   9.729 -0.3795  0.3377 -0.6206
   72SLPC   H2R 6272   4.884   1.004   9.698 -1.0193  0.5171 -0.2609
   72SLPC   H2S 6273   4.972   0.848   9.719  0.3532  1.0935  2.0552
   72SLPC    C3 6274   4.774   1.109  10.116  0.3945 -0.0097  0.0589
   72SLPC    HX 6275   4.824   1.197  10.070 -1.4634  1.4559  0.7121
   72SLPC    HY 6276   4.769   1.120  10.226 -0.8638 -1.8211  0.2242
   72SLPC   O31 6277   4.646   1.087  10.067 -0.2436 -0.5603  0.3333
   72SLPC   C31 6278   4.571   1.002  10.117  0.5510  0.1885 -0.1300
   72SLPC   O32 6279   4.597   0.922  10.201  0.2677  0.0601 -0.4158
   72SLPC   C32 6280   4.443   0.993  10.041  0.4718  0.0987  0.3477
   72SLPC   H2X 6281   4.389   1.089  10.034 -1.6879 -1.1896 -2.6020
   72SLPC   H2Y 6282   4.369   0.931  10.096 -0.7971  0.8836 -0.4270
   72SLPC   C23 6283   4.779   0.819   9.637 -0.0071 -0.3924  0.3841
   72SLPC   H3R 6284   4.681   0.867   9.620  0.1472 -0.3233 -0.3150
   72SLPC   H3S 6285   4.754   0.724   9.689 -2.9477  1.0642  1.8216
   72SLPC   C24 6286   4.850   0.767   9.511  0.0496  0.2957  0.3237
   72SLPC   H4R 6287   4.785   0.710   9.441  1.8141 -1.1150 -0.2316
   72SLPC   H4S 6288   4.932   0.702   9.546 -0.5658 -0.7677 -0.1548
   72SLPC   C25 6289   4.915   0.887   9.433  0.6273 -0.0458 -0.7255
   72SLPC   H5R 6290   4.989   0.932   9.502 -1.4501  0.5015  1.2854
   72SLPC   H5S 6291   4.839   0.966   9.413 -0.8602 -0.9512  0.9902
   72SLPC   C26 6292   4.968   0.851   9.297  0.2845  0.2292 -0.4109
   72SLPC   H6R 6293   4.886   0.799   9.242 -0.2767  0.0021  0.6090
   72SLPC   H6S 6294   5.053   0.780   9.300  0.5448  0.3127 -3.1077
   72SLPC   C27 6295   5.008   0.978   9.210 -0.3224  0.0673 -0.4097
   72SLPC   H7R 6296   5.079   1.036   9.272  0.1393 -0.6010 -0.2972
   72SLPC   H7S 6297   4.922   1.044   9.187 -0.2332  0.8906  1.4735
   72SLPC   C28 6298   5.084   0.946   9.080 -0.1089 -0.2555 -0.1869
   72SLPC   H8R 6299   5.035   0.879   9.006  0.0230  0.7081 -1.1750
   72SLPC   H8S 6300   5.175   0.896   9.119  2.3226  4.6235  1.2226
   72SLPC   C29 6301   5.124   1.076   9.007 -0.1429  0.4443  0.6117
   72SLPC   H9R 6302   5.157   1.161   9.069  2.3432 -0.3451  0.4781
   72SLPC  C210 6303   5.104   1.109   8.878 -0.4438  1.3335 -0.4112
   72SLPC  H10R 6304   5.120   1.215   8.855  2.2895  1.9574  3.4739
   72SLPC  C211 6305   5.052   1.017   8.773  0.1048 -0.3155 -0.3919
   72SLPC  H11R 6306   4.950   0.979   8.796  0.6005 -1.3501  0.1758
   72SLPC  H11S 6307   5.109   0.922   8.771 -2.0159 -1.7163  1.2922
   72SLPC  C212 6308   5.069   1.072   8.631  0.0814  0.0708  0.6734
   72SLPC  H12R 6309   5.174   1.072   8.601 -0.1222  0.4035 -0.0706
   72SLPC  C213 6310   4.972   1.116   8.549 -0.1166 -0.9540  0.3486
   72SLPC  H13R 6311   4.985   1.153   8.446 -0.3515 -2.0971 -0.1094
   72SLPC  C214 6312   4.823   1.131   8.581  0.0240 -0.5543 -0.1289
   72SLPC  H14R 6313   4.797   1.101   8.684  0.3616  0.6884  0.3428
   72SLPC  H14S 6314   4.768   1.063   8.513  0.2834 -3.1100  2.0579
   72SLPC  C215 6315   4.772   1.276   8.551  0.0039 -0.0608 -0.3934
   72SLPC  H15R 6316   4.813   1.314   8.454  2.7031  0.0456  0.6917
   72SLPC  H15S 6317   4.812   1.347   8.625 -0.7648 -1.3637  1.3331
   72SLPC  C216 6318   4.616   1.261   8.540  0.3600  0.2087  0.4898
   72SLPC  H16R 6319   4.578   1.228   8.639  2.1548 -0.5625  0.9589
   72SLPC  H16S 6320   4.603   1.175   8.471 -0.4232  0.2184  0.6155
   72SLPC  C217 6321   4.563   1.397   8.489  0.3504 -0.3471  0.8541
   72SLPC  H17R 6322   4.607   1.405   8.388 -1.0891 -3.0018 -0.0806
   72SLPC  H17S 6323   4.602   1.481   8.550 -1.4833 -1.0254  3.1119
   72SLPC  C218 6324   4.408   1.397   8.480  0.2235 -0.1356 -0.5030
   72SLPC  H18R 6325   4.360   1.419   8.578  1.7523 -0.3127  0.3066
   72SLPC  H18S 6326   4.373   1.302   8.434 -0.4208 -0.8463  1.3613
   72SLPC  H18T 6327   4.367   1.470   8.406 -3.1451 -1.8455 -0.5136
   72SLPC   C33 6328   4.473   0.933   9.898 -0.7506 -0.1638  0.2694
   72SLPC   H3X 6329   4.516   0.835   9.925 -0.4952  0.5156  2.5114
   72SLPC   H3Y 6330   4.545   0.994   9.839 -0.0964 -0.8747  0.3187
   72SLPC   C34 6331   4.339   0.906   9.821  0.1343 -0.4241  0.7516
   72SLPC   H4X 6332   4.280   1.000   9.816  0.2111 -0.4178 -0.2499
   72SLPC   H4Y 6333   4.281   0.828   9.874 -0.0298 -2.0925 -1.7499
   72SLPC   C35 6334   4.352   0.852   9.671  0.0104 -0.5821 -0.0348
   72SLPC   H5X 6335   4.414   0.921   9.610 -0.9525  0.2865 -0.0505
   72SLPC   H5Y 6336   4.250   0.855   9.628 -0.6829 -3.0906  1.2768
   72SLPC   C36 6337   4.410   0.706   9.668 -0.5602 -0.3614 -0.0913
   72SLPC   H6X 6338   4.325   0.634   9.678 -2.2057  0.6274 -4.4561
   72SLPC   H6Y 6339   4.481   0.701   9.753  0.3296 -0.4847 -0.8280
   72SLPC   C37 6340   4.474   0.656   9.539  0.8001  0.2904 -0.0752
   72SLPC   H7X 6341   4.521   0.562   9.575  0.3417  0.2383  0.3905
   72SLPC   H7Y 6342   4.551   0.732   9.512  0.6609  0.8720  1.1355
   72SLPC   C38 6343   4.374   0.614   9.435  0.3451 -0.3721  1.1447
   72SLPC   H8X 6344   4.315   0.523   9.459 -0.5083 -0.0188  0.4335
   72SLPC   H8Y 6345   4.433   0.586   9.345 -2.1773  1.0370 -1.1023
   72SLPC   C39 6346   4.283   0.721   9.371 -0.0608  0.0200  0.0393
   72SLPC   H9X 6347   4.338   0.817   9.361  0.8229 -0.4708  0.0537
   72SLPC   H9Y 6348   4.197   0.736   9.440 -0.0587 -2.4514  0.6611
   72SLPC  C310 6349   4.215   0.687   9.233 -0.4123  0.0661  0.0366
   72SLPC  H10X 6350   4.144   0.764   9.199 -0.0351 -0.4854 -2.1248
   72SLPC  H10Y 6351   4.153   0.596   9.247 -1.1385  0.1191 -2.4715
   72SLPC  C311 6352   4.308   0.666   9.117  0.2525  0.1929 -0.1801
   72SLPC  H11X 6353   4.367   0.573   9.135  0.1190  0.2844  0.8053
   72SLPC  H11Y 6354   4.376   0.754   9.118 -0.8499  1.0628 -1.0730
   72SLPC  C312 6355   4.241   0.663   8.978 -0.0652  0.2849 -0.1203
   72SLPC  H12X 6356   4.170   0.746   8.957  0.9184  0.7982 -1.6114
   72SLPC  H12Y 6357   4.178   0.573   8.965  1.5189 -0.7778 -0.7402
   72SLPC  C313 6358   4.350   0.655   8.867 -0.5943 -0.0068 -0.1995
   72SLPC  H13X 6359   4.298   0.632   8.771 -0.6066  0.7022 -0.3684
   72SLPC  H13Y 6360   4.418   0.572   8.894  0.7247  1.0189 -0.2632
   72SLPC  C314 6361   4.440   0.784   8.846  0.6808 -0.4884 -0.1239
   72SLPC  H14X 6362   4.512   0.800   8.930  0.4796 -0.0269 -0.0409
   72SLPC  H14Y 6363   4.374   0.871   8.862 -0.2129 -1.0449 -0.7035
   72SLPC  C315 6364   4.495   0.804   8.706 -0.0183  0.0514 -0.2895
   72SLPC  H15X 6365   4.527   0.910   8.701 -0.2350  0.3129  2.2554
   72SLPC  H15Y 6366   4.408   0.796   8.638 -1.5542  2.1602  1.2897
   72SLPC  C316 6367   4.608   0.710   8.671  0.7067 -0.0869  0.5306
   72SLPC  H16X 6368   4.621   0.716   8.561 -1.1770  0.7965  0.3168
   72SLPC  H16Y 6369   4.575   0.605   8.689  2.1757 -0.5405  0.7009
   72SLPC  C317 6370   4.739   0.721   8.751 -0.3501  0.1905 -0.3365
   72SLPC  H17X 6371   4.723   0.690   8.857  1.8168 -1.5362 -0.4609
   72SLPC  H17Y 6372   4.760   0.830   8.749 -1.2649  0.3916  0.1837
   72SLPC  C318 6373   4.859   0.642   8.700  0.0051 -0.1094  0.1516
   72SLPC  H18X 6374   4.902   0.688   8.609  1.6449 -2.1738 -0.1985
   72SLPC  H18Y 6375   4.828   0.539   8.671  3.5664 -0.8913 -1.3536
   72SLPC  H18Z 6376   4.939   0.642   8.778  1.1034  0.7613 -0.9411
   73SLPC     N 6377   0.506   4.701  10.577 -0.0643 -0.6373 -1.2480
   73SLPC   C13 6378   0.370   4.695  10.633 -0.9077 -0.2885  0.3801
   73SLPC  H13A 6379   0.359   4.674  10.739 -1.2713  0.4453  0.4975
   73SLPC  H13B 6380   0.327   4.793  10.622  0.5575  0.6414  2.1696
   73SLPC  H13C 6381   0.313   4.624  10.576  2.0259 -0.8812 -2.0872
   73SLPC   C14 6382   0.577   4.582  10.637  1.0594 -0.0582 -0.8208
   73SLPC  H14A 6383   0.512   4.498  10.619  0.2466  0.3944 -0.0900
   73SLPC  H14B 6384   0.673   4.567  10.591  1.9399 -1.1141  1.2040
   73SLPC  H14C 6385   0.588   4.586  10.745  0.3907  0.4507 -0.7660
   73SLPC   C15 6386   0.579   4.816  10.623 -0.1885 -0.8007 -0.4136
   73SLPC  H15A 6387   0.536   4.913  10.600  1.8228  0.8732  2.2274
   73SLPC  H15B 6388   0.596   4.814  10.730  1.2296  1.3297 -0.5260
   73SLPC  H15C 6389   0.676   4.825  10.576 -0.0379  0.5330  0.0938
   73SLPC   C12 6390   0.507   4.688  10.430 -0.0433 -0.1705  0.3513
   73SLPC  H12A 6391   0.447   4.764  10.381 -0.0087 -0.8138 -0.7133
   73SLPC  H12B 6392   0.467   4.591  10.407  0.6655 -0.3701 -0.0531
   73SLPC   C11 6393   0.641   4.686  10.353 -1.4023  0.1509  0.2432
   73SLPC  H11A 6394   0.636   4.652  10.247  0.5970  1.9657 -0.4961
   73SLPC  H11B 6395   0.707   4.616  10.409 -0.9485  0.4765  0.1200
   73SLPC     P 6396   0.657   4.946  10.272 -0.3316 -0.0937 -0.2947
   73SLPC   O13 6397   0.529   4.986  10.322 -0.3533  0.2962  0.2922
   73SLPC   O14 6398   0.762   5.043  10.292  0.3988 -0.0063  0.6651
   73SLPC   O12 6399   0.704   4.816  10.344  0.3190 -0.4970  0.1068
   73SLPC   O11 6400   0.647   4.916  10.112  0.6176 -0.3525 -0.0145
   73SLPC    C1 6401   0.770   4.899  10.046  0.6721  0.0092 -0.2896
   73SLPC    HA 6402   0.808   5.002  10.032  0.4242 -0.2257 -3.5319
   73SLPC    HB 6403   0.847   4.837  10.096  1.1269 -0.3252 -1.3582
   73SLPC    C2 6404   0.736   4.837   9.909  0.8375  0.4689  1.1542
   73SLPC    HS 6405   0.832   4.830   9.853 -0.2889  3.7630 -1.5276
   73SLPC   O21 6406   0.649   4.914   9.822 -0.5950  0.3531 -0.2287
   73SLPC   C21 6407   0.699   5.024   9.767 -0.2987  0.7712  0.3170
   73SLPC   O22 6408   0.816   5.060   9.773 -0.7989 -0.1077 -0.1199
   73SLPC   C22 6409   0.587   5.112   9.703 -0.0810  0.3580 -0.5925
   73SLPC   H2R 6410   0.488   5.080   9.741  1.3098 -2.8336  0.7691
   73SLPC   H2S 6411   0.609   5.217   9.731 -0.5392  0.7146 -1.5407
   73SLPC    C3 6412   0.687   4.684   9.915 -0.2927  0.3199 -0.2254
   73SLPC    HX 6413   0.582   4.685   9.948 -0.3877 -1.0659 -0.4571
   73SLPC    HY 6414   0.738   4.624   9.992  0.1670 -1.4043 -1.8041
   73SLPC   O31 6415   0.707   4.621   9.786 -0.6261 -0.1116  0.4640
   73SLPC   C31 6416   0.604   4.614   9.699  0.4357 -0.5488 -0.8872
   73SLPC   O32 6417   0.494   4.662   9.721 -0.3807 -0.4202 -0.0657
   73SLPC   C32 6418   0.626   4.517   9.591  0.3283  0.5017  0.9344
   73SLPC   H2X 6419   0.538   4.450   9.590  1.9187 -1.7433 -0.4618
   73SLPC   H2Y 6420   0.717   4.458   9.616 -1.1076 -2.0029  0.5904
   73SLPC   C23 6421   0.586   5.109   9.546  0.3811  0.0558  0.0591
   73SLPC   H3R 6422   0.680   5.158   9.514 -0.4989  1.9316  0.2338
   73SLPC   H3S 6423   0.502   5.171   9.508  1.4911  1.9615  0.5864
   73SLPC   C24 6424   0.573   4.968   9.482 -0.6530  0.3311 -0.2912
   73SLPC   H4R 6425   0.515   4.900   9.549  1.2232 -1.1077 -0.0535
   73SLPC   H4S 6426   0.676   4.928   9.481 -1.1330 -1.0852 -2.6519
   73SLPC   C25 6427   0.514   4.970   9.342  0.3700 -0.7803  0.4826
   73SLPC   H5R 6428   0.415   5.019   9.335  1.5062  1.4028 -1.5254
   73SLPC   H5S 6429   0.511   4.867   9.299 -0.4971 -0.3880 -0.4228
   73SLPC   C26 6430   0.611   5.048   9.247  0.4919 -0.4146  0.3685
   73SLPC   H6R 6431   0.714   5.014   9.272  0.5479 -0.7611 -0.3280
   73SLPC   H6S 6432   0.619   5.155   9.277 -1.6905  0.1582 -0.8669
   73SLPC   C27 6433   0.580   5.033   9.099  0.0672  0.7255 -0.4159
   73SLPC   H7R 6434   0.567   4.924   9.083  2.8900  0.5072 -1.8291
   73SLPC   H7S 6435   0.667   5.070   9.042  0.8003  0.5752  0.5864
   73SLPC   C28 6436   0.452   5.115   9.065  0.2068 -0.3213 -0.2112
   73SLPC   H8R 6437   0.465   5.220   9.098 -0.7535  0.5014 -2.2894
   73SLPC   H8S 6438   0.363   5.081   9.122 -0.7311  0.9862 -0.8508
   73SLPC   C29 6439   0.417   5.104   8.922 -0.2334  0.2372 -0.3701
   73SLPC   H9R 6440   0.390   5.001   8.893  1.5358  0.1493 -1.8698
   73SLPC  C210 6441   0.411   5.200   8.829  1.0847  0.3043 -0.3614
   73SLPC  H10R 6442   0.388   5.170   8.726  1.2728  0.0219 -0.3261
   73SLPC  C211 6443   0.443   5.346   8.856 -0.1373  0.4031  0.0540
   73SLPC  H11R 6444   0.530   5.350   8.925  1.1592 -0.8932 -1.4429
   73SLPC  H11S 6445   0.353   5.402   8.890 -0.7815 -0.8605  0.4890
   73SLPC  C212 6446   0.491   5.410   8.729  0.3832 -0.2681 -0.2745
   73SLPC  H12R 6447   0.428   5.486   8.680  1.2585  0.3958 -0.4088
   73SLPC  C213 6448   0.610   5.393   8.670 -0.1293  0.6532 -0.1406
   73SLPC  H13R 6449   0.628   5.443   8.574  1.4698  0.0526 -0.1942
   73SLPC  C214 6450   0.717   5.297   8.719 -0.2796 -0.0432  0.0473
   73SLPC  H14R 6451   0.693   5.246   8.814  0.2032  0.3085  0.3627
   73SLPC  H14S 6452   0.811   5.357   8.715  0.5977 -1.3818  0.0671
   73SLPC  C215 6453   0.727   5.184   8.616 -0.5145  0.3084 -0.6215
   73SLPC  H15R 6454   0.633   5.124   8.613  1.0709 -2.3702 -0.4901
   73SLPC  H15S 6455   0.792   5.113   8.672 -4.4982 -1.3459  2.5079
   73SLPC  C216 6456   0.782   5.220   8.483  0.2460 -0.7134  0.1565
   73SLPC  H16R 6457   0.887   5.252   8.500 -0.2346  0.7601  0.5071
   73SLPC  H16S 6458   0.733   5.298   8.421 -0.4935 -0.6085  0.8604
   73SLPC  C217 6459   0.797   5.096   8.387 -0.3286  0.5452 -0.1990
   73SLPC  H17R 6460   0.855   5.125   8.297 -0.4852  1.6174  0.0403
   73SLPC  H17S 6461   0.693   5.067   8.357 -0.9002  0.5554  1.6548
   73SLPC  C218 6462   0.855   4.962   8.442  0.3026 -0.3472  0.1480
   73SLPC  H18R 6463   0.838   4.892   8.358  0.1820  0.7773 -0.7800
   73SLPC  H18S 6464   0.807   4.916   8.532 -0.7618 -0.0976 -0.2798
   73SLPC  H18T 6465   0.964   4.963   8.466  0.3928 -1.1298 -0.2060
   73SLPC   C33 6466   0.650   4.577   9.451  0.2352 -0.2133 -0.6538
   73SLPC   H3X 6467   0.745   4.634   9.450 -0.1070  0.3800 -0.0459
   73SLPC   H3Y 6468   0.560   4.637   9.424 -0.7958 -2.3057 -2.2375
   73SLPC   C34 6469   0.681   4.476   9.343 -0.5361  0.1137  0.4706
   73SLPC   H4X 6470   0.774   4.415   9.349  0.3614  1.4647  0.8286
   73SLPC   H4Y 6471   0.687   4.523   9.242  2.0770 -0.5488  0.2429
   73SLPC   C35 6472   0.568   4.370   9.331  0.5700 -0.3372 -0.1677
   73SLPC   H5X 6473   0.476   4.430   9.314  0.0590 -1.2465 -0.7201
   73SLPC   H5Y 6474   0.543   4.306   9.418 -0.5185  0.1931 -0.0678
   73SLPC   C36 6475   0.585   4.276   9.212 -0.0703  0.0342  0.2160
   73SLPC   H6X 6476   0.520   4.186   9.217 -2.5728  1.8220  3.3884
   73SLPC   H6Y 6477   0.689   4.238   9.215 -0.7741 -2.0329 -0.1518
   73SLPC   C37 6478   0.575   4.346   9.076 -0.7553  0.5668  0.3896
   73SLPC   H7X 6479   0.631   4.440   9.057 -1.5168  0.9587  0.0631
   73SLPC   H7Y 6480   0.467   4.367   9.063 -0.6129 -0.1901 -3.3228
   73SLPC   C38 6481   0.614   4.252   8.958 -0.7196  0.3282  0.3725
   73SLPC   H8X 6482   0.579   4.153   8.997  2.1314 -0.3853  1.3427
   73SLPC   H8Y 6483   0.724   4.253   8.944 -1.0217  0.5206 -2.3964
   73SLPC   C39 6484   0.561   4.307   8.817 -0.0796 -0.7386  0.5411
   73SLPC   H9X 6485   0.629   4.393   8.798  0.7507 -1.3207  0.8636
   73SLPC   H9Y 6486   0.455   4.335   8.836 -0.2490 -0.7653 -0.3231
   73SLPC  C310 6487   0.578   4.216   8.699 -0.3674  0.5320 -0.5121
   73SLPC  H10X 6488   0.486   4.154   8.703 -0.4893  0.7429  0.1094
   73SLPC  H10Y 6489   0.675   4.164   8.713 -0.0319  0.8681 -1.4490
   73SLPC  C311 6490   0.582   4.284   8.558 -0.0065 -0.6312 -0.2518
   73SLPC  H11X 6491   0.584   4.216   8.470  0.4153  1.7913 -2.2016
   73SLPC  H11Y 6492   0.684   4.328   8.562  0.5836 -2.0168  1.5118
   73SLPC  C312 6493   0.467   4.382   8.531 -0.1687  0.0049  0.2888
   73SLPC  H12X 6494   0.505   4.466   8.469  0.0859 -1.6609 -1.9304
   73SLPC  H12Y 6495   0.430   4.426   8.627  1.8898  1.5338  0.4603
   73SLPC  C313 6496   0.362   4.305   8.451  0.1966  0.1227 -0.3251
   73SLPC  H13X 6497   0.349   4.206   8.500 -0.0311 -0.3368 -1.2867
   73SLPC  H13Y 6498   0.405   4.291   8.349  1.9741  1.8709  0.1359
   73SLPC  C314 6499   0.221   4.373   8.438  0.1829 -0.5743  1.1210
   73SLPC  H14X 6500   0.177   4.412   8.533 -1.8681  3.0074 -1.0739
   73SLPC  H14Y 6501   0.148   4.299   8.398 -0.7913  0.7689  0.3255
   73SLPC  C315 6502   0.234   4.488   8.343 -0.5528  0.4259 -0.1654
   73SLPC  H15X 6503   0.256   4.451   8.241 -1.1074 -0.2276 -0.0508
   73SLPC  H15Y 6504   0.301   4.570   8.379 -1.1258  1.3678 -1.1895
   73SLPC  C316 6505   0.096   4.564   8.334 -0.0015  0.3725 -0.0609
   73SLPC  H16X 6506   0.081   4.605   8.436  0.8479 -3.3535  1.7304
   73SLPC  H16Y 6507   0.015   4.491   8.315 -0.4493  1.1049 -1.0450
   73SLPC  C317 6508   0.077   4.675   8.228  0.0003  0.3961 -0.0523
   73SLPC  H17X 6509   0.168   4.739   8.224  0.6189 -0.4619  0.2258
   73SLPC  H17Y 6510  -0.005   4.745   8.255  0.2459 -0.1648  2.3236
   73SLPC  C318 6511   0.069   4.626   8.083  0.3376 -0.1209 -0.0875
   73SLPC  H18X 6512  -0.028   4.578   8.061 -0.4059  1.3450 -0.1572
   73SLPC  H18Y 6513   0.135   4.537   8.080  0.1128 -0.2976  0.2918
   73SLPC  H18Z 6514   0.093   4.705   8.007  0.2870  0.0341  0.0565
   74SLPC     N 6515   6.538   1.317  10.503  0.0828 -0.7390  0.1482
   74SLPC   C13 6516   6.650   1.397  10.562  0.2076 -0.2891  0.2860
   74SLPC  H13A 6517   6.677   1.486  10.509 -0.0515 -0.6637 -0.4818
   74SLPC  H13B 6518   6.620   1.428  10.661 -1.9993  2.3348 -1.0713
   74SLPC  H13C 6519   6.742   1.341  10.557  1.3814  1.4492  1.3518
   74SLPC   C14 6520   6.413   1.404  10.488 -0.0239  0.8695 -0.3877
   74SLPC  H14A 6521   6.439   1.504  10.458  1.5015  0.4258 -0.6588
   74SLPC  H14B 6522   6.337   1.357  10.427  0.7187  0.4122 -0.9804
   74SLPC  H14C 6523   6.372   1.418  10.587  0.7181 -1.3297  0.3105
   74SLPC   C15 6524   6.510   1.204  10.595 -0.0618  0.0624 -0.5934
   74SLPC  H15A 6525   6.597   1.143  10.616  0.2433  0.7479  0.1649
   74SLPC  H15B 6526   6.482   1.231  10.695  0.3085 -0.5029 -0.3291
   74SLPC  H15C 6527   6.445   1.132  10.547  2.0394 -2.5507  0.2314
   74SLPC   C12 6528   6.573   1.266  10.361  0.1848 -0.2910 -0.2987
   74SLPC  H12A 6529   6.647   1.188  10.371  0.8467  0.4065  0.3863
   74SLPC  H12B 6530   6.613   1.346  10.300 -1.6261 -0.2525 -1.4996
   74SLPC   C11 6531   6.466   1.199  10.276 -0.2597 -0.0973 -0.6011
   74SLPC  H11A 6532   6.510   1.164  10.180  0.7714 -0.0064 -0.1793
   74SLPC  H11B 6533   6.388   1.276  10.258  0.2549  1.2384  2.3382
   74SLPC     P 6534   6.258   1.039  10.357 -0.2444  0.4948 -0.0592
   74SLPC   O13 6535   6.248   0.927  10.452  0.4073 -0.4430 -0.1500
   74SLPC   O14 6536   6.171   1.153  10.396  0.4314  0.3465  0.6238
   74SLPC   O12 6537   6.415   1.084  10.342 -0.1199  0.4545 -0.3212
   74SLPC   O11 6538   6.217   0.983  10.208 -0.0757 -0.1249 -0.4897
   74SLPC    C1 6539   6.321   0.933  10.125  0.9049  0.6416  0.0185
   74SLPC    HA 6540   6.378   1.013  10.073 -0.5816  2.2049  0.6668
   74SLPC    HB 6541   6.400   0.888  10.190  0.8000  0.0227 -0.2771
   74SLPC    C2 6542   6.268   0.828  10.026 -0.4623 -0.2060  0.3494
   74SLPC    HS 6543   6.341   0.788   9.953 -0.3240  1.9686 -0.7696
   74SLPC   O21 6544   6.156   0.876   9.945 -0.7889  0.2117 -0.1097
   74SLPC   C21 6545   6.195   0.942   9.842 -0.0634  0.5740 -0.6748
   74SLPC   O22 6546   6.308   0.962   9.802  0.8368 -0.4561  0.3553
   74SLPC   C22 6547   6.071   0.986   9.759 -0.7121 -0.9081  0.1213
   74SLPC   H2R 6548   5.989   0.991   9.835  0.4624  2.6995  1.3246
   74SLPC   H2S 6549   6.102   1.085   9.721  0.0535 -0.4856  1.7414
   74SLPC    C3 6550   6.205   0.698  10.103  0.1359 -0.8185  0.9201
   74SLPC    HX 6551   6.114   0.741  10.150  0.0532  2.1317 -1.6210
   74SLPC    HY 6552   6.274   0.664  10.183  0.9108 -0.3013  0.4869
   74SLPC   O31 6553   6.167   0.593  10.016 -0.3018  0.1555  0.0588
   74SLPC   C31 6554   6.255   0.519   9.958 -1.5136  0.4858  0.0043
   74SLPC   O32 6555   6.374   0.540   9.974 -0.3468 -0.1831  0.4329
   74SLPC   C32 6556   6.188   0.400   9.882 -0.2832 -0.8328 -0.4703
   74SLPC   H2X 6557   6.087   0.440   9.859  0.1659  0.4198 -0.3485
   74SLPC   H2Y 6558   6.184   0.316   9.954 -2.3498  0.8662  1.5437
   74SLPC   C23 6559   6.049   0.876   9.656 -0.4647 -0.0348 -0.3005
   74SLPC   H3R 6560   6.019   0.782   9.706 -1.1185  0.0562 -0.5063
   74SLPC   H3S 6561   6.145   0.850   9.607 -1.1846  0.4125 -2.0339
   74SLPC   C24 6562   5.934   0.901   9.551  0.2225  0.0323  0.3026
   74SLPC   H4R 6563   5.958   1.004   9.518  3.1298 -0.6506 -0.0521
   74SLPC   H4S 6564   5.840   0.907   9.610 -0.4887 -1.1807 -0.6556
   74SLPC   C25 6565   5.947   0.800   9.439 -0.7893 -0.2831  0.1917
   74SLPC   H5R 6566   6.053   0.806   9.406  0.0471 -0.4050  2.6503
   74SLPC   H5S 6567   5.883   0.826   9.352  1.6400  1.6172 -1.1627
   74SLPC   C26 6568   5.919   0.648   9.466  0.5564  0.2183 -0.0434
   74SLPC   H6R 6569   5.811   0.620   9.475  1.1686 -1.7778  2.0688
   74SLPC   H6S 6570   5.953   0.615   9.566 -0.1140 -0.1768  0.0623
   74SLPC   C27 6571   5.981   0.555   9.362 -0.2774  1.2845  0.7023
   74SLPC   H7R 6572   5.967   0.450   9.396  0.4807  0.0571 -2.3896
   74SLPC   H7S 6573   6.091   0.571   9.361 -0.0572  1.2307 -4.3471
   74SLPC   C28 6574   5.936   0.580   9.221  0.2615  0.1169 -0.2728
   74SLPC   H8R 6575   5.973   0.681   9.192 -0.0676  0.5754  0.8353
   74SLPC   H8S 6576   5.828   0.603   9.209 -0.4511 -2.0449  1.3345
   74SLPC   C29 6577   5.986   0.475   9.124 -0.0186  0.8414  0.1773
   74SLPC   H9R 6578   5.958   0.373   9.153 -0.0017  0.6620 -0.4365
   74SLPC  C210 6579   6.027   0.491   8.999 -1.0262 -0.6184  0.3488
   74SLPC  H10R 6580   6.042   0.395   8.947 -2.3529 -1.8033  2.0665
   74SLPC  C211 6581   6.040   0.620   8.920 -0.2913 -0.3886 -0.1709
   74SLPC  H11R 6582   6.016   0.712   8.977  0.5721 -0.6500  0.6196
   74SLPC  H11S 6583   5.973   0.621   8.831 -0.1552 -1.9774 -0.3282
   74SLPC  C212 6584   6.182   0.630   8.867  0.0312 -0.1441  0.4676
   74SLPC  H12R 6585   6.254   0.594   8.942 -0.8411 -0.4596  1.1756
   74SLPC  C213 6586   6.227   0.683   8.746  0.0968 -0.3881 -0.8170
   74SLPC  H13R 6587   6.334   0.704   8.731  0.6720 -2.6571 -0.2326
   74SLPC  C214 6588   6.141   0.748   8.644  0.7235  0.3726 -0.0298
   74SLPC  H14R 6589   6.047   0.690   8.655  0.2391  1.5725  2.8602
   74SLPC  H14S 6590   6.179   0.735   8.540  0.0558 -1.6026 -0.0783
   74SLPC  C215 6591   6.124   0.901   8.672 -0.1377 -0.6163 -0.8121
   74SLPC  H15R 6592   6.226   0.944   8.671 -0.2820 -0.1029  1.2667
   74SLPC  H15S 6593   6.089   0.913   8.777  0.7290 -1.9277 -0.3542
   74SLPC  C216 6594   6.033   0.977   8.571  1.0564 -0.0850 -0.2736
   74SLPC  H16R 6595   5.951   0.910   8.539  1.1567 -0.1894 -0.3124
   74SLPC  H16S 6596   6.085   1.010   8.479 -0.5940 -1.6832 -1.8731
   74SLPC  C217 6597   5.976   1.103   8.634 -1.1671 -0.1739  0.2032
   74SLPC  H17R 6598   6.065   1.166   8.655 -0.8978 -1.3635  3.0495
   74SLPC  H17S 6599   5.933   1.077   8.733 -0.2615 -1.4288  0.2866
   74SLPC  C218 6600   5.875   1.179   8.546 -0.0392 -0.2903 -0.3754
   74SLPC  H18R 6601   5.778   1.128   8.534 -0.4482 -1.1825  4.5409
   74SLPC  H18S 6602   5.930   1.187   8.450  0.4211 -1.6573 -0.2439
   74SLPC  H18T 6603   5.847   1.280   8.584 -0.3529 -0.8744  1.0274
   74SLPC   C33 6604   6.260   0.370   9.744  0.2800  1.0892 -0.3737
   74SLPC   H3X 6605   6.344   0.301   9.767 -0.6408 -0.4525 -1.4420
   74SLPC   H3Y 6606   6.308   0.457   9.694 -0.0085  1.3729 -0.1582
   74SLPC   C34 6607   6.163   0.295   9.650 -0.5410 -0.1157 -0.5816
   74SLPC   H4X 6608   6.081   0.366   9.626  0.4336  1.0509 -0.5461
   74SLPC   H4Y 6609   6.119   0.205   9.698  0.4281  0.1065  0.8018
   74SLPC   C35 6610   6.238   0.263   9.517  0.3817 -0.5155  0.4463
   74SLPC   H5X 6611   6.336   0.217   9.538  1.4045  1.2429 -0.2525
   74SLPC   H5Y 6612   6.276   0.353   9.464  1.7354 -1.4859 -0.2806
   74SLPC   C36 6613   6.153   0.177   9.432 -0.0786 -0.2655  0.1600
   74SLPC   H6X 6614   6.050   0.216   9.419  0.0379 -0.0479 -0.1002
   74SLPC   H6Y 6615   6.132   0.079   9.479 -0.1452 -0.1401  0.3936
   74SLPC   C37 6616   6.223   0.171   9.294  0.0413 -0.1534  0.1189
   74SLPC   H7X 6617   6.321   0.119   9.292  0.1481  0.0611 -1.6833
   74SLPC   H7Y 6618   6.248   0.276   9.269 -2.3237  0.5319  0.4459
   74SLPC   C38 6619   6.136   0.101   9.186  0.1179 -0.5288  0.6553
   74SLPC   H8X 6620   6.033   0.140   9.195 -0.0913 -1.3300  1.9992
   74SLPC   H8Y 6621   6.131  -0.005   9.219  0.3366 -0.0504  2.3296
   74SLPC   C39 6622   6.192   0.143   9.056 -0.1992 -0.0972  0.4627
   74SLPC   H9X 6623   6.295   0.107   9.040  0.7126  1.6367  1.9424
   74SLPC   H9Y 6624   6.185   0.253   9.042 -2.3365 -0.1762  0.5853
   74SLPC  C310 6625   6.103   0.096   8.939  0.9423  0.0028  0.7408
   74SLPC  H10X 6626   6.002   0.138   8.957  0.5152 -0.8167  0.3362
   74SLPC  H10Y 6627   6.097  -0.014   8.954  0.2224  0.1049  1.2681
   74SLPC  C311 6628   6.162   0.135   8.801 -0.1685  0.1946  0.4077
   74SLPC  H11X 6629   6.272   0.141   8.789 -0.2718 -1.5750 -2.3801
   74SLPC  H11Y 6630   6.128   0.240   8.784 -0.7237  0.0612  0.6559
   74SLPC  C312 6631   6.102   0.034   8.690 -0.1341 -0.2994 -0.7560
   74SLPC  H12X 6632   5.992   0.042   8.690 -0.2748 -0.8196  2.5220
   74SLPC  H12Y 6633   6.133  -0.071   8.713 -0.1227 -0.0640  0.3666
   74SLPC  C313 6634   6.140   0.075   8.544 -0.2700  0.4998 -0.1596
   74SLPC  H13X 6635   6.249   0.088   8.554 -0.4440  0.8763  1.5690
   74SLPC  H13Y 6636   6.098   0.177   8.525  0.8545  0.7394 -1.5130
   74SLPC  C314 6637   6.094  -0.027   8.436 -0.3734 -0.3637 -0.5801
   74SLPC  H14X 6638   5.985  -0.048   8.435 -1.2699  3.5108 -0.5335
   74SLPC  H14Y 6639   6.155  -0.117   8.459  1.0370  0.5051 -0.8243
   74SLPC  C315 6640   6.128   0.026   8.298 -0.0070  0.2994  0.7256
   74SLPC  H15X 6641   6.237   0.028   8.280  0.0156 -1.8198  0.3879
   74SLPC  H15Y 6642   6.079   0.126   8.295 -1.8851 -0.5785  0.9098
   74SLPC  C316 6643   6.072  -0.055   8.184  0.3422 -0.3080 -0.2092
   74SLPC  H16X 6644   6.086  -0.161   8.213  2.4303 -0.6715 -2.2542
   74SLPC  H16Y 6645   6.128  -0.044   8.088 -1.3862 -0.8326 -1.3172
   74SLPC  C317 6646   5.924  -0.027   8.153  0.3874 -0.8712  0.2688
   74SLPC  H17X 6647   5.870  -0.051   8.247 -2.9209  1.6253 -0.8297
   74SLPC  H17Y 6648   5.898  -0.104   8.077  1.5398 -1.6375  0.6076
   74SLPC  C318 6649   5.894   0.114   8.096 -0.2791  0.0668 -1.0047
   74SLPC  H18X 6650   5.800   0.158   8.135  1.0605  1.1559  1.2400
   74SLPC  H18Y 6651   5.869   0.126   7.988 -0.4318 -0.9474 -1.0863
   74SLPC  H18Z 6652   5.979   0.182   8.121 -0.2120 -0.0979 -0.7834
   75SLPC     N 6653   0.791   3.469   5.947  0.0288 -0.4970 -0.6237
   75SLPC   C13 6654   0.900   3.379   5.906  0.5612 -0.6310  0.5018
   75SLPC  H13A 6655   0.977   3.415   5.974 -0.2665  2.5906 -0.0697
   75SLPC  H13B 6656   0.882   3.273   5.906 -2.4620 -0.1910  0.7176
   75SLPC  H13C 6657   0.935   3.405   5.808 -0.1841 -0.2704  0.3250
   75SLPC   C14 6658   0.661   3.447   5.874 -0.8560 -0.1296  0.2056
   75SLPC  H14A 6659   0.611   3.357   5.907 -0.5575 -2.1328 -4.1646
   75SLPC  H14B 6660   0.601   3.533   5.901 -0.2338 -0.2936  2.3069
   75SLPC  H14C 6661   0.682   3.432   5.769  0.1430 -0.9707  0.5111
   75SLPC   C15 6662   0.832   3.606   5.917 -0.5237 -0.0231  0.3036
   75SLPC  H15A 6663   0.926   3.637   5.961 -1.2365 -0.7708  2.4650
   75SLPC  H15B 6664   0.848   3.619   5.811  0.9717 -1.1005  0.3672
   75SLPC  H15C 6665   0.766   3.689   5.941 -0.3369  0.3474 -0.4266
   75SLPC   C12 6666   0.779   3.448   6.098 -0.6132 -0.1900 -0.0168
   75SLPC  H12A 6667   0.853   3.501   6.155 -0.7442 -2.0557  2.0223
   75SLPC  H12B 6668   0.795   3.344   6.122 -1.9153 -0.4301 -0.1151
   75SLPC   C11 6669   0.641   3.493   6.161 -0.8700 -0.0513  0.6136
   75SLPC  H11A 6670   0.614   3.599   6.143 -0.5699 -0.1396 -0.4345
   75SLPC  H11B 6671   0.662   3.487   6.270  0.8850 -0.5081  0.2851
   75SLPC     P 6672   0.498   3.270   6.181 -0.3422 -0.2376 -0.4641
   75SLPC   O13 6673   0.421   3.208   6.064  0.1956 -0.0093  0.3716
   75SLPC   O14 6674   0.624   3.211   6.235  0.1837  0.0466 -0.3385
   75SLPC   O12 6675   0.537   3.412   6.123 -0.2133  0.1353  0.9336
   75SLPC   O11 6676   0.411   3.325   6.297  0.2214 -0.0333  0.0672
   75SLPC    C1 6677   0.326   3.436   6.271  0.0613  0.4216 -0.1679
   75SLPC    HA 6678   0.385   3.531   6.272 -0.1141  0.5328  0.8409
   75SLPC    HB 6679   0.270   3.426   6.176  2.7698  0.3462 -1.8643
   75SLPC    C2 6680   0.231   3.448   6.394 -0.7323 -0.0923  0.6894
   75SLPC    HS 6681   0.300   3.449   6.481 -0.3770 -1.9177  0.4645
   75SLPC   O21 6682   0.148   3.336   6.402 -0.0028  0.3075 -0.6121
   75SLPC   C21 6683   0.194   3.239   6.476 -0.0316 -0.2985  0.1443
   75SLPC   O22 6684   0.289   3.244   6.555 -0.5431 -0.3626 -0.4189
   75SLPC   C22 6685   0.094   3.124   6.472 -0.5296  0.1218 -0.1761
   75SLPC   H2R 6686  -0.004   3.166   6.441  0.4610  2.7021 -0.0792
   75SLPC   H2S 6687   0.151   3.050   6.412 -0.5107  2.3337 -3.1007
   75SLPC    C3 6688   0.149   3.578   6.386  0.4109 -0.2436  0.0880
   75SLPC    HX 6689   0.074   3.581   6.468 -0.9742 -0.1009 -1.1434
   75SLPC    HY 6690   0.081   3.561   6.300  1.4570 -1.3786 -0.5509
   75SLPC   O31 6691   0.236   3.693   6.382 -0.2058 -0.0678 -0.1587
   75SLPC   C31 6692   0.175   3.804   6.354  0.6679 -0.6208 -0.5337
   75SLPC   O32 6693   0.052   3.806   6.339 -0.6628  0.3225 -0.5090
   75SLPC   C32 6694   0.261   3.925   6.347 -0.3052  1.0570 -0.1106
   75SLPC   H2X 6695   0.204   4.001   6.289 -1.5543  1.0368  1.0384
   75SLPC   H2Y 6696   0.350   3.898   6.286  0.0909 -0.2939  1.0299
   75SLPC   C23 6697   0.079   3.068   6.617  0.0557 -0.1897 -0.1941
   75SLPC   H3R 6698   0.177   3.045   6.664 -0.3447 -1.5391  0.0229
   75SLPC   H3S 6699   0.017   2.977   6.607  0.2011 -0.1208 -2.1164
   75SLPC   C24 6700  -0.011   3.158   6.713  0.8564 -0.2320 -0.0011
   75SLPC   H4R 6701  -0.104   3.179   6.655 -0.5100 -0.7897  1.8878
   75SLPC   H4S 6702   0.045   3.252   6.732  0.5114  0.4848 -2.1643
   75SLPC   C25 6703  -0.037   3.072   6.839  0.0502 -0.2930  0.1545
   75SLPC   H5R 6704   0.058   3.067   6.897 -0.4421 -1.6465  0.8880
   75SLPC   H5S 6705  -0.068   2.971   6.806  0.2194  0.3308 -2.0802
   75SLPC   C26 6706  -0.142   3.127   6.937 -0.2696 -1.0617 -0.3676
   75SLPC   H6R 6707  -0.237   3.147   6.882  1.0998  1.3077 -2.0574
   75SLPC   H6S 6708  -0.115   3.229   6.970 -1.2536 -0.7906 -0.3774
   75SLPC   C27 6709  -0.156   3.038   7.065  0.3396  0.8202  0.2517
   75SLPC   H7R 6710  -0.058   3.040   7.115 -1.6055 -2.3890  4.8629
   75SLPC   H7S 6711  -0.186   2.934   7.039 -1.1315  1.1331  0.6095
   75SLPC   C28 6712  -0.261   3.103   7.159 -0.4793  0.4646 -0.2157
   75SLPC   H8R 6713  -0.350   3.119   7.095 -1.4477 -0.8773  0.7360
   75SLPC   H8S 6714  -0.230   3.201   7.201 -1.0003  0.7002 -0.3746
   75SLPC   C29 6715  -0.295   3.010   7.277 -0.3713  0.2759 -0.3432
   75SLPC   H9R 6716  -0.214   2.996   7.350 -0.1443 -0.6337 -0.7570
   75SLPC  C210 6717  -0.413   2.945   7.289  0.2234 -0.5324 -0.2625
   75SLPC  H10R 6718  -0.425   2.898   7.388 -0.7460 -0.9942 -0.5929
   75SLPC  C211 6719  -0.521   2.969   7.192  0.0948 -0.1002  0.5920
   75SLPC  H11R 6720  -0.483   2.988   7.089  0.8268 -2.5792  0.3380
   75SLPC  H11S 6721  -0.581   3.059   7.218  0.6664  1.4271 -2.7373
   75SLPC  C212 6722  -0.620   2.859   7.189 -0.0738  0.1581  0.2580
   75SLPC  H12R 6723  -0.705   2.874   7.256 -1.9148  0.3092 -1.9802
   75SLPC  C213 6724  -0.599   2.730   7.144 -0.2469 -0.6898  0.5126
   75SLPC  H13R 6725  -0.687   2.663   7.144 -0.4976 -0.4190 -1.4075
   75SLPC  C214 6726  -0.471   2.680   7.086 -0.3013 -0.9771 -0.3722
   75SLPC  H14R 6727  -0.462   2.574   7.116 -0.1294 -0.7987  0.2364
   75SLPC  H14S 6728  -0.377   2.723   7.127 -0.1976 -0.7319 -0.8559
   75SLPC  C215 6729  -0.468   2.691   6.939 -0.0088  0.0590 -0.4418
   75SLPC  H15R 6730  -0.409   2.785   6.926  2.1719 -1.3521 -1.3494
   75SLPC  H15S 6731  -0.567   2.704   6.891 -0.2661 -0.2253  0.0132
   75SLPC  C216 6732  -0.371   2.591   6.869  0.3128 -0.3682  0.3967
   75SLPC  H16R 6733  -0.426   2.496   6.886 -0.3758  0.1257  1.0188
   75SLPC  H16S 6734  -0.278   2.580   6.929 -1.0459 -0.3657  2.6521
   75SLPC  C217 6735  -0.348   2.626   6.725  0.2369 -0.9671  0.4552
   75SLPC  H17R 6736  -0.448   2.645   6.682  0.5429  1.4865  0.6888
   75SLPC  H17S 6737  -0.299   2.546   6.666 -0.0527 -0.0846 -1.0457
   75SLPC  C218 6738  -0.261   2.751   6.699 -0.2246 -0.3055 -0.0075
   75SLPC  H18R 6739  -0.258   2.769   6.589 -1.5473  0.1615  0.0151
   75SLPC  H18S 6740  -0.157   2.733   6.735 -0.3699  0.6170  0.8738
   75SLPC  H18T 6741  -0.297   2.842   6.751  0.8825 -0.7302  1.5662
   75SLPC   C33 6742   0.299   3.990   6.480  0.3449 -0.0397 -0.1055
   75SLPC   H3X 6743   0.348   3.922   6.553 -2.1100  0.7694  2.4632
   75SLPC   H3Y 6744   0.381   4.061   6.458 -0.0013  0.3424 -0.1751
   75SLPC   C34 6745   0.191   4.074   6.548  0.9269  0.5901  0.5355
   75SLPC   H4X 6746   0.120   3.992   6.573  0.3597  0.9394  0.0554
   75SLPC   H4Y 6747   0.146   4.143   6.474  1.8357 -1.9460 -2.6451
   75SLPC   C35 6748   0.241   4.149   6.678  0.2532  0.7212 -1.0711
   75SLPC   H5X 6749   0.312   4.230   6.654  1.3961 -0.0066 -0.2247
   75SLPC   H5Y 6750   0.299   4.080   6.742 -0.3159  2.6477  1.6787
   75SLPC   C36 6751   0.127   4.202   6.772 -0.1442  0.4481  0.6521
   75SLPC   H6X 6752   0.040   4.134   6.757  0.8410 -0.8518  0.6809
   75SLPC   H6Y 6753   0.104   4.303   6.731 -0.9665  0.8864  2.1215
   75SLPC   C37 6754   0.160   4.198   6.914  0.5439  0.4682 -0.0176
   75SLPC   H7X 6755   0.078   4.247   6.971  2.4866  2.5989  1.1089
   75SLPC   H7Y 6756   0.250   4.257   6.940  0.3223  1.0772 -0.6218
   75SLPC   C38 6757   0.171   4.056   6.971 -0.0252  0.2354  0.0448
   75SLPC   H8X 6758   0.265   4.006   6.938  1.0323  1.3253  1.2909
   75SLPC   H8Y 6759   0.080   4.001   6.940  0.5552 -0.4780 -0.4323
   75SLPC   C39 6760   0.171   4.049   7.131 -0.0823 -0.1219  0.6909
   75SLPC   H9X 6761   0.078   4.089   7.175  0.7752  2.4591  0.2867
   75SLPC   H9Y 6762   0.250   4.116   7.171 -1.0966  2.1876 -1.0063
   75SLPC  C310 6763   0.185   3.903   7.182  0.1516 -0.0116 -0.4698
   75SLPC  H10X 6764   0.282   3.868   7.139  1.0029  0.2446  1.1583
   75SLPC  H10Y 6765   0.099   3.848   7.137 -0.0203  0.4523 -0.7123
   75SLPC  C311 6766   0.178   3.858   7.328 -0.4310  0.8564 -0.5912
   75SLPC  H11X 6767   0.181   3.747   7.325  0.7822  0.8208  0.7530
   75SLPC  H11Y 6768   0.090   3.891   7.386  0.3421  2.4709 -0.2657
   75SLPC  C312 6769   0.299   3.896   7.408 -0.0009  0.7500 -0.5547
   75SLPC  H12X 6770   0.386   3.889   7.339  2.3191 -2.6298  2.3827
   75SLPC  H12Y 6771   0.317   3.818   7.485 -0.1312 -2.4623 -3.5193
   75SLPC  C313 6772   0.291   4.029   7.479  0.0573  0.1857 -0.1178
   75SLPC  H13X 6773   0.198   4.022   7.540  0.1796  0.7801  0.1431
   75SLPC  H13Y 6774   0.289   4.118   7.413 -0.7929  1.5146  1.5837
   75SLPC  C314 6775   0.412   4.053   7.573  0.0656  0.0918  0.0646
   75SLPC  H14X 6776   0.495   4.078   7.504 -0.5028 -1.5259 -1.2703
   75SLPC  H14Y 6777   0.426   3.956   7.625 -0.4984 -0.5191 -0.8998
   75SLPC  C315 6778   0.383   4.159   7.672  1.0471 -1.0579 -0.5126
   75SLPC  H15X 6779   0.288   4.140   7.726  1.4923  1.4131  1.3082
   75SLPC  H15Y 6780   0.367   4.253   7.614 -2.7391 -1.2606 -0.0280
   75SLPC  C316 6781   0.497   4.184   7.778 -0.5076  0.0526  0.4791
   75SLPC  H16X 6782   0.580   4.224   7.715 -0.2376 -2.1756 -0.7000
   75SLPC  H16Y 6783   0.520   4.084   7.821 -4.1143 -1.0260  0.2399
   75SLPC  C317 6784   0.446   4.280   7.888  0.4593  0.2527 -0.5330
   75SLPC  H17X 6785   0.377   4.350   7.835 -2.9134 -2.7518 -0.5337
   75SLPC  H17Y 6786   0.525   4.345   7.932  0.7922 -0.5273  0.0429
   75SLPC  C318 6787   0.388   4.202   8.005  0.5870 -0.4698 -0.1853
   75SLPC  H18X 6788   0.447   4.119   8.050  0.8951 -0.3455 -0.3550
   75SLPC  H18Y 6789   0.288   4.160   7.979 -0.5596  1.1176  1.4597
   75SLPC  H18Z 6790   0.360   4.276   8.083  0.4953  0.4348 -1.0589
   76SLPC     N 6791   4.118   3.867   5.503  0.3929  0.1335 -0.1289
   76SLPC   C13 6792   4.032   3.896   5.623 -0.3257  0.7979 -0.0229
   76SLPC  H13A 6793   4.101   3.873   5.703  2.3193 -0.6370 -2.5543
   76SLPC  H13B 6794   3.993   3.997   5.624 -1.6447  0.3753 -2.3497
   76SLPC  H13C 6795   3.945   3.833   5.621 -0.3347  0.8287 -0.7012
   76SLPC   C14 6796   4.044   3.911   5.376 -0.6300 -0.2479 -0.5328
   76SLPC  H14A 6797   4.015   4.015   5.377 -1.3800 -0.4285 -2.1703
   76SLPC  H14B 6798   4.111   3.907   5.291  0.0133  0.8551 -0.1090
   76SLPC  H14C 6799   3.955   3.852   5.368 -0.3912 -0.6571 -0.1873
   76SLPC   C15 6800   4.155   3.722   5.477  0.2465  0.1308 -0.0517
   76SLPC  H15A 6801   4.209   3.682   5.562 -1.1033  1.8470  1.7011
   76SLPC  H15B 6802   4.068   3.660   5.462  1.3873 -1.5165 -0.0625
   76SLPC  H15C 6803   4.225   3.720   5.394  1.1104  0.9136  0.6338
   76SLPC   C12 6804   4.243   3.941   5.514 -0.5595 -0.0845 -0.4700
   76SLPC  H12A 6805   4.222   4.045   5.534  0.2034 -0.2114  1.0907
   76SLPC  H12B 6806   4.296   3.938   5.420  0.4242 -0.4257  0.0801
   76SLPC   C11 6807   4.352   3.891   5.611 -0.4295 -0.7853 -0.1439
   76SLPC  H11A 6808   4.437   3.961   5.597  0.4400 -1.2546  2.2818
   76SLPC  H11B 6809   4.390   3.793   5.574 -1.9864 -0.1238 -3.8422
   76SLPC     P 6810   4.314   4.001   5.852 -0.1136  0.1528 -0.1972
   76SLPC   O13 6811   4.451   4.062   5.835  0.2406 -0.2042 -0.8851
   76SLPC   O14 6812   4.202   4.092   5.844  0.0743 -0.8728 -0.0855
   76SLPC   O12 6813   4.311   3.879   5.749 -0.2341 -0.0735  0.0723
   76SLPC   O11 6814   4.299   3.927   5.986 -0.5501  0.3230  0.1316
   76SLPC    C1 6815   4.361   3.807   6.028 -0.4682 -0.6465  0.0473
   76SLPC    HA 6816   4.333   3.720   5.964  1.4423 -0.4292 -1.1572
   76SLPC    HB 6817   4.471   3.821   6.034 -0.2613 -2.3404  5.0491
   76SLPC    C2 6818   4.318   3.774   6.174  0.6941 -0.5627  0.8710
   76SLPC    HS 6819   4.208   3.782   6.166  0.6942 -1.1191  0.2072
   76SLPC   O21 6820   4.378   3.868   6.264  0.3636 -0.0186  0.5278
   76SLPC   C21 6821   4.316   3.873   6.381  0.0463  0.2446 -0.5437
   76SLPC   O22 6822   4.213   3.814   6.413  0.3160 -0.3089  0.2749
   76SLPC   C22 6823   4.394   3.973   6.471  0.1818 -0.5430 -0.0350
   76SLPC   H2R 6824   4.476   4.021   6.413 -0.6395  0.4861 -0.3528
   76SLPC   H2S 6825   4.322   4.053   6.498  0.5765 -0.2541  0.1727
   76SLPC    C3 6826   4.368   3.624   6.198  0.1176  0.4395  0.0503
   76SLPC    HX 6827   4.472   3.626   6.160  0.5622 -0.4708  1.1793
   76SLPC    HY 6828   4.310   3.572   6.118 -1.3866  2.7068 -0.4338
   76SLPC   O31 6829   4.351   3.568   6.338  0.7150  0.5606  0.0106
   76SLPC   C31 6830   4.225   3.531   6.377  0.2400  0.1521  0.2158
   76SLPC   O32 6831   4.125   3.554   6.314  0.1881 -0.4210 -0.1592
   76SLPC   C32 6832   4.222   3.456   6.512 -0.1775 -1.0115  0.7505
   76SLPC   H2X 6833   4.328   3.429   6.530  0.8329  0.8779 -1.7325
   76SLPC   H2Y 6834   4.159   3.365   6.499 -1.2488 -0.3303  1.0344
   76SLPC   C23 6835   4.452   3.916   6.601  0.1101  0.6946 -0.2017
   76SLPC   H3R 6836   4.536   3.983   6.631  0.1618  1.3719 -1.7379
   76SLPC   H3S 6837   4.495   3.817   6.574 -1.3849  0.4346 -1.8252
   76SLPC   C24 6838   4.361   3.913   6.727 -0.4128 -0.4897  0.5053
   76SLPC   H4R 6839   4.281   3.837   6.713 -0.0196 -0.5941 -1.5176
   76SLPC   H4S 6840   4.308   4.008   6.746  0.4080  0.7237 -2.5913
   76SLPC   C25 6841   4.448   3.873   6.854  0.2389  0.5158  0.3571
   76SLPC   H5R 6842   4.547   3.923   6.841  0.1658  0.7629  0.7243
   76SLPC   H5S 6843   4.463   3.763   6.852 -1.7302  0.2068  0.3555
   76SLPC   C26 6844   4.381   3.907   6.990  0.3335 -0.1199  0.5051
   76SLPC   H6R 6845   4.353   4.014   6.978  0.0635 -0.2972 -0.5370
   76SLPC   H6S 6846   4.455   3.895   7.071  2.2487 -3.1966 -1.4787
   76SLPC   C27 6847   4.258   3.820   7.030  0.1932 -0.2516  0.0921
   76SLPC   H7R 6848   4.308   3.722   7.043  1.0870  0.0358 -1.0385
   76SLPC   H7S 6849   4.177   3.828   6.955 -0.0231 -0.6901  0.2751
   76SLPC   C28 6850   4.192   3.871   7.168  0.1871  0.7728  0.5413
   76SLPC   H8R 6851   4.278   3.863   7.237  1.2378 -0.4044 -0.8422
   76SLPC   H8S 6852   4.184   3.980   7.150  0.7747  0.5459 -1.3929
   76SLPC   C29 6853   4.056   3.815   7.216  0.4345 -0.2022  0.5424
   76SLPC   H9R 6854   3.981   3.841   7.140 -0.4582  0.5502  1.6449
   76SLPC  C210 6855   4.025   3.743   7.326 -1.1339 -0.6003  0.7532
   76SLPC  H10R 6856   3.918   3.723   7.345 -2.1048  3.5272  0.4483
   76SLPC  C211 6857   4.118   3.706   7.437 -0.5269  0.1236 -0.0318
   76SLPC  H11R 6858   4.222   3.701   7.398 -0.9602  0.8400 -1.3300
   76SLPC  H11S 6859   4.092   3.599   7.453  0.3082 -0.5268 -2.5633
   76SLPC  C212 6860   4.108   3.806   7.551 -0.0391  0.0140  0.2344
   76SLPC  H12R 6861   4.130   3.909   7.520  1.2591  0.4412  2.3924
   76SLPC  C213 6862   4.037   3.795   7.664  0.9689  0.7523 -1.1510
   76SLPC  H13R 6863   4.039   3.880   7.734 -1.2140 -0.5882  0.7096
   76SLPC  C214 6864   3.968   3.670   7.718 -0.3460  0.6344 -0.3427
   76SLPC  H14R 6865   4.010   3.578   7.672  1.8997  1.0208  0.7798
   76SLPC  H14S 6866   3.860   3.686   7.701 -0.5935  0.3561  0.8661
   76SLPC  C215 6867   3.985   3.649   7.867  0.2470  0.0318 -0.4659
   76SLPC  H15R 6868   3.910   3.575   7.903 -1.3601  1.2758 -1.1243
   76SLPC  H15S 6869   3.966   3.739   7.929 -0.1947 -0.2018 -0.2556
   76SLPC  C216 6870   4.124   3.596   7.909 -0.2415  0.4151  0.4879
   76SLPC  H16R 6871   4.204   3.638   7.844  0.9562  0.8341  2.1834
   76SLPC  H16S 6872   4.126   3.485   7.896  0.3058  0.6405 -1.8963
   76SLPC  C217 6873   4.161   3.637   8.050  0.1356  0.4824  0.1094
   76SLPC  H17R 6874   4.084   3.618   8.127  1.3931  0.0623  1.3038
   76SLPC  H17S 6875   4.166   3.748   8.049 -1.4560  0.6119  1.9297
   76SLPC  C218 6876   4.286   3.577   8.105  0.1358 -0.3948 -0.3709
   76SLPC  H18R 6877   4.273   3.470   8.131 -4.5316 -0.0465 -0.5962
   76SLPC  H18S 6878   4.302   3.618   8.207 -0.2241  1.5416 -1.0621
   76SLPC  H18T 6879   4.373   3.604   8.042 -0.5281  2.6097 -0.1186
   76SLPC   C33 6880   4.153   3.537   6.627 -0.3472 -0.1104  0.2016
   76SLPC   H3X 6881   4.182   3.644   6.628  0.2516 -0.2689  1.1387
   76SLPC   H3Y 6882   4.190   3.486   6.719  1.5029 -0.8538 -0.8957
   76SLPC   C34 6883   4.003   3.523   6.649 -0.2260 -0.3787 -0.3286
   76SLPC   H4X 6884   3.967   3.418   6.656 -2.3385  0.1240 -2.4513
   76SLPC   H4Y 6885   3.961   3.569   6.558  4.4268  0.9379 -2.1009
   76SLPC   C35 6886   3.947   3.602   6.765 -0.6055 -0.1626  0.3933
   76SLPC   H5X 6887   3.960   3.709   6.739  1.9813  0.7469  4.4599
   76SLPC   H5Y 6888   4.014   3.588   6.852 -0.6622 -1.0643  0.2989
   76SLPC   C36 6889   3.802   3.570   6.806 -0.3201 -0.4295 -0.7291
   76SLPC   H6X 6890   3.758   3.486   6.748 -0.9620  0.6649 -1.8916
   76SLPC   H6Y 6891   3.744   3.659   6.774  1.5075  1.8035  1.6927
   76SLPC   C37 6892   3.775   3.543   6.958  0.9096 -0.1137 -0.1137
   76SLPC   H7X 6893   3.664   3.553   6.962  0.9731  0.3770  0.3957
   76SLPC   H7Y 6894   3.833   3.605   7.029 -0.2468  0.9313 -0.0469
   76SLPC   C38 6895   3.801   3.394   6.991  1.0135  0.2051  0.0631
   76SLPC   H8X 6896   3.911   3.376   6.980  1.2079  0.7814  1.0219
   76SLPC   H8Y 6897   3.754   3.329   6.914  0.4305  0.8877 -0.1589
   76SLPC   C39 6898   3.751   3.353   7.130  0.5710  0.9437 -0.0092
   76SLPC   H9X 6899   3.781   3.248   7.148 -1.9406  0.1232 -0.1094
   76SLPC   H9Y 6900   3.641   3.336   7.127  0.6997 -0.0969  0.6066
   76SLPC  C310 6901   3.779   3.451   7.240  0.7201  0.2245  0.2757
   76SLPC  H10X 6902   3.721   3.543   7.220  1.2439  0.7977  1.2645
   76SLPC  H10Y 6903   3.884   3.487   7.234  1.1071 -0.8632  0.2467
   76SLPC  C311 6904   3.755   3.382   7.376  0.0002 -0.0735  0.2004
   76SLPC  H11X 6905   3.798   3.280   7.380 -1.1805 -0.6372 -0.8892
   76SLPC  H11Y 6906   3.645   3.366   7.376  0.1007 -0.8093  0.6489
   76SLPC  C312 6907   3.796   3.470   7.495  0.1295  0.4243 -0.3248
   76SLPC  H12X 6908   3.791   3.580   7.475  2.4024  0.3928 -1.5093
   76SLPC  H12Y 6909   3.902   3.444   7.515  0.2930  1.1428 -0.2009
   76SLPC  C313 6910   3.724   3.447   7.625 -0.0296 -0.0299 -0.2943
   76SLPC  H13X 6911   3.618   3.465   7.597  0.4365  0.2135 -1.9891
   76SLPC  H13Y 6912   3.749   3.521   7.705 -1.0920  1.6611 -1.4686
   76SLPC  C314 6913   3.726   3.303   7.684  0.1721  0.5680  0.2961
   76SLPC  H14X 6914   3.830   3.286   7.720  1.6246  1.4704 -3.0231
   76SLPC  H14Y 6915   3.726   3.231   7.600 -1.7601 -0.5334  1.1944
   76SLPC  C315 6916   3.625   3.258   7.795  0.2127  0.2535  0.3577
   76SLPC  H15X 6917   3.636   3.330   7.878  2.7191 -1.8067  1.9661
   76SLPC  H15Y 6918   3.654   3.153   7.816 -1.2504 -0.0920  0.7651
   76SLPC  C316 6919   3.476   3.254   7.754  1.4746 -0.2061 -0.4712
   76SLPC  H16X 6920   3.443   3.360   7.751 -0.4309 -0.7728 -0.9706
   76SLPC  H16Y 6921   3.413   3.206   7.831  1.1116  0.2812 -0.4580
   76SLPC  C317 6922   3.455   3.188   7.617 -0.1188 -0.2123 -0.5890
   76SLPC  H17X 6923   3.464   3.077   7.619  1.0129 -0.1710 -1.7529
   76SLPC  H17Y 6924   3.534   3.225   7.548 -0.2981 -0.7882 -1.1098
   76SLPC  C318 6925   3.324   3.232   7.565  0.0862 -0.7540  0.3725
   76SLPC  H18X 6926   3.320   3.228   7.454  0.2326 -1.1922  0.3795
   76SLPC  H18Y 6927   3.293   3.332   7.602 -0.1418 -0.6779 -0.0173
   76SLPC  H18Z 6928   3.257   3.153   7.604 -0.5945  0.5667  1.9678
   77SLPC     N 6929   6.434   0.258   5.502 -0.2854  0.1122  0.8351
   77SLPC   C13 6930   6.482   0.367   5.585 -0.4361 -0.1058 -0.1178
   77SLPC  H13A 6931   6.584   0.344   5.612 -0.0052 -1.4606 -2.5834
   77SLPC  H13B 6932   6.494   0.457   5.525  0.7294  0.4435  0.8994
   77SLPC  H13C 6933   6.432   0.392   5.677 -1.5419 -1.2573 -0.3844
   77SLPC   C14 6934   6.491   0.130   5.555 -0.1894  0.6361  0.0170
   77SLPC  H14A 6935   6.459   0.126   5.658 -1.9323 -4.1337 -0.4681
   77SLPC  H14B 6936   6.449   0.043   5.506  0.5461 -0.6899  1.6609
   77SLPC  H14C 6937   6.598   0.121   5.549 -0.2256 -0.6389  0.9520
   77SLPC   C15 6938   6.498   0.273   5.367  0.3090  0.4207 -0.1717
   77SLPC  H15A 6939   6.601   0.240   5.369 -0.5950 -2.8753 -1.0503
   77SLPC  H15B 6940   6.437   0.217   5.297 -0.0253  2.4598 -1.5990
   77SLPC  H15C 6941   6.494   0.377   5.338 -1.1928  0.7316  1.0750
   77SLPC   C12 6942   6.275   0.256   5.500 -0.4964  0.3438  0.6919
   77SLPC  H12A 6943   6.247   0.174   5.436 -0.5664  1.0147 -0.1612
   77SLPC  H12B 6944   6.241   0.343   5.445 -0.5437 -0.0442  0.1072
   77SLPC   C11 6945   6.210   0.248   5.634  0.7969  0.4185 -0.3078
   77SLPC  H11A 6946   6.238   0.336   5.696  2.5081 -0.3350  0.0618
   77SLPC  H11B 6947   6.242   0.160   5.695  1.5296  1.5236  0.9537
   77SLPC     P 6948   5.958   0.305   5.687 -0.1509 -0.3553 -0.2583
   77SLPC   O13 6949   5.955   0.441   5.645  0.7059 -0.4071  0.0431
   77SLPC   O14 6950   5.838   0.211   5.669  0.9363  0.4386 -0.1390
   77SLPC   O12 6951   6.070   0.244   5.595  0.2735  0.5133  0.1897
   77SLPC   O11 6952   6.016   0.289   5.827  0.0092 -0.1399  0.3254
   77SLPC    C1 6953   5.941   0.238   5.944 -0.2273 -0.0116  0.1922
   77SLPC    HA 6954   5.835   0.273   5.944 -0.7900 -1.6570  0.3742
   77SLPC    HB 6955   5.968   0.131   5.954 -0.0269 -0.0062 -0.2641
   77SLPC    C2 6956   6.004   0.315   6.062  0.2151  0.5409 -0.4665
   77SLPC    HS 6957   6.115   0.314   6.062  0.2913  2.8047 -0.9802
   77SLPC   O21 6958   5.947   0.263   6.184 -0.0500  0.4729 -0.0196
   77SLPC   C21 6959   6.037   0.272   6.282  0.5520 -0.3821  0.4792
   77SLPC   O22 6960   6.150   0.317   6.275 -0.2245 -0.4192 -0.7665
   77SLPC   C22 6961   5.978   0.206   6.410 -0.1936 -0.0375  0.7555
   77SLPC   H2R 6962   5.878   0.253   6.418 -0.7244 -0.9896 -0.0460
   77SLPC   H2S 6963   5.970   0.098   6.387 -0.5802  0.1622 -0.1144
   77SLPC    C3 6964   5.951   0.464   6.058 -0.2930  0.4375 -0.8910
   77SLPC    HX 6965   5.843   0.461   6.083 -0.7646  2.0010 -2.5217
   77SLPC    HY 6966   5.958   0.493   5.951  2.0518 -1.0975 -1.2187
   77SLPC   O31 6967   6.025   0.546   6.157 -0.0096 -0.6736  0.0961
   77SLPC   C31 6968   6.136   0.594   6.100  0.5798  0.3992 -0.1896
   77SLPC   O32 6969   6.188   0.556   6.000  0.4034 -0.1695  0.6600
   77SLPC   C32 6970   6.192   0.693   6.203 -0.7482 -0.4803 -0.1317
   77SLPC   H2X 6971   6.128   0.783   6.204  0.0218  0.0897  1.2021
   77SLPC   H2Y 6972   6.288   0.734   6.164 -1.8382  2.5892  0.1625
   77SLPC   C23 6973   6.062   0.240   6.535  0.1392 -0.1460  0.4057
   77SLPC   H3R 6974   6.074   0.349   6.546 -0.2775 -0.3011  2.7935
   77SLPC   H3S 6975   6.169   0.210   6.531  0.7948  2.0214  0.7064
   77SLPC   C24 6976   6.002   0.185   6.666  0.3485  0.9160  0.5176
   77SLPC   H4R 6977   5.973   0.078   6.651  1.8175  0.7556 -1.6523
   77SLPC   H4S 6978   5.907   0.242   6.678  0.2644  1.9048 -3.3778
   77SLPC   C25 6979   6.093   0.193   6.794  0.2055  0.4689  0.8612
   77SLPC   H5R 6980   6.172   0.266   6.768 -0.9917  1.1386 -1.0969
   77SLPC   H5S 6981   6.138   0.094   6.818  0.2105  0.3859  0.5115
   77SLPC   C26 6982   6.029   0.245   6.915  0.3573  0.2664  1.1000
   77SLPC   H6R 6983   6.011   0.352   6.891  5.0725  1.2934  1.0845
   77SLPC   H6S 6984   6.111   0.241   6.991  2.9084 -1.2605 -1.5201
   77SLPC   C27 6985   5.923   0.153   6.966 -0.2412 -0.1235  0.3179
   77SLPC   H7R 6986   5.966   0.054   6.992 -0.6564 -0.4936 -0.3706
   77SLPC   H7S 6987   5.848   0.125   6.889 -1.8878  1.5898  1.2163
   77SLPC   C28 6988   5.856   0.209   7.095 -0.1891 -0.0380  0.8159
   77SLPC   H8R 6989   5.758   0.158   7.108 -1.2095  1.4071 -0.6954
   77SLPC   H8S 6990   5.836   0.318   7.090  2.0631  0.3895 -0.4597
   77SLPC   C29 6991   5.938   0.197   7.214 -0.5777 -0.1954  0.6317
   77SLPC   H9R 6992   6.046   0.196   7.195 -0.6067  0.6952  0.3846
   77SLPC  C210 6993   5.887   0.216   7.338 -0.0356  0.5137 -0.2028
   77SLPC  H10R 6994   5.955   0.219   7.425  0.7705 -2.6754 -0.5938
   77SLPC  C211 6995   5.740   0.212   7.368  0.0947 -0.0028 -0.3403
   77SLPC  H11R 6996   5.699   0.125   7.314 -1.6586  0.6327 -0.1126
   77SLPC  H11S 6997   5.698   0.301   7.316  4.0073  1.6265 -1.0648
   77SLPC  C212 6998   5.683   0.205   7.508  0.1246  0.1390  0.1283
   77SLPC  H12R 6999   5.604   0.281   7.518 -0.2636 -0.3047  0.4650
   77SLPC  C213 7000   5.708   0.126   7.612  0.0393 -0.1644 -0.3737
   77SLPC  H13R 7001   5.644   0.127   7.701  1.7747  1.0249  0.9272
   77SLPC  C214 7002   5.809   0.018   7.621 -0.2911 -0.1982 -0.1785
   77SLPC  H14R 7003   5.855   0.018   7.722  2.5856 -1.7837 -1.3711
   77SLPC  H14S 7004   5.895   0.029   7.551  0.0789  0.8553  0.4221
   77SLPC  C215 7005   5.745  -0.123   7.603  0.5269  0.2280 -0.0126
   77SLPC  H15R 7006   5.736  -0.146   7.495  0.5227 -0.4733  0.1360
   77SLPC  H15S 7007   5.638  -0.111   7.633  0.4892 -0.0106 -0.0507
   77SLPC  C216 7008   5.812  -0.240   7.661 -0.2950  0.3539 -0.3964
   77SLPC  H16R 7009   5.829  -0.248   7.771 -0.2273 -1.1609 -0.4969
   77SLPC  H16S 7010   5.915  -0.261   7.624  0.2902  0.6454  0.9770
   77SLPC  C217 7011   5.739  -0.368   7.628  0.7824 -0.0493  0.5239
   77SLPC  H17R 7012   5.726  -0.371   7.518  0.0203 -1.3826  0.6239
   77SLPC  H17S 7013   5.641  -0.362   7.681  1.3097  0.1802  1.4828
   77SLPC  C218 7014   5.812  -0.495   7.670 -0.6218  0.2606 -0.4607
   77SLPC  H18R 7015   5.760  -0.589   7.644 -1.4018  0.9216 -1.3653
   77SLPC  H18S 7016   5.839  -0.498   7.778  0.7345 -0.4944 -0.7945
   77SLPC  H18T 7017   5.910  -0.493   7.618 -0.6575  1.0455 -0.5088
   77SLPC   C33 7018   6.233   0.638   6.338 -0.3462  0.2635  0.3816
   77SLPC   H3X 7019   6.322   0.571   6.338  0.1535  0.8575  2.5198
   77SLPC   H3Y 7020   6.161   0.562   6.376  2.2294 -1.3371  2.4746
   77SLPC   C34 7021   6.256   0.747   6.443 -0.1023  1.2503 -0.4522
   77SLPC   H4X 7022   6.162   0.798   6.471  1.7189  3.9913  1.1162
   77SLPC   H4Y 7023   6.313   0.833   6.401 -1.0755  3.3345  2.2191
   77SLPC   C35 7024   6.343   0.704   6.566 -0.1527 -0.3897 -0.5701
   77SLPC   H5X 7025   6.394   0.778   6.631  0.1192 -0.2638 -0.9252
   77SLPC   H5Y 7026   6.426   0.644   6.521 -0.6614 -1.5776  0.0364
   77SLPC   C36 7027   6.257   0.612   6.657 -0.3480 -0.4491  1.6066
   77SLPC   H6X 7028   6.176   0.558   6.605  0.1236 -0.2377  0.6253
   77SLPC   H6Y 7029   6.216   0.678   6.737  1.5395  1.5627  1.0451
   77SLPC   C37 7030   6.339   0.502   6.726 -1.0880  0.6800 -0.2951
   77SLPC   H7X 7031   6.446   0.518   6.703 -0.6098  0.0698  1.3396
   77SLPC   H7Y 7032   6.307   0.404   6.684  0.3427  0.5534 -1.1339
   77SLPC   C38 7033   6.317   0.496   6.877 -0.3012 -0.3812  0.0919
   77SLPC   H8X 7034   6.209   0.481   6.896 -0.6617 -0.9542 -2.0843
   77SLPC   H8Y 7035   6.348   0.593   6.923  2.2574 -1.3567  0.5968
   77SLPC   C39 7036   6.393   0.390   6.953 -0.2635 -0.3630  0.5830
   77SLPC   H9X 7037   6.502   0.402   6.935 -0.2465 -0.3255  0.7054
   77SLPC   H9Y 7038   6.364   0.293   6.909  0.6472 -0.9548  1.2583
   77SLPC  C310 7039   6.359   0.398   7.105 -0.2586 -0.2689  0.1255
   77SLPC  H10X 7040   6.256   0.429   7.133  0.4922  1.2827  1.2890
   77SLPC  H10Y 7041   6.406   0.491   7.142 -0.0606 -0.3625  0.1086
   77SLPC  C311 7042   6.409   0.286   7.184 -0.1111  0.2631  0.1326
   77SLPC  H11X 7043   6.508   0.251   7.147 -1.1851 -1.0385 -1.6832
   77SLPC  H11Y 7044   6.336   0.203   7.169 -2.0916  1.9953 -0.2488
   77SLPC  C312 7045   6.420   0.327   7.334 -0.1674 -0.0535  0.3483
   77SLPC  H12X 7046   6.477   0.422   7.340  0.4351 -0.2163 -1.8978
   77SLPC  H12Y 7047   6.492   0.257   7.382  0.9013  0.3491 -0.6160
   77SLPC  C313 7048   6.280   0.341   7.400  0.3030 -0.0687  0.0404
   77SLPC  H13X 7049   6.220   0.255   7.364 -0.1036  0.5737 -0.8748
   77SLPC  H13Y 7050   6.220   0.429   7.367 -1.6333 -1.3297  0.0473
   77SLPC  C314 7051   6.287   0.340   7.552 -0.2287 -0.7214  0.5316
   77SLPC  H14X 7052   6.312   0.438   7.596 -0.7183 -0.5893  0.5170
   77SLPC  H14Y 7053   6.357   0.260   7.585 -0.2732 -0.8352  0.3570
   77SLPC  C315 7054   6.149   0.289   7.610  0.0571 -0.3065  0.2562
   77SLPC  H15X 7055   6.130   0.185   7.577 -0.5715  0.4811 -2.0566
   77SLPC  H15Y 7056   6.065   0.348   7.567 -1.5937 -3.6302 -1.4389
   77SLPC  C316 7057   6.152   0.298   7.762 -0.3280 -0.2023  0.0135
   77SLPC  H16X 7058   6.062   0.353   7.797  0.0530 -0.0272  0.7403
   77SLPC  H16Y 7059   6.247   0.344   7.797 -0.0341  0.3445 -1.4222
   77SLPC  C317 7060   6.143   0.157   7.817 -0.2701  0.0399  0.1092
   77SLPC  H17X 7061   6.065   0.102   7.760 -1.1743  1.4277 -0.0479
   77SLPC  H17Y 7062   6.110   0.150   7.923 -2.4369  1.4316 -0.4104
   77SLPC  C318 7063   6.274   0.078   7.817  0.2473  0.3442  0.2333
   77SLPC  H18X 7064   6.248  -0.025   7.849 -2.9544  0.5870 -1.2366
   77SLPC  H18Y 7065   6.351   0.124   7.882  0.9127 -0.6916  0.2161
   77SLPC  H18Z 7066   6.321   0.076   7.716  1.0202  1.0559  0.5685
   78SLPC     N 7067   1.639   2.811   5.669  0.9010 -0.7021  0.2678
   78SLPC   C13 7068   1.665   2.956   5.717 -0.7286 -0.3088  0.2048
   78SLPC  H13A 7069   1.769   2.959   5.746 -0.3368  2.4622 -1.1130
   78SLPC  H13B 7070   1.658   3.023   5.632  1.4283 -1.3918 -0.9223
   78SLPC  H13C 7071   1.596   2.990   5.792 -0.1170 -0.5123  0.8746
   78SLPC   C14 7072   1.724   2.770   5.556 -0.2116 -0.1345 -0.5299
   78SLPC  H14A 7073   1.719   2.840   5.473  3.1086 -1.0259 -1.6118
   78SLPC  H14B 7074   1.828   2.762   5.581  0.3649 -1.7811 -3.1200
   78SLPC  H14C 7075   1.702   2.676   5.508 -3.6292  0.5454 -0.5727
   78SLPC   C15 7076   1.500   2.810   5.616 -0.5440  0.2321 -0.0043
   78SLPC  H15A 7077   1.490   2.883   5.538 -0.5031  1.0926  0.7886
   78SLPC  H15B 7078   1.473   2.709   5.588 -0.9374 -0.3011  2.1034
   78SLPC  H15C 7079   1.432   2.831   5.697 -1.5893  0.9527 -1.0470
   78SLPC   C12 7080   1.666   2.719   5.784 -0.7867 -0.2542  0.4814
   78SLPC  H12A 7081   1.641   2.618   5.756 -2.2280 -0.6832  2.9610
   78SLPC  H12B 7082   1.596   2.747   5.861 -2.2580  0.2228 -0.9779
   78SLPC   C11 7083   1.816   2.720   5.837  0.6971  0.4688  0.1339
   78SLPC  H11A 7084   1.813   2.665   5.934  0.1406  3.5167  2.0042
   78SLPC  H11B 7085   1.838   2.827   5.861 -2.1961  1.0576  0.5704
   78SLPC     P 7086   2.054   2.688   5.765  0.1762  0.1854 -0.5306
   78SLPC   O13 7087   2.143   2.581   5.712  0.3504 -0.6521  0.2521
   78SLPC   O14 7088   2.070   2.828   5.716  0.0246  0.1755 -0.2928
   78SLPC   O12 7089   1.906   2.655   5.751 -0.3577 -0.2983  0.4165
   78SLPC   O11 7090   2.059   2.693   5.916  0.3416  0.5198 -0.1323
   78SLPC    C1 7091   2.181   2.688   5.997 -0.1163  0.2857  0.5466
   78SLPC    HA 7092   2.245   2.607   5.956  2.3456  2.5463 -0.3520
   78SLPC    HB 7093   2.245   2.779   5.989  1.4723 -0.8746 -0.8246
   78SLPC    C2 7094   2.147   2.669   6.151 -0.9055 -0.3696 -0.5762
   78SLPC    HS 7095   2.249   2.666   6.196 -0.8434 -2.1571 -0.7771
   78SLPC   O21 7096   2.091   2.543   6.190  1.3283 -0.2194  0.5677
   78SLPC   C21 7097   2.166   2.438   6.168  0.2562 -0.1565 -0.6846
   78SLPC   O22 7098   2.287   2.442   6.147 -0.1212  0.2856  0.4519
   78SLPC   C22 7099   2.093   2.308   6.191  0.2535  0.5296 -0.7099
   78SLPC   H2R 7100   2.041   2.282   6.096 -0.3930  1.1983 -0.5431
   78SLPC   H2S 7101   2.167   2.228   6.212  0.8758  0.5538 -2.5513
   78SLPC    C3 7102   2.064   2.788   6.212 -0.9883 -0.2101 -0.7455
   78SLPC    HX 7103   1.990   2.811   6.132 -0.3467  0.3696 -1.1845
   78SLPC    HY 7104   2.122   2.882   6.218 -1.3742  0.0275 -0.6804
   78SLPC   O31 7105   1.992   2.755   6.337  0.0793  0.1451 -0.0741
   78SLPC   C31 7106   2.070   2.776   6.442 -0.7124 -0.3466 -0.2304
   78SLPC   O32 7107   2.189   2.800   6.435 -0.1056 -0.2664  0.7978
   78SLPC   C32 7108   1.988   2.742   6.564 -0.4487  0.2946  0.4943
   78SLPC   H2X 7109   1.947   2.642   6.540  1.4310 -0.0114 -1.7241
   78SLPC   H2Y 7110   1.904   2.815   6.574 -1.6870 -0.9065 -0.6960
   78SLPC   C23 7111   1.989   2.317   6.305  0.4311  0.7914 -1.0187
   78SLPC   H3R 7112   1.932   2.223   6.321 -0.1737  1.2635 -0.3169
   78SLPC   H3S 7113   1.914   2.397   6.286  0.3834  1.0110  0.0047
   78SLPC   C24 7114   2.050   2.335   6.448 -0.1677 -0.2211  0.0683
   78SLPC   H4R 7115   2.070   2.444   6.454 -0.5142 -0.2183  1.4751
   78SLPC   H4S 7116   2.149   2.285   6.442 -0.8639 -1.5924 -0.4175
   78SLPC   C25 7117   1.973   2.296   6.577  0.5825  0.2391 -0.1377
   78SLPC   H5R 7118   1.909   2.208   6.556  0.1588  0.7260 -0.9309
   78SLPC   H5S 7119   1.899   2.379   6.590 -0.2143 -0.3753 -0.6625
   78SLPC   C26 7120   2.065   2.288   6.699  0.5772  0.5285  0.1426
   78SLPC   H6R 7121   2.098   2.394   6.710 -2.5731  1.4837  1.7487
   78SLPC   H6S 7122   2.140   2.211   6.672 -0.2057 -0.7747  1.5154
   78SLPC   C27 7123   1.997   2.258   6.830 -0.2406 -0.4079  0.8659
   78SLPC   H7R 7124   1.959   2.154   6.825 -0.9655 -0.0928 -1.5952
   78SLPC   H7S 7125   1.911   2.329   6.835 -1.3083 -1.6722  1.0571
   78SLPC   C28 7126   2.084   2.284   6.953 -0.6215 -0.4626 -0.4045
   78SLPC   H8R 7127   2.109   2.392   6.949  2.0275 -1.0101 -0.6132
   78SLPC   H8S 7128   2.183   2.234   6.941 -0.1657  0.6992 -1.6643
   78SLPC   C29 7129   2.004   2.263   7.083  0.4908  0.3178 -0.3600
   78SLPC   H9R 7130   1.919   2.193   7.076  1.4690 -1.2499  2.1810
   78SLPC  C210 7131   2.021   2.319   7.198 -0.2364  0.2399 -0.4899
   78SLPC  H10R 7132   1.962   2.279   7.282  1.8385 -0.0634  0.8851
   78SLPC  C211 7133   2.139   2.407   7.245 -0.1673  0.0356 -0.3717
   78SLPC  H11R 7134   2.213   2.404   7.163 -0.0460  0.1220 -0.2641
   78SLPC  H11S 7135   2.181   2.351   7.331 -0.4425 -0.4676 -0.5603
   78SLPC  C212 7136   2.070   2.533   7.293 -0.0196 -0.4712 -0.3633
   78SLPC  H12R 7137   1.997   2.570   7.220 -0.9108  2.1121  1.6703
   78SLPC  C213 7138   2.073   2.594   7.412 -0.9908  0.4888 -0.5059
   78SLPC  H13R 7139   2.017   2.688   7.415 -0.2501  0.9377 -0.3154
   78SLPC  C214 7140   2.161   2.559   7.531 -0.3133  0.5481 -0.7433
   78SLPC  H14R 7141   2.237   2.484   7.501 -0.4028  1.2473 -2.8141
   78SLPC  H14S 7142   2.101   2.510   7.611 -0.2432  3.0485  0.9814
   78SLPC  C215 7143   2.243   2.681   7.594 -0.4276  0.7883  0.0492
   78SLPC  H15R 7144   2.307   2.638   7.673 -1.4076 -1.5337 -0.3216
   78SLPC  H15S 7145   2.174   2.758   7.636  0.3800  0.7136  1.5619
   78SLPC  C216 7146   2.343   2.737   7.494  0.1202 -0.0724  0.0871
   78SLPC  H16R 7147   2.293   2.780   7.405  2.7005  2.0474 -0.4277
   78SLPC  H16S 7148   2.415   2.665   7.451 -0.0045 -0.5588  0.6806
   78SLPC  C217 7149   2.423   2.861   7.561 -0.0058  1.0693  0.3233
   78SLPC  H17R 7150   2.441   2.830   7.666 -0.9891 -1.5196 -0.2080
   78SLPC  H17S 7151   2.362   2.953   7.570 -2.9378 -0.9454  3.7956
   78SLPC  C218 7152   2.563   2.884   7.501 -0.4601  0.2064  0.0923
   78SLPC  H18R 7153   2.561   2.947   7.409  0.9745  0.8128  0.4552
   78SLPC  H18S 7154   2.618   2.789   7.480  0.4333  0.7331  0.0086
   78SLPC  H18T 7155   2.626   2.936   7.576  0.0007 -0.7964  0.4184
   78SLPC   C33 7156   2.070   2.734   6.698  0.9505 -0.2320 -0.1801
   78SLPC   H3X 7157   2.152   2.660   6.684  0.7099 -0.9905  1.9737
   78SLPC   H3Y 7158   2.002   2.702   6.780  0.6659  2.1990  0.6182
   78SLPC   C34 7159   2.129   2.874   6.732 -0.3040 -0.1553  0.6260
   78SLPC   H4X 7160   2.046   2.948   6.729  0.0243  0.3523  2.5417
   78SLPC   H4Y 7161   2.204   2.907   6.658  0.2937 -1.5638  0.5776
   78SLPC   C35 7162   2.195   2.884   6.877  0.0906 -0.3898  0.5978
   78SLPC   H5X 7163   2.229   2.989   6.882  0.0706 -0.3560  0.0537
   78SLPC   H5Y 7164   2.284   2.818   6.874 -0.8549 -1.7454 -2.9623
   78SLPC   C36 7165   2.098   2.850   6.993 -0.3372 -1.3279  0.3662
   78SLPC   H6X 7166   2.160   2.883   7.080 -1.4660 -0.2739  0.7964
   78SLPC   H6Y 7167   2.079   2.741   6.991 -0.9504 -1.2471 -3.0540
   78SLPC   C37 7168   1.975   2.936   6.994  0.1573 -0.3421 -0.8266
   78SLPC   H7X 7169   1.907   2.899   7.074 -0.8651  0.7406 -1.1630
   78SLPC   H7Y 7170   1.915   2.941   6.901 -1.9138  1.4059  0.4959
   78SLPC   C38 7171   2.010   3.077   7.053  0.4663  0.5206  1.0784
   78SLPC   H8X 7172   2.112   3.102   7.019  0.7287  1.9619  2.7473
   78SLPC   H8Y 7173   2.014   3.071   7.164  0.5333  1.5692  1.1468
   78SLPC   C39 7174   1.904   3.179   7.011  0.7230  0.4793  0.0081
   78SLPC   H9X 7175   1.909   3.182   6.900  1.8060  1.7840  0.0600
   78SLPC   H9Y 7176   1.928   3.285   7.034  0.8174  0.2727  0.9215
   78SLPC  C310 7177   1.767   3.158   7.061  0.2589 -0.2045  0.6736
   78SLPC  H10X 7178   1.750   3.174   7.170 -0.2827 -0.6303  0.6596
   78SLPC  H10Y 7179   1.736   3.053   7.042 -0.8600 -0.1474  1.9847
   78SLPC  C311 7180   1.664   3.239   6.980 -0.0663 -0.0980 -0.7963
   78SLPC  H11X 7181   1.670   3.210   6.873 -0.8877  0.9387 -1.1319
   78SLPC  H11Y 7182   1.693   3.347   6.978 -0.2129 -0.0096  0.6907
   78SLPC  C312 7183   1.514   3.232   7.017  0.8881  0.6118  0.1641
   78SLPC  H12X 7184   1.458   3.312   6.963 -3.2812  0.3710  3.6427
   78SLPC  H12Y 7185   1.496   3.248   7.125  1.2671  1.0718  0.1654
   78SLPC  C313 7186   1.447   3.104   6.980  0.2116  0.7381 -0.1052
   78SLPC  H13X 7187   1.495   3.013   7.023 -0.6834 -0.0641 -0.7400
   78SLPC  H13Y 7188   1.465   3.087   6.871  1.2563 -0.1118  0.1751
   78SLPC  C314 7189   1.290   3.090   7.012 -0.3184  0.0169  0.2837
   78SLPC  H14X 7190   1.241   3.004   6.963 -0.2147 -0.3866  0.8764
   78SLPC  H14Y 7191   1.251   3.178   6.957  0.0280 -1.7152 -2.9842
   78SLPC  C315 7192   1.258   3.082   7.163 -0.5016 -0.1805 -0.3458
   78SLPC  H15X 7193   1.151   3.091   7.192 -0.8325 -1.0019 -1.2790
   78SLPC  H15Y 7194   1.326   3.156   7.209  1.0989 -1.4160 -0.6546
   78SLPC  C316 7195   1.302   2.947   7.232  0.3978 -0.3185  0.3605
   78SLPC  H16X 7196   1.408   2.929   7.206  0.4269  1.3242 -0.8385
   78SLPC  H16Y 7197   1.249   2.863   7.181  1.5769 -1.3858  0.8370
   78SLPC  C317 7198   1.283   2.938   7.383  0.0220 -0.2303 -0.3290
   78SLPC  H17X 7199   1.183   2.983   7.404 -0.5164 -1.5896  0.1127
   78SLPC  H17Y 7200   1.362   3.006   7.422 -0.9262  1.5766 -1.4176
   78SLPC  C318 7201   1.298   2.799   7.447 -0.6204  0.0868  0.2537
   78SLPC  H18X 7202   1.395   2.799   7.501  0.1989 -2.0550 -1.0636
   78SLPC  H18Y 7203   1.291   2.717   7.372  1.4895  0.4897 -0.4636
   78SLPC  H18Z 7204   1.221   2.767   7.520 -0.5132 -0.7052  0.0296
   79SLPC     N 7205   5.691   4.381   6.070  1.0176 -0.2000  0.3537
   79SLPC   C13 7206   5.770   4.479   6.143  0.1323  0.9654  0.1897
   79SLPC  H13A 7207   5.807   4.559   6.080  1.7109 -0.2411 -0.4793
   79SLPC  H13B 7208   5.697   4.519   6.212  0.0822 -2.4594  2.3269
   79SLPC  H13C 7209   5.838   4.430   6.210 -0.0772  1.7487  1.0000
   79SLPC   C14 7210   5.624   4.286   6.163 -0.2794  0.4580 -0.3503
   79SLPC  H14A 7211   5.536   4.327   6.210  0.1019 -0.6590  1.4185
   79SLPC  H14B 7212   5.587   4.202   6.107 -0.5347  0.5399 -0.3035
   79SLPC  H14C 7213   5.693   4.256   6.241  1.3194  0.4842 -1.6985
   79SLPC   C15 7214   5.776   4.297   5.972 -0.9213 -0.3556 -1.0105
   79SLPC  H15A 7215   5.714   4.225   5.922  0.3763 -2.0887 -0.1985
   79SLPC  H15B 7216   5.825   4.362   5.901 -1.8090  0.5379 -0.8349
   79SLPC  H15C 7217   5.850   4.246   6.031 -0.4223  0.0119 -1.3071
   79SLPC   C12 7218   5.586   4.442   5.980  0.6413  0.5579 -0.4515
   79SLPC  H12A 7219   5.529   4.517   6.034 -2.2716 -1.2715 -0.7372
   79SLPC  H12B 7220   5.516   4.369   5.940  0.8179  0.9466 -1.4875
   79SLPC   C11 7221   5.626   4.524   5.869 -0.0252 -0.4024  0.1552
   79SLPC  H11A 7222   5.653   4.459   5.784 -3.2601  0.7312 -1.9329
   79SLPC  H11B 7223   5.720   4.581   5.887  1.5418 -2.7772 -0.1424
   79SLPC     P 7224   5.385   4.560   5.760  0.4476 -0.4165 -0.2288
   79SLPC   O13 7225   5.367   4.629   5.634 -0.5086 -0.1734 -0.6491
   79SLPC   O14 7226   5.387   4.409   5.763 -0.0663 -0.3472 -0.4852
   79SLPC   O12 7227   5.517   4.613   5.838 -0.2465  0.1296  0.5899
   79SLPC   O11 7228   5.268   4.603   5.854 -0.0168 -0.1438  0.1906
   79SLPC    C1 7229   5.248   4.739   5.891 -0.5320  0.0478 -0.4281
   79SLPC    HA 7230   5.301   4.808   5.822 -1.2771  2.0290  0.9084
   79SLPC    HB 7231   5.141   4.767   5.892 -0.2524  1.2056  0.9250
   79SLPC    C2 7232   5.297   4.765   6.037  0.5718 -0.3539 -0.1646
   79SLPC    HS 7233   5.405   4.742   6.039  0.7664 -0.0373 -3.0991
   79SLPC   O21 7234   5.214   4.686   6.127 -0.3144 -0.5750 -0.1017
   79SLPC   C21 7235   5.267   4.581   6.182 -0.1357  1.2672 -0.1553
   79SLPC   O22 7236   5.386   4.549   6.179 -0.1021 -0.3632  1.0133
   79SLPC   C22 7237   5.172   4.496   6.252  0.7537 -0.8771  0.3406
   79SLPC   H2R 7238   5.067   4.526   6.237  1.1111 -0.5242 -1.8871
   79SLPC   H2S 7239   5.176   4.397   6.201 -1.8427 -0.2727 -1.1722
   79SLPC    C3 7240   5.278   4.917   6.076  0.3450 -0.7910  0.6443
   79SLPC    HX 7241   5.178   4.952   6.046  1.2353  0.8018 -0.5895
   79SLPC    HY 7242   5.351   4.967   6.009  0.8385 -1.0279  0.9934
   79SLPC   O31 7243   5.329   4.956   6.211  0.5596  0.3315  0.2470
   79SLPC   C31 7244   5.234   4.975   6.299  0.4918 -0.1117 -0.1246
   79SLPC   O32 7245   5.113   4.972   6.290 -0.3214 -0.2819 -0.2950
   79SLPC   C32 7246   5.306   4.999   6.431  0.3642  0.3531 -0.2299
   79SLPC   H2X 7247   5.396   5.062   6.415  1.4064 -1.0707 -0.1787
   79SLPC   H2Y 7248   5.336   4.895   6.457  0.5002  0.2003 -0.9737
   79SLPC   C23 7249   5.209   4.473   6.401 -0.4159  0.0553 -0.2111
   79SLPC   H3R 7250   5.312   4.431   6.402  0.6502  2.5142  1.0869
   79SLPC   H3S 7251   5.133   4.402   6.439  0.3050 -0.5013  0.2214
   79SLPC   C24 7252   5.197   4.598   6.487 -0.3228  0.0241 -0.2019
   79SLPC   H4R 7253   5.087   4.615   6.492 -0.6095 -1.8832  3.1040
   79SLPC   H4S 7254   5.236   4.689   6.437 -0.1069 -0.5250 -1.0561
   79SLPC   C25 7255   5.262   4.577   6.623 -0.3233 -0.6668 -0.0522
   79SLPC   H5R 7256   5.373   4.587   6.615 -0.2271 -0.0112  1.6095
   79SLPC   H5S 7257   5.247   4.470   6.650 -0.3376 -0.5664  0.3520
   79SLPC   C26 7258   5.203   4.672   6.728  0.5661  0.3810 -0.8782
   79SLPC   H6R 7259   5.125   4.738   6.685  0.1815  3.0712  3.3209
   79SLPC   H6S 7260   5.289   4.730   6.769 -1.2260  2.0349  0.7092
   79SLPC   C27 7261   5.117   4.592   6.828  0.2774  0.1567 -0.2047
   79SLPC   H7R 7262   5.190   4.517   6.864  0.5980  0.7604  0.4220
   79SLPC   H7S 7263   5.052   4.525   6.769 -1.9618  0.1742  2.1041
   79SLPC   C28 7264   5.026   4.663   6.935 -0.2579 -0.4598  0.3917
   79SLPC   H8R 7265   4.952   4.587   6.968 -2.0605  0.7574 -0.6271
   79SLPC   H8S 7266   4.978   4.745   6.876  1.5226  0.0118 -0.4741
   79SLPC   C29 7267   5.100   4.732   7.050  0.2698  0.3186  0.6897
   79SLPC   H9R 7268   5.189   4.790   7.021 -0.0383 -0.6913 -2.6615
   79SLPC  C210 7269   5.077   4.722   7.186 -0.5338  0.1210  0.2052
   79SLPC  H10R 7270   5.144   4.779   7.251  0.4493 -1.3160  0.5024
   79SLPC  C211 7271   4.968   4.638   7.257 -0.0855  0.6595 -0.0324
   79SLPC  H11R 7272   5.031   4.567   7.314 -0.0982  1.4503  0.9913
   79SLPC  H11S 7273   4.900   4.578   7.193 -2.1684  0.5066  2.1889
   79SLPC  C212 7274   4.882   4.714   7.357 -0.2060  0.5150  0.3357
   79SLPC  H12R 7275   4.789   4.753   7.312 -0.5876 -0.1204  0.5519
   79SLPC  C213 7276   4.915   4.741   7.486  0.4212  0.2397  0.9642
   79SLPC  H13R 7277   4.837   4.782   7.551 -0.9693 -2.2185  0.9796
   79SLPC  C214 7278   5.045   4.717   7.563  0.5870 -0.7742  1.3156
   79SLPC  H14R 7279   5.084   4.812   7.607 -2.1374  1.0919  0.0009
   79SLPC  H14S 7280   5.130   4.682   7.501 -0.7883  1.1462 -1.9386
   79SLPC  C215 7281   5.019   4.610   7.671  0.8841  0.6239  0.4719
   79SLPC  H15R 7282   5.113   4.583   7.723 -0.1280  1.1137  2.6676
   79SLPC  H15S 7283   4.976   4.523   7.616  0.2222  1.1315  0.1649
   79SLPC  C216 7284   4.928   4.655   7.784  0.3630 -0.4150 -0.3559
   79SLPC  H16R 7285   4.821   4.657   7.755  1.0341 -0.7026 -3.0572
   79SLPC  H16S 7286   4.955   4.762   7.796  0.4836 -0.3096 -1.4834
   79SLPC  C217 7287   4.936   4.564   7.907  0.1168  0.5671 -0.4066
   79SLPC  H17R 7288   4.885   4.618   7.989  1.6408 -1.6176  2.1014
   79SLPC  H17S 7289   5.037   4.562   7.951  0.0842  3.8673  0.0968
   79SLPC  C218 7290   4.886   4.419   7.894 -0.1624 -0.0038  0.4318
   79SLPC  H18R 7291   4.950   4.348   7.837 -0.9966 -0.0250 -0.5002
   79SLPC  H18S 7292   4.788   4.428   7.843 -1.2485 -3.5257  1.5318
   79SLPC  H18T 7293   4.862   4.385   7.997  2.4991  1.0073  1.4582
   79SLPC   C33 7294   5.213   5.046   6.537 -0.2276  0.0534 -0.4039
   79SLPC   H3X 7295   5.126   4.977   6.547 -0.3040 -0.0214 -1.4331
   79SLPC   H3Y 7296   5.172   5.147   6.515  1.8096  1.4419  1.7694
   79SLPC   C34 7297   5.273   5.048   6.676  0.2557 -0.4326 -0.4019
   79SLPC   H4X 7298   5.329   4.957   6.705 -1.8191 -1.1432  1.5913
   79SLPC   H4Y 7299   5.193   5.050   6.752 -0.0228  0.0248 -0.6995
   79SLPC   C35 7300   5.364   5.175   6.686  0.4167  0.0413  0.1783
   79SLPC   H5X 7301   5.329   5.251   6.613 -1.1569 -0.1410  0.7024
   79SLPC   H5Y 7302   5.467   5.145   6.659  0.5191  0.6881 -0.1894
   79SLPC   C36 7303   5.363   5.247   6.825  0.1576 -0.5120 -0.2441
   79SLPC   H6X 7304   5.261   5.266   6.864  0.2443 -2.3330  0.9748
   79SLPC   H6Y 7305   5.423   5.341   6.827 -1.1252  0.3163  1.2144
   79SLPC   C37 7306   5.433   5.170   6.934  0.3617  0.3312  0.2776
   79SLPC   H7X 7307   5.534   5.131   6.907  0.6049 -0.6754  2.4263
   79SLPC   H7Y 7308   5.370   5.080   6.953  0.6737 -0.1713 -0.9312
   79SLPC   C38 7309   5.430   5.248   7.069  0.5007 -0.3413 -0.2308
   79SLPC   H8X 7310   5.352   5.326   7.075 -0.1884 -1.1257  2.8367
   79SLPC   H8Y 7311   5.526   5.301   7.086  1.6477 -0.7347 -4.3933
   79SLPC   C39 7312   5.387   5.151   7.180 -0.1925 -0.4599  0.5473
   79SLPC   H9X 7313   5.464   5.071   7.194 -0.3906 -0.3505  2.5945
   79SLPC   H9Y 7314   5.286   5.107   7.165 -0.4341  0.2756 -0.0332
   79SLPC  C310 7315   5.368   5.224   7.309 -0.4671  0.0758  0.4404
   79SLPC  H10X 7316   5.304   5.312   7.288 -1.7040 -1.3788 -2.4391
   79SLPC  H10Y 7317   5.469   5.264   7.334  0.8080 -1.3169 -2.0322
   79SLPC  C311 7318   5.318   5.128   7.417 -0.2025  0.0606  0.5860
   79SLPC  H11X 7319   5.367   5.030   7.396  2.1546  1.7014 -2.4452
   79SLPC  H11Y 7320   5.210   5.114   7.399  0.2869 -0.0837 -2.9344
   79SLPC  C312 7321   5.338   5.185   7.556 -0.6926  0.1814  0.1098
   79SLPC  H12X 7322   5.272   5.274   7.557  1.5605  2.0572 -2.5785
   79SLPC  H12Y 7323   5.443   5.222   7.556 -1.4383  2.6461  2.8058
   79SLPC  C313 7324   5.310   5.092   7.673  0.5328 -0.2027 -0.6359
   79SLPC  H13X 7325   5.380   5.116   7.756  1.0334 -2.7443 -0.2624
   79SLPC  H13Y 7326   5.335   4.989   7.640  1.4806  0.4058 -1.8941
   79SLPC  C314 7327   5.167   5.086   7.728  0.5281  0.1145 -0.3948
   79SLPC  H14X 7328   5.107   5.034   7.651 -2.9740 -0.6784  2.6189
   79SLPC  H14Y 7329   5.127   5.190   7.734 -1.9860 -0.7564 -1.0663
   79SLPC  C315 7330   5.149   5.001   7.857  0.2156 -0.1686 -0.0558
   79SLPC  H15X 7331   5.223   5.038   7.931  1.3088  0.3063 -1.3467
   79SLPC  H15Y 7332   5.161   4.893   7.837  0.6149 -0.1084 -0.1416
   79SLPC  C316 7333   5.009   5.015   7.908  0.4380 -0.4454 -0.5406
   79SLPC  H16X 7334   4.936   4.947   7.859  1.3771 -3.5052  1.9600
   79SLPC  H16Y 7335   4.980   5.122   7.896 -0.1848 -0.5070  0.2879
   79SLPC  C317 7336   4.991   4.988   8.056 -0.3018  0.6253 -0.2235
   79SLPC  H17X 7337   5.074   5.030   8.116 -2.4825  1.6980  2.2229
   79SLPC  H17Y 7338   4.990   4.878   8.070  0.4905  0.4775 -1.1659
   79SLPC  C318 7339   4.862   5.043   8.117 -0.0251 -0.4111 -0.1029
   79SLPC  H18X 7340   4.843   4.995   8.215  0.2287 -1.6802 -0.6518
   79SLPC  H18Y 7341   4.776   5.026   8.049  0.3477 -0.9944 -0.4407
   79SLPC  H18Z 7342   4.867   5.153   8.127 -1.8661 -0.2528 -0.6469
   80SLPC     N 7343   5.781   2.193   5.465 -0.0628 -0.3521  0.8892
   80SLPC   C13 7344   5.906   2.196   5.375  0.0943 -0.7718 -1.0277
   80SLPC  H13A 7345   5.919   2.290   5.325  1.4556  0.5790  1.6379
   80SLPC  H13B 7346   5.991   2.179   5.440  1.4137  2.2978 -1.7648
   80SLPC  H13C 7347   5.895   2.122   5.297 -1.7384  1.4600 -3.0030
   80SLPC   C14 7348   5.739   2.056   5.499  0.0853 -0.7138  0.3028
   80SLPC  H14A 7349   5.710   2.008   5.407 -0.3868 -1.8053  1.0007
   80SLPC  H14B 7350   5.821   2.005   5.546  1.0360 -1.8047 -2.3801
   80SLPC  H14C 7351   5.651   2.061   5.561 -0.5814  3.0921 -0.6457
   80SLPC   C15 7352   5.669   2.266   5.392 -0.3137  0.7273  0.0667
   80SLPC  H15A 7353   5.700   2.367   5.370 -0.6359  0.6151 -0.9703
   80SLPC  H15B 7354   5.655   2.227   5.292 -0.7165 -2.2970  1.1905
   80SLPC  H15C 7355   5.579   2.257   5.450 -0.6294 -1.8496 -0.6858
   80SLPC   C12 7356   5.809   2.284   5.585 -0.0009 -0.0251  1.1771
   80SLPC  H12A 7357   5.711   2.312   5.621 -1.4332 -0.6851 -1.9142
   80SLPC  H12B 7358   5.848   2.376   5.546  0.3044 -0.1438  1.2019
   80SLPC   C11 7359   5.902   2.239   5.686 -0.8383 -0.7054 -0.6500
   80SLPC  H11A 7360   5.880   2.133   5.710 -0.5567 -1.2908 -2.8344
   80SLPC  H11B 7361   5.889   2.296   5.781  2.4500 -1.1545  0.2012
   80SLPC     P 7362   6.128   2.359   5.677  0.4357 -0.5108 -0.2574
   80SLPC   O13 7363   6.274   2.333   5.665  0.1628  0.3172  0.1925
   80SLPC   O14 7364   6.074   2.481   5.600  0.1486 -0.0868  0.3239
   80SLPC   O12 7365   6.041   2.230   5.639 -0.1352 -0.0505  0.3566
   80SLPC   O11 7366   6.099   2.373   5.832  0.0635 -0.0828  0.7274
   80SLPC    C1 7367   6.149   2.294   5.938  0.0222  0.0207  0.2746
   80SLPC    HA 7368   6.081   2.206   5.941  0.2677 -0.2965 -1.8527
   80SLPC    HB 7369   6.242   2.236   5.919 -0.2898 -0.5103  0.3484
   80SLPC    C2 7370   6.169   2.363   6.071  0.4965  0.7129  0.1084
   80SLPC    HS 7371   6.201   2.286   6.143  0.1639  1.9812  1.6556
   80SLPC   O21 7372   6.049   2.421   6.125  0.3396 -0.2772  0.2325
   80SLPC   C21 7373   5.959   2.330   6.168  0.4742 -0.2509 -0.0911
   80SLPC   O22 7374   5.984   2.208   6.168 -0.6891 -0.2401 -0.0760
   80SLPC   C22 7375   5.844   2.405   6.236  0.0058 -0.0370 -0.3991
   80SLPC   H2R 7376   5.889   2.459   6.322 -0.2194 -0.4624 -0.0112
   80SLPC   H2S 7377   5.806   2.466   6.151  1.8578 -1.0385 -2.0105
   80SLPC    C3 7378   6.272   2.469   6.061 -0.4549  0.3719 -0.2055
   80SLPC    HX 7379   6.227   2.533   5.982  0.6660  0.0118 -1.1637
   80SLPC    HY 7380   6.365   2.416   6.032 -0.0698  0.0976  1.4357
   80SLPC   O31 7381   6.288   2.535   6.188 -0.5959 -0.5974 -0.6055
   80SLPC   C31 7382   6.315   2.665   6.170 -0.1173  0.0234 -0.2551
   80SLPC   O32 7383   6.333   2.720   6.060  0.1104  0.1955  0.0541
   80SLPC   C32 7384   6.296   2.738   6.300  0.0088 -0.3154  0.3535
   80SLPC   H2X 7385   6.275   2.663   6.380 -1.0148 -0.0319  0.3727
   80SLPC   H2Y 7386   6.198   2.788   6.286 -0.3323 -1.2565 -0.8023
   80SLPC   C23 7387   5.728   2.313   6.270 -0.0653 -0.3072 -0.4269
   80SLPC   H3R 7388   5.749   2.258   6.364  0.5927  1.1658  0.3149
   80SLPC   H3S 7389   5.714   2.251   6.178  0.5030 -2.4689  0.8799
   80SLPC   C24 7390   5.597   2.386   6.309 -0.5303  0.1507 -0.1537
   80SLPC   H4R 7391   5.573   2.469   6.238  0.4865 -0.5924 -1.3953
   80SLPC   H4S 7392   5.607   2.420   6.415  2.0358 -0.8533  0.0013
   80SLPC   C25 7393   5.485   2.287   6.308  0.0596  0.7377 -0.3376
   80SLPC   H5R 7394   5.500   2.226   6.400 -1.2153  0.1612 -0.5022
   80SLPC   H5S 7395   5.499   2.214   6.226 -0.0501  0.3571 -0.0178
   80SLPC   C26 7396   5.340   2.340   6.308  0.2840  0.9643 -0.6114
   80SLPC   H6R 7397   5.318   2.393   6.213 -0.3021  0.1992 -0.9163
   80SLPC   H6S 7398   5.338   2.420   6.385  3.3018  0.8947 -0.3708
   80SLPC   C27 7399   5.211   2.246   6.325  0.3806 -1.2778 -0.3003
   80SLPC   H7R 7400   5.216   2.157   6.258 -2.1207 -1.8776  0.2266
   80SLPC   H7S 7401   5.121   2.301   6.292  1.3526  0.9021  0.5028
   80SLPC   C28 7402   5.191   2.176   6.459 -0.0201 -0.4083  0.6512
   80SLPC   H8R 7403   5.287   2.128   6.487 -0.3104 -1.3763  0.0326
   80SLPC   H8S 7404   5.120   2.091   6.452 -1.8077  0.6702  3.6982
   80SLPC   C29 7405   5.153   2.275   6.564  0.1020  0.0117 -0.3800
   80SLPC   H9R 7406   5.052   2.316   6.549 -0.2285 -0.4930  0.4449
   80SLPC  C210 7407   5.233   2.324   6.661  0.2339  0.9051 -0.9128
   80SLPC  H10R 7408   5.186   2.391   6.735 -2.7501 -3.1489  1.2687
   80SLPC  C211 7409   5.377   2.289   6.696 -0.2063 -1.1203 -0.3787
   80SLPC  H11R 7410   5.421   2.230   6.612 -1.1821 -0.8887 -1.0759
   80SLPC  H11S 7411   5.370   2.235   6.793 -0.2704  0.6203  0.6113
   80SLPC  C212 7412   5.455   2.414   6.723 -0.2942  0.3428  0.1386
   80SLPC  H12R 7413   5.516   2.456   6.641  3.2842 -2.4749  1.0766
   80SLPC  C213 7414   5.480   2.469   6.846  0.8171 -0.3706 -0.8236
   80SLPC  H13R 7415   5.530   2.566   6.856 -1.0420  0.6847 -1.3503
   80SLPC  C214 7416   5.420   2.436   6.977 -0.2180  0.1173 -0.3852
   80SLPC  H14R 7417   5.493   2.415   7.059 -1.4593  1.0726  1.0267
   80SLPC  H14S 7418   5.339   2.361   6.967  1.8602 -2.1872 -0.8233
   80SLPC  C215 7419   5.344   2.553   7.041  0.6078 -0.2946 -0.4684
   80SLPC  H15R 7420   5.277   2.576   6.955  0.6663 -3.0349 -1.3655
   80SLPC  H15S 7421   5.410   2.641   7.054 -0.3406  0.3588  0.0140
   80SLPC  C216 7422   5.273   2.514   7.175 -0.4304 -0.2160  0.1872
   80SLPC  H16R 7423   5.188   2.448   7.146 -0.8040  0.5642 -0.5271
   80SLPC  H16S 7424   5.236   2.607   7.223 -2.5046 -1.4470  1.1346
   80SLPC  C217 7425   5.357   2.423   7.273 -0.6538 -0.3266  0.5135
   80SLPC  H17R 7426   5.451   2.479   7.294 -1.1568 -0.0795  2.2680
   80SLPC  H17S 7427   5.387   2.331   7.219 -0.1672  0.7299 -1.1261
   80SLPC  C218 7428   5.287   2.389   7.404 -0.7494 -0.7164 -0.2212
   80SLPC  H18R 7429   5.235   2.481   7.439 -0.7909 -0.0663 -1.9001
   80SLPC  H18S 7430   5.355   2.351   7.483  0.9570 -0.1175 -1.3433
   80SLPC  H18T 7431   5.214   2.306   7.399  2.2942 -3.6451  0.4010
   80SLPC   C33 7432   6.416   2.828   6.336 -0.3163 -0.1238  0.0578
   80SLPC   H3X 7433   6.430   2.900   6.252 -0.0721 -0.7149 -0.4206
   80SLPC   H3Y 7434   6.508   2.770   6.357 -0.2081 -0.2458 -0.7034
   80SLPC   C34 7435   6.390   2.920   6.451  0.3581  0.8239 -0.4358
   80SLPC   H4X 7436   6.360   2.856   6.537 -0.4326  1.3383 -0.3202
   80SLPC   H4Y 7437   6.308   2.991   6.429  0.7736  1.1607 -0.9035
   80SLPC   C35 7438   6.511   3.005   6.497  0.2756  0.2775  0.6452
   80SLPC   H5X 7439   6.544   3.083   6.425  1.4104 -2.1107 -1.5780
   80SLPC   H5Y 7440   6.596   2.934   6.493  0.9183  1.0194  0.8351
   80SLPC   C36 7441   6.495   3.067   6.641 -0.5285 -0.1315 -0.0214
   80SLPC   H6X 7442   6.597   3.101   6.668 -0.4467  0.7778 -1.3558
   80SLPC   H6Y 7443   6.461   2.991   6.714 -0.3472 -0.7184 -0.5301
   80SLPC   C37 7444   6.396   3.185   6.650 -0.0681 -0.1696  0.0028
   80SLPC   H7X 7445   6.300   3.153   6.605  0.8185  0.0717 -2.1851
   80SLPC   H7Y 7446   6.429   3.277   6.598 -0.0270  2.6134  4.3832
   80SLPC   C38 7447   6.380   3.221   6.803 -0.7221  0.8423  0.4029
   80SLPC   H8X 7448   6.477   3.254   6.843 -1.0187  1.8129  0.3362
   80SLPC   H8Y 7449   6.339   3.127   6.846  1.1989 -0.0192  0.4698
   80SLPC   C39 7450   6.273   3.324   6.828 -0.3406 -0.2410 -0.3718
   80SLPC   H9X 7451   6.179   3.298   6.775 -1.3171  0.4034  0.9652
   80SLPC   H9Y 7452   6.311   3.420   6.788 -1.0381  0.2245  0.0540
   80SLPC  C310 7453   6.245   3.358   6.978 -0.0572  0.0611  0.1622
   80SLPC  H10X 7454   6.214   3.272   7.040 -1.1504  0.9113  0.8284
   80SLPC  H10Y 7455   6.160   3.428   6.983 -1.8288 -1.9137 -0.8172
   80SLPC  C311 7456   6.363   3.430   7.047  0.0780  0.4122 -0.2785
   80SLPC  H11X 7457   6.380   3.526   6.994 -1.2942  0.1467 -1.2548
   80SLPC  H11Y 7458   6.454   3.367   7.044 -0.2427 -0.0864 -3.5476
   80SLPC  C312 7459   6.323   3.481   7.190 -0.4950  1.2179  0.1074
   80SLPC  H12X 7460   6.223   3.528   7.181 -0.6664  1.1481  1.4337
   80SLPC  H12Y 7461   6.393   3.557   7.229 -1.4916  1.8324  0.7485
   80SLPC  C313 7462   6.321   3.354   7.288  0.3195  0.0072  0.6283
   80SLPC  H13X 7463   6.384   3.274   7.244 -0.3014  0.1580 -0.5774
   80SLPC  H13Y 7464   6.217   3.314   7.290 -0.3615  1.6160  3.6428
   80SLPC  C314 7465   6.358   3.387   7.430  0.1980  0.2464  0.5670
   80SLPC  H14X 7466   6.466   3.415   7.431  0.3609 -0.3556  0.4665
   80SLPC  H14Y 7467   6.348   3.294   7.491 -0.5375 -0.7225 -0.9799
   80SLPC  C315 7468   6.273   3.496   7.486 -0.4065  0.5173 -0.0111
   80SLPC  H15X 7469   6.169   3.480   7.451 -0.9657  2.1670  0.7624
   80SLPC  H15Y 7470   6.302   3.601   7.462 -1.3528  0.8606  0.2792
   80SLPC  C316 7471   6.278   3.496   7.642 -0.2624 -0.4922  0.8809
   80SLPC  H16X 7472   6.241   3.399   7.683  2.7471 -1.9472  0.4031
   80SLPC  H16Y 7473   6.215   3.579   7.682 -1.1258 -1.5310  1.7527
   80SLPC  C317 7474   6.419   3.521   7.686 -0.3184 -0.0298 -0.4641
   80SLPC  H17X 7475   6.471   3.604   7.634  0.7851  0.1464  0.8552
   80SLPC  H17Y 7476   6.473   3.428   7.658 -1.8640 -1.7129  1.7989
   80SLPC  C318 7477   6.424   3.549   7.838 -0.0229 -0.0640  0.3735
   80SLPC  H18X 7478   6.529   3.580   7.854  0.4934 -1.8891  0.7533
   80SLPC  H18Y 7479   6.392   3.460   7.896 -0.9276 -0.1122 -0.1724
   80SLPC  H18Z 7480   6.356   3.631   7.869  1.4113  1.0997  0.5338
   81SAPS     N 7481   0.273   4.931  10.229 -0.0369 -0.1702  0.0184
   81SAPS   HN1 7482   0.372   4.945  10.259  0.2700 -1.1318 -0.5089
   81SAPS   HN2 7483   0.271   4.844  10.172  0.7523  0.6261 -1.2658
   81SAPS   HN3 7484   0.231   5.010  10.176 -0.6860 -0.6694 -0.2154
   81SAPS   C12 7485   0.181   4.899  10.344  0.0465 -0.2725  0.6298
   81SAPS  H12A 7486   0.243   4.886  10.431 -0.0173  1.1229  0.9010
   81SAPS   C13 7487   0.068   5.003  10.371 -0.1618  0.1677 -0.6798
   81SAPS  O13A 7488   0.062   5.107  10.307  0.7167 -0.3210  0.3498
   81SAPS  O13B 7489  -0.004   4.990  10.477  0.2369  0.2136  0.0151
   81SAPS   C11 7490   0.108   4.765  10.326  0.5166  0.6982 -0.8261
   81SAPS  H11A 7491   0.067   4.781  10.224  0.0508 -0.3815 -0.8251
   81SAPS  H11B 7492   0.026   4.752  10.400  0.7119  1.5276 -0.4533
   81SAPS     P 7493   0.174   4.515  10.345 -0.2208 -0.2710  0.3068
   81SAPS   O13 7494   0.272   4.430  10.271  0.3364 -0.0994  0.0394
   81SAPS   O14 7495   0.173   4.493  10.490 -0.0078  0.6172 -0.4652
   81SAPS   O12 7496   0.207   4.661  10.325 -0.3356  0.0978 -0.7619
   81SAPS   O11 7497   0.031   4.498  10.279 -0.4942 -0.3771 -0.5811
   81SAPS    C1 7498  -0.003   4.399  10.194 -0.1474 -0.4991  0.1496
   81SAPS    HA 7499   0.056   4.307  10.213  1.7632  0.3623 -1.2372
   81SAPS    HB 7500  -0.108   4.376  10.223 -0.1337  1.7640  2.2169
   81SAPS    C2 7501  -0.025   4.437  10.042  0.1075 -0.0811 -0.1695
   81SAPS    HS 7502  -0.083   4.360   9.987  2.6929 -2.2706 -0.0192
   81SAPS   O21 7503   0.104   4.449   9.972  0.6056 -0.9273  0.0132
   81SAPS   C21 7504   0.157   4.332   9.939  0.9548 -0.2924  0.7949
   81SAPS   O22 7505   0.117   4.220   9.964 -0.9964  0.3789 -0.5166
   81SAPS   C22 7506   0.280   4.355   9.856  0.8373 -0.7867 -0.6675
   81SAPS   H2R 7507   0.297   4.465   9.845 -0.5083 -0.3954  0.8248
   81SAPS   H2S 7508   0.377   4.306   9.879  0.9392 -1.0133 -1.5510
   81SAPS    C3 7509  -0.103   4.566  10.031 -0.4152 -0.2129  0.4942
   81SAPS    HX 7510  -0.051   4.649  10.083  0.4792 -0.2141 -0.3790
   81SAPS    HY 7511  -0.202   4.555  10.080 -0.7602 -0.0105 -0.1482
   81SAPS   O31 7512  -0.133   4.618   9.896 -0.2881  0.2222  0.6475
   81SAPS   C31 7513  -0.228   4.550   9.835  0.1690  0.0727 -0.1330
   81SAPS   O32 7514  -0.279   4.448   9.877 -0.0312 -0.1064 -0.0653
   81SAPS   C32 7515  -0.257   4.613   9.699 -0.1526  1.0039 -0.6708
   81SAPS   H2X 7516  -0.159   4.652   9.665  1.7039  0.4972  3.5848
   81SAPS   H2Y 7517  -0.338   4.687   9.717 -1.3802 -0.3120 -0.6199
   81SAPS   C23 7518   0.260   4.297   9.707 -0.6775  0.0749 -0.0489
   81SAPS   H3R 7519   0.241   4.187   9.707 -2.8688  0.3206  3.6079
   81SAPS   H3S 7520   0.365   4.313   9.672  0.0809  1.4951  2.6114
   81SAPS   C24 7521   0.158   4.375   9.630  0.4341  0.2579 -0.3518
   81SAPS   H4R 7522   0.063   4.374   9.688  1.4338 -2.0767  1.3897
   81SAPS   H4S 7523   0.141   4.326   9.531  1.3949 -1.6380  0.3734
   81SAPS   C25 7524   0.186   4.523   9.604 -0.5355  0.3607 -0.4200
   81SAPS   H5R 7525   0.214   4.588   9.688 -0.5792  0.1502 -0.2415
   81SAPS   C26 7526   0.169   4.578   9.478 -1.4295  0.6210 -0.6669
   81SAPS   H6R 7527   0.215   4.677   9.462  4.5176 -1.6673 -0.5062
   81SAPS   C27 7528   0.123   4.509   9.354  0.0675 -0.3053  0.1943
   81SAPS   H7R 7529   0.044   4.436   9.385 -1.9103  1.5799 -0.1205
   81SAPS   H7S 7530   0.217   4.462   9.319  0.5480 -0.5482  1.7215
   81SAPS   C28 7531   0.056   4.591   9.239 -0.5283  0.1590  0.1368
   81SAPS   H8R 7532   0.018   4.691   9.265  0.8876  1.3076 -1.8625
   81SAPS   C29 7533   0.063   4.569   9.106 -0.1058 -0.2095 -0.6020
   81SAPS   H9R 7534   0.017   4.645   9.042 -1.9396 -0.4000  0.4070
   81SAPS  C210 7535   0.150   4.459   9.042  0.1746  0.4301 -0.2995
   81SAPS  H10R 7536   0.100   4.361   9.062 -1.6071  1.1718 -0.9158
   81SAPS  H10S 7537   0.251   4.463   9.089  0.3807  3.3995 -0.8074
   81SAPS  C211 7538   0.166   4.467   8.894 -0.2314  0.2229  0.5276
   81SAPS  H11R 7539   0.112   4.393   8.833  0.9964 -1.0151  0.8900
   81SAPS  C212 7540   0.243   4.558   8.828 -0.6195  0.1188  0.3463
   81SAPS  H12R 7541   0.253   4.557   8.718 -0.6038  2.0384  0.2996
   81SAPS  C213 7542   0.330   4.670   8.884 -0.5393  0.0263  0.5391
   81SAPS  H13R 7543   0.314   4.675   8.994 -1.6517 -0.3222  0.4025
   81SAPS  H13S 7544   0.288   4.770   8.862 -0.7600  0.3284  2.1984
   81SAPS  C214 7545   0.480   4.664   8.867 -0.4920 -0.2424 -0.9765
   81SAPS  H14R 7546   0.537   4.602   8.938  0.0722  2.0833  0.7283
   81SAPS  C215 7547   0.552   4.739   8.777 -0.2918 -0.0376  0.0459
   81SAPS  H15R 7548   0.659   4.716   8.767 -0.3127 -2.0109  3.1246
   81SAPS  C216 7549   0.498   4.837   8.673 -0.7417 -0.4200  0.1333
   81SAPS  H16R 7550   0.545   4.937   8.681  1.1171 -1.1477 -1.0477
   81SAPS  H16S 7551   0.388   4.851   8.681 -0.8454 -0.5689 -0.8205
   81SAPS  C217 7552   0.526   4.784   8.534  0.3033  0.1315  0.1705
   81SAPS  H17R 7553   0.489   4.680   8.522 -1.1945  0.7196 -0.4850
   81SAPS  H17S 7554   0.637   4.782   8.530  0.3000 -1.6292  0.0994
   81SAPS  C218 7555   0.461   4.865   8.430  0.7365 -0.0257 -0.1292
   81SAPS  H18R 7556   0.501   4.968   8.441 -0.3877  0.2741  1.3777
   81SAPS  H18S 7557   0.352   4.878   8.445  1.1040  2.9701  0.4446
   81SAPS  C219 7558   0.478   4.829   8.279  0.0598 -0.8158  0.2075
   81SAPS  H19R 7559   0.420   4.736   8.260 -1.7406  0.1884  0.5455
   81SAPS  H19S 7560   0.585   4.825   8.250  0.1874  3.0131 -0.2619
   81SAPS  C220 7561   0.401   4.932   8.194  0.0430  0.4222  0.0506
   81SAPS  H20R 7562   0.295   4.935   8.229  0.3221 -2.0317  1.3657
   81SAPS  H20S 7563   0.401   4.901   8.088 -1.0461  0.0821  0.1372
   81SAPS  H20T 7564   0.446   5.034   8.203  1.6763 -0.3793  1.7009
   81SAPS   C33 7565  -0.304   4.492   9.608 -1.1102  0.1033  0.1238
   81SAPS   H3X 7566  -0.404   4.448   9.630 -1.0876 -0.6030 -1.0517
   81SAPS   H3Y 7567  -0.240   4.402   9.619 -1.0940  0.2485  1.2560
   81SAPS   C34 7568  -0.295   4.534   9.461  0.1341 -0.0413 -0.0275
   81SAPS   H4X 7569  -0.195   4.579   9.440  0.8937 -1.9643 -0.7591
   81SAPS   H4Y 7570  -0.370   4.611   9.433 -0.8424 -0.1271  2.1861
   81SAPS   C35 7571  -0.310   4.407   9.372 -0.6949 -0.0783  0.0393
   81SAPS   H5X 7572  -0.401   4.351   9.404 -1.1720  0.8136  0.2598
   81SAPS   H5Y 7573  -0.230   4.334   9.398 -0.8676 -0.2714  0.0332
   81SAPS   C36 7574  -0.306   4.439   9.222  0.5446  0.7493  0.0669
   81SAPS   H6X 7575  -0.203   4.466   9.191  1.2536  0.1169  1.7474
   81SAPS   H6Y 7576  -0.372   4.528   9.219 -0.2935  0.3081  2.6300
   81SAPS   C37 7577  -0.380   4.345   9.124 -0.3950 -0.1355 -0.4054
   81SAPS   H7X 7578  -0.382   4.388   9.022  3.3189  0.8449 -0.2093
   81SAPS   H7Y 7579  -0.479   4.309   9.156  0.4441 -0.2521  2.2936
   81SAPS   C38 7580  -0.294   4.206   9.123 -0.1945 -0.1205 -0.1451
   81SAPS   H8X 7581  -0.318   4.153   9.217 -0.5697  0.3508  0.0311
   81SAPS   H8Y 7582  -0.187   4.236   9.119  0.2534 -1.3016  1.6201
   81SAPS   C39 7583  -0.333   4.120   9.007 -0.4885  0.2182  0.0978
   81SAPS   H9X 7584  -0.435   4.139   8.969 -0.4909  1.1994  0.5599
   81SAPS   H9Y 7585  -0.332   4.015   9.043  0.1558 -0.1973 -1.0363
   81SAPS  C310 7586  -0.225   4.133   8.895  0.4716 -0.5888 -0.3073
   81SAPS  H10X 7587  -0.163   4.042   8.882  1.8266 -0.0095  1.5303
   81SAPS  H10Y 7588  -0.154   4.217   8.912  0.8147 -0.4506 -2.2170
   81SAPS  C311 7589  -0.289   4.158   8.753  0.1842  0.3172 -0.0945
   81SAPS  H11X 7590  -0.372   4.232   8.756  2.0556  2.4963  0.7872
   81SAPS  H11Y 7591  -0.326   4.059   8.721 -0.4054  0.4645  0.1079
   81SAPS  C312 7592  -0.196   4.223   8.655  0.4807 -0.1564  0.2661
   81SAPS  H12X 7593  -0.100   4.165   8.656 -0.3816 -1.6428  0.6861
   81SAPS  H12Y 7594  -0.171   4.326   8.688 -2.6381  0.7009  0.2797
   81SAPS  C313 7595  -0.249   4.210   8.509 -0.6271  0.2259  0.2673
   81SAPS  H13X 7596  -0.232   4.103   8.480  1.9929  0.5950  0.1315
   81SAPS  H13Y 7597  -0.172   4.271   8.456  1.2663 -0.3626  2.2089
   81SAPS  C314 7598  -0.384   4.263   8.487 -0.1409 -0.3518  0.1017
   81SAPS  H14X 7599  -0.409   4.342   8.561 -0.6191 -0.7652  0.3856
   81SAPS  H14Y 7600  -0.461   4.185   8.506  1.7825 -1.9639  1.8375
   81SAPS  C315 7601  -0.399   4.305   8.338  0.1857 -0.3438  0.8139
   81SAPS  H15X 7602  -0.339   4.241   8.271  0.5999  0.5265  0.3356
   81SAPS  H15Y 7603  -0.351   4.405   8.326  0.7325 -0.6587  0.3333
   81SAPS  C316 7604  -0.546   4.286   8.304 -0.2235  0.1201  0.7141
   81SAPS  H16X 7605  -0.621   4.349   8.357 -0.0963  2.2625 -1.4803
   81SAPS  H16Y 7606  -0.578   4.185   8.338 -1.1193  0.3490  0.5754
   81SAPS  C317 7607  -0.575   4.295   8.152  0.3745 -0.5670 -0.1378
   81SAPS  H17X 7608  -0.686   4.283   8.149  0.2662  0.5166 -2.6347
   81SAPS  H17Y 7609  -0.524   4.219   8.089  3.4146  1.9422 -0.9343
   81SAPS  C318 7610  -0.537   4.427   8.091 -0.2016 -0.0265 -0.6927
   81SAPS  H18X 7611  -0.584   4.461   7.996 -0.1257  3.3267  0.3512
   81SAPS  H18Y 7612  -0.428   4.429   8.068 -0.4661 -1.0210 -2.1285
   81SAPS  H18Z 7613  -0.561   4.510   8.160 -2.1188 -0.0989 -1.2043
   82SAPS     N 7614   3.359   3.278  10.585 -0.2051 -0.4911  0.4344
   82SAPS   HN1 7615   3.278   3.256  10.524 -0.8464 -0.9988  1.4344
   82SAPS   HN2 7616   3.321   3.331  10.667  1.3916  0.9291  0.3038
   82SAPS   HN3 7617   3.413   3.347  10.529 -2.4043  1.4221  0.4961
   82SAPS   C12 7618   3.441   3.154  10.613 -0.1106 -0.7326  0.1403
   82SAPS  H12A 7619   3.542   3.185  10.636  0.5166 -0.9945 -2.0695
   82SAPS   C13 7620   3.389   3.086  10.736 -0.9124  0.1776  0.1003
   82SAPS  O13A 7621   3.279   3.118  10.788 -0.3965 -0.8164  0.0279
   82SAPS  O13B 7622   3.455   2.985  10.779 -0.1987 -0.4286  0.1077
   82SAPS   C11 7623   3.444   3.058  10.489 -0.3863 -0.4044 -0.4390
   82SAPS  H11A 7624   3.499   2.967  10.521  0.0145  0.0976  0.3359
   82SAPS  H11B 7625   3.491   3.098  10.397 -0.5756 -0.2496 -0.4669
   82SAPS     P 7626   3.297   2.895  10.353  0.1764  0.6467 -0.0351
   82SAPS   O13 7627   3.363   2.784  10.426  0.3125  0.5164 -0.4529
   82SAPS   O14 7628   3.158   2.868  10.313  0.1254  0.8589 -0.6297
   82SAPS   O12 7629   3.314   3.022  10.453  0.3952 -0.0417 -0.2124
   82SAPS   O11 7630   3.388   2.928  10.223  0.2077  0.1761  0.0729
   82SAPS    C1 7631   3.326   2.920  10.095  0.2180  0.8190  0.5064
   82SAPS    HA 7632   3.244   2.995  10.098 -0.5584  0.1096 -1.3307
   82SAPS    HB 7633   3.392   2.956  10.013  0.8139  0.7614  0.9570
   82SAPS    C2 7634   3.275   2.777  10.048 -0.5704 -0.1559 -0.2954
   82SAPS    HS 7635   3.239   2.724  10.138  0.0353 -3.2626 -1.7673
   82SAPS   O21 7636   3.389   2.714   9.986  0.0097 -0.2080 -0.5074
   82SAPS   C21 7637   3.384   2.582   9.978 -0.9685  0.4308 -0.5390
   82SAPS   O22 7638   3.294   2.506  10.003 -0.0753  0.0149 -0.1324
   82SAPS   C22 7639   3.518   2.525   9.935  1.2834 -0.2013 -0.2130
   82SAPS   H2R 7640   3.554   2.594   9.856 -2.0325 -0.6919 -2.3007
   82SAPS   H2S 7641   3.586   2.537  10.022 -1.3494 -0.0531  1.9563
   82SAPS    C3 7642   3.160   2.793   9.949  0.1854  0.2861 -0.2754
   82SAPS    HX 7643   3.074   2.840  10.002 -2.6131 -1.4413 -2.9816
   82SAPS    HY 7644   3.128   2.689   9.932 -0.8592  0.4133  0.8170
   82SAPS   O31 7645   3.202   2.873   9.841  0.6909 -0.2321 -0.5828
   82SAPS   C31 7646   3.225   2.808   9.726  1.0079 -0.4445 -0.3932
   82SAPS   O32 7647   3.210   2.690   9.713 -0.9417  0.0806 -0.6403
   82SAPS   C32 7648   3.260   2.910   9.613  0.6155  0.5661 -0.1408
   82SAPS   H2X 7649   3.354   2.957   9.648  0.8095  1.0561 -1.2597
   82SAPS   H2Y 7650   3.174   2.979   9.608  1.0206  1.0687 -0.2435
   82SAPS   C23 7651   3.519   2.382   9.880  0.2285  0.5057  0.0449
   82SAPS   H3R 7652   3.486   2.381   9.775  0.4385  0.6187 -0.0225
   82SAPS   H3S 7653   3.455   2.315   9.942 -1.2072  0.2518 -1.6623
   82SAPS   C24 7654   3.667   2.328   9.884  0.7487 -1.1202 -0.3018
   82SAPS   H4R 7655   3.713   2.356   9.982 -0.4779  1.9528 -0.4900
   82SAPS   H4S 7656   3.731   2.388   9.815  0.0386 -0.9021 -0.7801
   82SAPS   C25 7657   3.682   2.178   9.882 -0.2843 -0.1555  0.5336
   82SAPS   H5R 7658   3.622   2.135   9.964 -0.8422  1.7724  1.2103
   82SAPS   C26 7659   3.762   2.108   9.798  1.0446  0.0237 -0.3061
   82SAPS   H6R 7660   3.765   1.998   9.797  1.9811  0.0466 -0.8515
   82SAPS   C27 7661   3.857   2.171   9.703 -0.0802  0.2563  0.5854
   82SAPS   H7R 7662   3.953   2.181   9.758  0.1187 -0.7709  0.4355
   82SAPS   H7S 7663   3.825   2.275   9.677  0.2784  0.7981  2.1970
   82SAPS   C28 7664   3.888   2.081   9.584 -0.5186  0.4629 -0.2027
   82SAPS   H8R 7665   3.901   1.975   9.609  0.9640  1.1081  2.0289
   82SAPS   C29 7666   3.891   2.113   9.452  0.0812 -0.2758 -0.1758
   82SAPS   H9R 7667   3.897   2.028   9.384 -0.8102  0.1607 -0.8259
   82SAPS  C210 7668   3.854   2.241   9.383  0.4153  0.1674  0.0690
   82SAPS  H10R 7669   3.879   2.223   9.276 -1.6303 -0.2602 -0.3831
   82SAPS  H10S 7670   3.923   2.318   9.423 -1.8186  1.7465  1.0686
   82SAPS  C211 7671   3.713   2.295   9.405 -1.2802  0.2074 -0.1060
   82SAPS  H11R 7672   3.684   2.303   9.511 -1.2855 -1.2144  0.0194
   82SAPS  C212 7673   3.631   2.322   9.304  0.2572 -0.1228  0.1464
   82SAPS  H12R 7674   3.536   2.374   9.324 -1.0523 -1.3007 -2.5079
   82SAPS  C213 7675   3.662   2.309   9.157 -0.6827 -0.4500  0.0965
   82SAPS  H13R 7676   3.688   2.202   9.144  2.6858  0.3762 -1.0723
   82SAPS  H13S 7677   3.754   2.364   9.125  0.2086 -1.4133  0.9320
   82SAPS  C214 7678   3.558   2.342   9.053 -0.1472  0.0316 -0.2298
   82SAPS  H14R 7679   3.457   2.307   9.078 -0.5782  0.1053 -1.7575
   82SAPS  C215 7680   3.567   2.388   8.925 -0.2900  0.4145 -0.6467
   82SAPS  H15R 7681   3.475   2.412   8.870 -0.3965 -0.3221 -0.8053
   82SAPS  C216 7682   3.684   2.449   8.856 -0.4109  0.7736 -0.3990
   82SAPS  H16R 7683   3.771   2.467   8.923 -0.9996 -1.0129  0.9160
   82SAPS  H16S 7684   3.637   2.540   8.813  1.1628  1.6456 -0.3427
   82SAPS  C217 7685   3.733   2.355   8.753 -0.7440  0.5820  0.9186
   82SAPS  H17R 7686   3.655   2.286   8.713  0.7308 -0.8868  0.4634
   82SAPS  H17S 7687   3.809   2.289   8.801  0.6058  2.6455  1.7474
   82SAPS  C218 7688   3.781   2.414   8.620 -0.4858 -0.0290 -0.5939
   82SAPS  H18R 7689   3.855   2.497   8.626  0.5740 -0.9967  0.0956
   82SAPS  H18S 7690   3.694   2.459   8.569  0.5896  1.8693 -0.8529
   82SAPS  C219 7691   3.844   2.319   8.532  0.2389 -0.0082 -0.4133
   82SAPS  H19R 7692   3.770   2.238   8.514 -0.1701  0.3383 -0.3029
   82SAPS  H19S 7693   3.929   2.260   8.572 -1.4382 -2.8341 -0.7381
   82SAPS  C220 7694   3.882   2.394   8.396  0.0396  0.2954  0.1270
   82SAPS  H20R 7695   3.965   2.465   8.413 -0.2137  0.4035  0.9321
   82SAPS  H20S 7696   3.798   2.453   8.353 -1.2655 -0.0526  2.0734
   82SAPS  H20T 7697   3.904   2.322   8.314  2.9047  0.7722  0.3722
   82SAPS   C33 7698   3.280   2.855   9.474 -0.5764 -0.1689  0.5602
   82SAPS   H3X 7699   3.227   2.917   9.399 -0.8710 -2.3037 -1.0965
   82SAPS   H3Y 7700   3.247   2.750   9.458  2.4890 -1.0099 -1.0634
   82SAPS   C34 7701   3.428   2.854   9.430  0.0337 -0.9708  0.2152
   82SAPS   H4X 7702   3.489   2.820   9.517 -0.1072  1.5051  1.3717
   82SAPS   H4Y 7703   3.454   2.962   9.426  1.0429 -1.1987  0.2711
   82SAPS   C35 7704   3.459   2.765   9.305  0.0874 -0.4280 -0.2729
   82SAPS   H5X 7705   3.414   2.664   9.320 -2.8651  0.7194 -0.7470
   82SAPS   H5Y 7706   3.569   2.750   9.300  0.4246  1.2402  1.1365
   82SAPS   C36 7707   3.407   2.821   9.173 -0.2270  0.1632  0.0426
   82SAPS   H6X 7708   3.440   2.925   9.151  0.2080 -0.2872 -1.5886
   82SAPS   H6Y 7709   3.297   2.803   9.177 -0.0574 -0.8196  0.5972
   82SAPS   C37 7710   3.442   2.743   9.045  0.3867  0.5721  0.5952
   82SAPS   H7X 7711   3.418   2.635   9.053 -1.4068  0.6266 -2.4786
   82SAPS   H7Y 7712   3.553   2.744   9.033  0.2420 -0.9790 -1.4215
   82SAPS   C38 7713   3.374   2.795   8.921 -0.1599 -0.2861  0.3456
   82SAPS   H8X 7714   3.416   2.897   8.907 -0.1393 -0.1324  1.4147
   82SAPS   H8Y 7715   3.266   2.799   8.946 -0.3275 -2.0649 -0.0001
   82SAPS   C39 7716   3.397   2.706   8.802 -0.3365  0.2363 -0.1315
   82SAPS   H9X 7717   3.355   2.606   8.825  2.1630 -0.4142  2.2416
   82SAPS   H9Y 7718   3.508   2.695   8.799 -0.3660  0.0687 -0.7792
   82SAPS  C310 7719   3.371   2.758   8.660 -0.6503 -0.0079 -0.7986
   82SAPS  H10X 7720   3.428   2.849   8.634 -0.7850 -0.6228 -3.5549
   82SAPS  H10Y 7721   3.262   2.779   8.657 -1.0829 -2.0841 -0.8595
   82SAPS  C311 7722   3.390   2.649   8.554  0.0828 -1.1512  0.3023
   82SAPS  H11X 7723   3.362   2.551   8.598  0.5116 -1.0907  0.7135
   82SAPS  H11Y 7724   3.500   2.645   8.539 -0.1805 -0.2425 -2.2941
   82SAPS  C312 7725   3.333   2.689   8.415  0.8371  0.1268  1.0570
   82SAPS  H12X 7726   3.224   2.701   8.431  0.7257 -1.7255  2.0112
   82SAPS  H12Y 7727   3.349   2.606   8.342  0.1572 -0.7000  1.8320
   82SAPS  C313 7728   3.414   2.811   8.356  0.5415 -0.0441  0.1690
   82SAPS  H13X 7729   3.419   2.898   8.425 -1.2809 -0.7040  1.2190
   82SAPS  H13Y 7730   3.361   2.833   8.261 -1.4945 -0.9722  1.0128
   82SAPS  C314 7731   3.557   2.776   8.324  0.6140  0.0241  0.0514
   82SAPS  H14X 7732   3.557   2.670   8.294  1.8297 -0.5267  1.8387
   82SAPS  H14Y 7733   3.605   2.771   8.424 -1.7579 -2.6293  1.1683
   82SAPS  C315 7734   3.627   2.862   8.223  0.3914  0.2583 -0.2079
   82SAPS  H15X 7735   3.736   2.844   8.220  0.4050  0.3924 -2.4339
   82SAPS  H15Y 7736   3.618   2.970   8.246 -2.3553  0.4096 -1.5552
   82SAPS  C316 7737   3.587   2.832   8.079  0.1576 -0.1021  0.1545
   82SAPS  H16X 7738   3.479   2.836   8.053  1.0701 -0.3380 -4.7511
   82SAPS  H16Y 7739   3.630   2.730   8.066  0.8332  0.0703  0.9657
   82SAPS  C317 7740   3.667   2.917   7.972  0.3418  0.6779  0.2589
   82SAPS  H17X 7741   3.774   2.923   7.999  0.0261  0.5591  1.5872
   82SAPS  H17Y 7742   3.636   3.024   7.976 -0.5466  0.5647 -1.8908
   82SAPS  C318 7743   3.650   2.876   7.835 -0.2956 -0.5695  0.4483
   82SAPS  H18X 7744   3.724   2.797   7.809 -0.7971 -1.3220  1.2684
   82SAPS  H18Y 7745   3.674   2.966   7.774 -1.5657  0.6014  1.6139
   82SAPS  H18Z 7746   3.543   2.851   7.817  0.0663 -0.5101 -2.2330
   83SAPS     N 7747   5.503   5.554  10.371 -0.8300 -0.0837 -0.1213
   83SAPS   HN1 7748   5.592   5.578  10.419 -1.3659 -2.3745  2.2532
   83SAPS   HN2 7749   5.504   5.451  10.378 -0.5552 -0.3799 -3.1763
   83SAPS   HN3 7750   5.529   5.587  10.276  1.0448  0.8966  0.6716
   83SAPS   C12 7751   5.395   5.621  10.449 -0.2366  0.0826  0.7415
   83SAPS  H12A 7752   5.302   5.579  10.414  0.7791 -2.4638  0.9335
   83SAPS   C13 7753   5.401   5.615  10.598  0.2794 -0.6167 -0.0538
   83SAPS  O13A 7754   5.504   5.575  10.661  0.3926 -0.0274 -0.5303
   83SAPS  O13B 7755   5.300   5.642  10.660  0.3562 -0.0760 -0.6842
   83SAPS   C11 7756   5.395   5.776  10.413 -0.4016  0.1435  0.1508
   83SAPS  H11A 7757   5.485   5.831  10.449  0.7093  0.5327 -2.9365
   83SAPS  H11B 7758   5.310   5.818  10.472 -1.0879  2.1572 -2.1068
   83SAPS     P 7759   5.400   5.943  10.224 -0.3371  0.2755 -0.2106
   83SAPS   O13 7760   5.315   6.035  10.309 -0.5727  0.2843 -0.1346
   83SAPS   O14 7761   5.547   5.965  10.213 -0.4276  0.3353  0.1252
   83SAPS   O12 7762   5.374   5.795  10.274 -0.2965 -0.0586  0.1102
   83SAPS   O11 7763   5.335   5.940  10.073 -0.0101  0.2376 -0.3198
   83SAPS    C1 7764   5.231   5.854  10.034  0.9065  0.0734  0.0773
   83SAPS    HA 7765   5.171   5.822  10.123  0.9321 -1.8412 -0.5391
   83SAPS    HB 7766   5.163   5.908   9.964  1.6339  2.3462  1.0533
   83SAPS    C2 7767   5.277   5.732   9.952  0.1588  0.1037 -0.1849
   83SAPS    HS 7768   5.329   5.673  10.031 -0.2334  0.5692  0.4325
   83SAPS   O21 7769   5.353   5.771   9.842  0.2663  0.4677 -0.7927
   83SAPS   C21 7770   5.459   5.692   9.820  0.3065  0.0556  0.6192
   83SAPS   O22 7771   5.490   5.598   9.891  0.0448 -0.0203  0.2682
   83SAPS   C22 7772   5.527   5.737   9.684 -0.7688  0.3749 -0.6094
   83SAPS   H2R 7773   5.551   5.845   9.696  0.8250 -0.0211  0.0233
   83SAPS   H2S 7774   5.629   5.694   9.675  0.1142  1.8291  1.5528
   83SAPS    C3 7775   5.160   5.643   9.914 -0.1286  1.2130  0.0678
   83SAPS    HX 7776   5.105   5.700   9.837  1.3350 -0.5505 -2.4138
   83SAPS    HY 7777   5.087   5.610   9.991 -1.5097  0.2944 -1.5764
   83SAPS   O31 7778   5.210   5.520   9.846 -0.6146 -0.8463 -0.4411
   83SAPS   C31 7779   5.219   5.415   9.928 -0.0202  0.2121  0.2191
   83SAPS   O32 7780   5.198   5.413  10.049  0.0535 -0.4263 -0.0084
   83SAPS   C32 7781   5.279   5.304   9.841 -0.1579 -0.4188 -0.0399
   83SAPS   H2X 7782   5.267   5.321   9.732  0.2670  1.0052  0.1163
   83SAPS   H2Y 7783   5.218   5.213   9.858  0.2387 -0.7823 -0.5654
   83SAPS   C23 7784   5.442   5.709   9.561  0.5112 -0.4477 -0.0726
   83SAPS   H3R 7785   5.483   5.752   9.467 -1.0391  2.2890  0.3939
   83SAPS   H3S 7786   5.356   5.776   9.584  2.5119  2.9111 -1.5664
   83SAPS   C24 7787   5.401   5.563   9.542 -0.0203  0.0726  0.8528
   83SAPS   H4R 7788   5.327   5.566   9.459  1.0090 -0.8341 -0.1412
   83SAPS   H4S 7789   5.343   5.514   9.623  0.3483  2.1975  2.4874
   83SAPS   C25 7790   5.516   5.472   9.519 -0.0714 -0.2322  0.3222
   83SAPS   H5R 7791   5.553   5.414   9.605 -1.1527  0.0913  1.0233
   83SAPS   C26 7792   5.563   5.448   9.390  0.0093 -0.1061 -0.2012
   83SAPS   H6R 7793   5.635   5.366   9.372 -1.1331 -1.2602  0.3229
   83SAPS   C27 7794   5.506   5.516   9.268  0.2664  0.1057  0.7256
   83SAPS   H7R 7795   5.496   5.625   9.289 -2.2547  0.4767 -1.7489
   83SAPS   H7S 7796   5.400   5.485   9.256 -0.2308  1.8088  0.4468
   83SAPS   C28 7797   5.586   5.490   9.147  0.0472  0.1683  0.0314
   83SAPS   H8R 7798   5.689   5.453   9.163  0.3067  0.3703 -1.1159
   83SAPS   C29 7799   5.532   5.491   9.024  0.1214 -0.6527 -0.3277
   83SAPS   H9R 7800   5.593   5.471   8.935 -1.5233  1.3244 -1.9993
   83SAPS  C210 7801   5.391   5.526   8.989 -0.6613  0.5957  0.0045
   83SAPS  H10R 7802   5.399   5.595   8.903  1.5429 -0.0830 -0.4015
   83SAPS  H10S 7803   5.337   5.578   9.071 -0.5647 -2.3824  2.0935
   83SAPS  C211 7804   5.309   5.413   8.940  0.3606 -0.0363  0.5445
   83SAPS  H11R 7805   5.252   5.364   9.021  1.7398  1.3371  2.4513
   83SAPS  C212 7806   5.295   5.376   8.811  0.2592  0.4913 -0.5719
   83SAPS  H12R 7807   5.224   5.293   8.799 -1.5771  1.8768  0.2450
   83SAPS  C213 7808   5.351   5.440   8.685 -0.5214  0.7556 -0.4632
   83SAPS  H13R 7809   5.449   5.390   8.668 -0.5934  0.5557 -0.2983
   83SAPS  H13S 7810   5.351   5.551   8.685 -2.0225  0.7704 -0.8966
   83SAPS  C214 7811   5.249   5.386   8.580 -0.6284  0.5956 -1.0402
   83SAPS  H14R 7812   5.146   5.403   8.615 -0.3303  0.6826 -0.1630
   83SAPS  C215 7813   5.265   5.323   8.462 -0.4531  0.4903 -0.6227
   83SAPS  H15R 7814   5.179   5.296   8.398 -1.2945  1.6721 -0.0198
   83SAPS  C216 7815   5.395   5.296   8.396 -0.3829  0.5758  0.1768
   83SAPS  H16R 7816   5.401   5.187   8.380  0.3687  0.3476  1.7810
   83SAPS  H16S 7817   5.489   5.307   8.454  1.6436 -0.9135 -2.6582
   83SAPS  C217 7818   5.393   5.379   8.268  0.1688 -0.4592  0.8316
   83SAPS  H17R 7819   5.451   5.469   8.294  0.1770  0.6052 -2.5151
   83SAPS  H17S 7820   5.298   5.426   8.234  0.9875  0.2086 -0.5803
   83SAPS  C218 7821   5.472   5.313   8.155  0.1293  0.1110 -0.2502
   83SAPS  H18R 7822   5.428   5.212   8.140  1.2271 -0.5206  0.6272
   83SAPS  H18S 7823   5.574   5.287   8.189 -0.2891 -3.4109 -1.3029
   83SAPS  C219 7824   5.489   5.380   8.018 -0.5207 -0.4340 -0.3139
   83SAPS  H19R 7825   5.576   5.340   7.963  0.0492  1.6432 -1.0314
   83SAPS  H19S 7826   5.497   5.489   8.039 -2.6893 -0.0414 -1.2874
   83SAPS  C220 7827   5.362   5.371   7.931  0.3453 -0.1574 -0.4575
   83SAPS  H20R 7828   5.282   5.436   7.974  0.7851  1.9270 -2.5856
   83SAPS  H20S 7829   5.325   5.268   7.910 -0.6225  0.1745 -0.4597
   83SAPS  H20T 7830   5.380   5.415   7.831 -1.0121 -0.3737 -0.8286
   83SAPS   C33 7831   5.425   5.271   9.882 -1.1792 -0.2145 -0.1216
   83SAPS   H3X 7832   5.421   5.262   9.993 -1.6995 -2.1175 -0.2556
   83SAPS   H3Y 7833   5.498   5.349   9.853 -0.1059 -1.2484 -0.3169
   83SAPS   C34 7834   5.472   5.141   9.820 -0.3757  0.2153 -0.8271
   83SAPS   H4X 7835   5.398   5.062   9.844  0.6884 -0.1195  1.7549
   83SAPS   H4Y 7836   5.564   5.097   9.866 -1.2450 -0.4016  0.3625
   83SAPS   C35 7837   5.497   5.134   9.666 -0.4503 -0.6089 -0.2862
   83SAPS   H5X 7838   5.587   5.195   9.644  0.7219 -1.4791  1.7615
   83SAPS   H5Y 7839   5.418   5.192   9.615 -1.0794 -0.4447  0.8440
   83SAPS   C36 7840   5.503   4.984   9.619  0.3424 -1.2096 -0.3445
   83SAPS   H6X 7841   5.401   4.945   9.639 -1.2552  1.4651 -2.4894
   83SAPS   H6Y 7842   5.569   4.925   9.686  0.5772 -0.6173 -0.0455
   83SAPS   C37 7843   5.542   4.960   9.469 -0.2889  0.4708 -0.2195
   83SAPS   H7X 7844   5.523   4.857   9.433  4.5833  0.3326 -3.3090
   83SAPS   H7Y 7845   5.649   4.987   9.452 -0.4667  0.8787 -0.7312
   83SAPS   C38 7846   5.465   5.049   9.368 -0.1739  0.1346 -1.2056
   83SAPS   H8X 7847   5.475   5.159   9.379 -2.2679  0.4269 -1.9092
   83SAPS   H8Y 7848   5.358   5.031   9.388  0.3873  0.1080  2.5067
   83SAPS   C39 7849   5.515   5.012   9.229 -0.3359  0.9335  0.4582
   83SAPS   H9X 7850   5.440   5.036   9.151  1.7888  1.0713 -1.6534
   83SAPS   H9Y 7851   5.521   4.901   9.222  0.4745  1.0757 -2.8991
   83SAPS  C310 7852   5.647   5.084   9.190  0.8810 -0.1984  0.0400
   83SAPS  H10X 7853   5.739   5.043   9.237  3.5910 -0.2877 -4.7588
   83SAPS  H10Y 7854   5.641   5.193   9.211  0.7505  0.3756 -2.6513
   83SAPS  C311 7855   5.674   5.075   9.044  0.7825  0.1550 -0.3886
   83SAPS  H11X 7856   5.578   5.087   8.991  1.1063  0.6571 -0.8731
   83SAPS  H11Y 7857   5.710   4.972   9.021 -1.4330 -0.6539 -0.4515
   83SAPS  C312 7858   5.771   5.174   8.975  0.5989 -0.0520 -0.0254
   83SAPS  H12X 7859   5.866   5.173   9.033  1.1517 -0.4405 -0.9171
   83SAPS  H12Y 7860   5.721   5.273   8.980 -0.7298 -0.6036 -1.5894
   83SAPS  C313 7861   5.801   5.125   8.834 -0.1932  0.2502 -0.2377
   83SAPS  H13X 7862   5.705   5.121   8.779 -0.7414  1.6425  0.5665
   83SAPS  H13Y 7863   5.846   5.023   8.834 -1.0565 -0.1402 -0.6224
   83SAPS  C314 7864   5.893   5.223   8.762  0.0877  0.0370 -0.3028
   83SAPS  H14X 7865   5.970   5.247   8.838 -1.1029  1.0585  0.6157
   83SAPS  H14Y 7866   5.851   5.322   8.735  1.8263  0.5305 -1.3801
   83SAPS  C315 7867   5.940   5.169   8.623 -0.5448  1.2688  0.5625
   83SAPS  H15X 7868   5.976   5.064   8.624 -0.0837  1.2051 -3.7985
   83SAPS  H15Y 7869   6.030   5.224   8.589  0.5604 -0.7219  0.0610
   83SAPS  C316 7870   5.832   5.183   8.525 -0.0584  0.0192 -0.3532
   83SAPS  H16X 7871   5.789   5.285   8.538 -1.9794 -0.4739 -2.1673
   83SAPS  H16Y 7872   5.752   5.110   8.549  2.1401 -2.2872  0.3371
   83SAPS  C317 7873   5.860   5.171   8.377 -0.0961 -0.1386 -0.1318
   83SAPS  H17X 7874   5.759   5.181   8.332 -1.2570 -0.6335  2.2042
   83SAPS  H17Y 7875   5.901   5.069   8.360  0.2111 -0.1116  0.4129
   83SAPS  C318 7876   5.962   5.265   8.324  0.0635 -1.5493 -0.6237
   83SAPS  H18X 7877   5.947   5.372   8.352  1.8785 -0.4424 -3.4164
   83SAPS  H18Y 7878   5.965   5.254   8.213 -0.7128  1.6889 -1.0630
   83SAPS  H18Z 7879   6.064   5.241   8.361  0.8823 -0.6841 -2.1972
   84SAPS     N 7880   0.040   2.656  10.257 -0.0525 -0.1090 -0.2467
   84SAPS   HN1 7881   0.122   2.664  10.320  1.4542  0.7794 -2.1996
   84SAPS   HN2 7882   0.010   2.559  10.233 -0.4852  0.6649 -3.2811
   84SAPS   HN3 7883   0.075   2.698  10.168  1.3638  0.2550  0.4531
   84SAPS   C12 7884  -0.077   2.732  10.297 -0.4519  0.0805 -0.5035
   84SAPS  H12A 7885  -0.138   2.750  10.209 -1.5076 -1.0772 -0.0472
   84SAPS   C13 7886  -0.166   2.673  10.418 -0.6320  0.7888  0.1560
   84SAPS  O13A 7887  -0.119   2.569  10.460  0.2261  0.2624  0.2489
   84SAPS  O13B 7888  -0.247   2.741  10.472 -0.0713 -0.2145  0.1388
   84SAPS   C11 7889  -0.022   2.868  10.354  1.2682 -0.0781  0.2674
   84SAPS  H11A 7890   0.015   2.857  10.458 -2.0853  1.9886  1.8581
   84SAPS  H11B 7891  -0.110   2.932  10.376  0.6256 -1.5133  2.0955
   84SAPS     P 7892   0.088   3.063  10.191  0.1639 -0.2017 -0.0776
   84SAPS   O13 7893  -0.041   3.088  10.122  0.5623  0.0505 -0.3911
   84SAPS   O14 7894   0.127   3.167  10.282  0.8132 -0.0064 -0.1667
   84SAPS   O12 7895   0.076   2.923  10.261 -0.0105 -0.2721  0.1033
   84SAPS   O11 7896   0.205   3.050  10.093  0.2057  0.5567 -0.2133
   84SAPS    C1 7897   0.234   2.938  10.007 -0.0704 -0.3425  0.6828
   84SAPS    HA 7898   0.241   2.849  10.073 -1.2699 -1.5958 -0.8041
   84SAPS    HB 7899   0.152   2.921   9.933 -0.0854  1.4329  0.2403
   84SAPS    C2 7900   0.374   2.943   9.928 -0.4598 -0.1772 -0.7407
   84SAPS    HS 7901   0.450   2.974  10.003  0.1257  0.1810 -1.4704
   84SAPS   O21 7902   0.362   3.027   9.813 -0.2389 -0.1838  0.0480
   84SAPS   C21 7903   0.424   3.138   9.825  0.6546 -0.2443  0.2634
   84SAPS   O22 7904   0.516   3.158   9.902  0.1601 -0.3931 -0.3599
   84SAPS   C22 7905   0.358   3.238   9.732 -0.1389 -0.0111 -0.1585
   84SAPS   H2R 7906   0.324   3.190   9.638 -1.3195 -0.3485  0.4198
   84SAPS   H2S 7907   0.259   3.262   9.776  0.0296 -1.1640  0.9217
   84SAPS    C3 7908   0.424   2.807   9.868 -0.1091  0.0766 -0.8858
   84SAPS    HX 7909   0.337   2.768   9.810  0.4729  1.2699 -2.6503
   84SAPS    HY 7910   0.450   2.747   9.958 -0.2979  1.4925  0.1346
   84SAPS   O31 7911   0.534   2.827   9.773  0.3425 -0.0705 -0.1357
   84SAPS   C31 7912   0.568   2.719   9.717  0.9174 -0.4800 -0.7703
   84SAPS   O32 7913   0.512   2.609   9.729  0.6608 -0.1372  0.7743
   84SAPS   C32 7914   0.688   2.743   9.638 -0.7571  0.4466  0.3016
   84SAPS   H2X 7915   0.778   2.742   9.703 -0.5019 -2.9230  0.0670
   84SAPS   H2Y 7916   0.686   2.840   9.584 -1.3457 -1.1185 -2.6518
   84SAPS   C23 7917   0.456   3.350   9.704  0.1108  0.7015  0.0898
   84SAPS   H3R 7918   0.524   3.374   9.788  0.5044  2.3434 -0.6590
   84SAPS   H3S 7919   0.392   3.434   9.669 -0.2098  0.4894  0.1685
   84SAPS   C24 7920   0.556   3.326   9.587  0.3393  0.6571  0.1902
   84SAPS   H4R 7921   0.494   3.280   9.507  1.2335 -1.9523  0.9030
   84SAPS   H4S 7922   0.635   3.255   9.619  1.5761  1.2746 -1.3238
   84SAPS   C25 7923   0.632   3.454   9.556  0.8059 -0.1230 -0.1597
   84SAPS   H5R 7924   0.624   3.541   9.624  1.9941  0.0941 -0.2809
   84SAPS   C26 7925   0.708   3.485   9.451 -0.4136  0.3162 -0.0945
   84SAPS   H6R 7926   0.752   3.586   9.443 -0.6877  0.6008  1.5434
   84SAPS   C27 7927   0.732   3.401   9.331  0.2068 -0.5234  0.4736
   84SAPS   H7R 7928   0.687   3.300   9.332 -1.7352  0.2561 -0.7172
   84SAPS   H7S 7929   0.842   3.393   9.339  0.2826  1.2512  1.8374
   84SAPS   C28 7930   0.699   3.478   9.200 -0.1175 -0.3807 -0.6716
   84SAPS   H8R 7931   0.629   3.562   9.207  1.4109  0.8676  0.2003
   84SAPS   C29 7932   0.716   3.429   9.076  0.1884 -0.0810 -0.2955
   84SAPS   H9R 7933   0.690   3.493   8.990 -0.1276 -0.8695 -0.8063
   84SAPS  C210 7934   0.805   3.310   9.040 -0.2150 -0.2974 -0.4697
   84SAPS  H10R 7935   0.827   3.236   9.119 -0.0724 -0.7950 -0.9715
   84SAPS  H10S 7936   0.902   3.348   9.002  0.2236 -1.7344 -0.8442
   84SAPS  C211 7937   0.740   3.228   8.932  1.4441  0.3423  0.6738
   84SAPS  H11R 7938   0.642   3.187   8.959  1.7999 -0.9324  0.1070
   84SAPS  C212 7939   0.788   3.211   8.806  0.1653  1.0702  0.5694
   84SAPS  H12R 7940   0.734   3.146   8.736  0.0860 -0.6350  2.1297
   84SAPS  C213 7941   0.933   3.246   8.765  0.6593  0.1643  0.0424
   84SAPS  H13R 7942   0.961   3.192   8.671  1.1479 -2.1283  1.4140
   84SAPS  H13S 7943   1.004   3.210   8.843  1.4788 -0.4781 -0.9671
   84SAPS  C214 7944   0.954   3.386   8.738 -0.4706 -0.4915 -0.2566
   84SAPS  H14R 7945   0.925   3.449   8.824 -0.8874  1.5885 -1.8558
   84SAPS  C215 7946   1.000   3.444   8.622 -0.0295  0.0682  0.5940
   84SAPS  H15R 7947   1.022   3.551   8.623  0.5999  0.0093 -1.7154
   84SAPS  C216 7948   1.061   3.360   8.511 -0.7433 -0.3318 -0.1540
   84SAPS  H16R 7949   1.112   3.275   8.560  2.7996  1.0022 -1.2438
   84SAPS  H16S 7950   1.145   3.413   8.462 -1.0161 -0.3307 -0.6335
   84SAPS  C217 7951   0.955   3.318   8.407  0.1452 -0.1846  0.1697
   84SAPS  H17R 7952   0.927   3.410   8.352  0.5082 -0.1834 -0.0135
   84SAPS  H17S 7953   0.871   3.282   8.471 -4.0216  0.9061 -4.1139
   84SAPS  C218 7954   0.996   3.213   8.303  0.5274  0.3911  0.3728
   84SAPS  H18R 7955   1.019   3.116   8.351  1.2038  1.0874  1.5010
   84SAPS  H18S 7956   1.089   3.245   8.250  1.0946 -2.3712 -0.4411
   84SAPS  C219 7957   0.900   3.199   8.179  0.6051 -0.6010 -0.4753
   84SAPS  H19R 7958   0.896   3.298   8.130  0.9109  0.9208  2.3783
   84SAPS  H19S 7959   0.796   3.175   8.210 -0.3380  2.6613 -0.7250
   84SAPS  C220 7960   0.955   3.094   8.086  0.2135  0.3743 -0.2846
   84SAPS  H20R 7961   0.882   3.049   8.014 -1.0600  0.9635  0.5905
   84SAPS  H20S 7962   1.000   3.009   8.141  1.6643  0.0095 -1.9451
   84SAPS  H20T 7963   1.030   3.143   8.020 -0.1455 -0.7961 -1.6340
   84SAPS   C33 7964   0.706   2.635   9.522  0.0737 -0.0295  0.3939
   84SAPS   H3X 7965   0.688   2.535   9.567 -2.4030  0.5302  0.8272
   84SAPS   H3Y 7966   0.812   2.642   9.492  0.0257  1.4920  0.5120
   84SAPS   C34 7967   0.621   2.649   9.398 -0.6053  0.4241 -0.9343
   84SAPS   H4X 7968   0.530   2.706   9.423 -0.3638  1.4491 -2.2777
   84SAPS   H4Y 7969   0.579   2.554   9.356 -1.6267  1.3806 -2.1688
   84SAPS   C35 7970   0.689   2.717   9.280  0.4854 -0.2956 -0.3493
   84SAPS   H5X 7971   0.792   2.676   9.272  1.3369  1.9428 -1.5891
   84SAPS   H5Y 7972   0.699   2.827   9.294 -0.3098 -0.1015 -1.1860
   84SAPS   C36 7973   0.616   2.711   9.149  0.1997 -0.1134 -0.1111
   84SAPS   H6X 7974   0.517   2.757   9.165  0.5815  0.9943 -0.8430
   84SAPS   H6Y 7975   0.606   2.606   9.113  4.1362 -0.7654  0.1839
   84SAPS   C37 7976   0.680   2.799   9.041 -0.2652 -0.5267  0.7274
   84SAPS   H7X 7977   0.788   2.784   9.063 -0.2844 -0.4109  0.9011
   84SAPS   H7Y 7978   0.653   2.906   9.056 -0.2980 -0.1530 -1.6080
   84SAPS   C38 7979   0.650   2.772   8.899  0.2256 -0.5575 -0.6161
   84SAPS   H8X 7980   0.550   2.814   8.874 -0.2143 -0.3298  1.4082
   84SAPS   H8Y 7981   0.640   2.663   8.880  2.8193 -1.1981  1.1421
   84SAPS   C39 7982   0.762   2.830   8.813 -0.0164 -0.4300  0.2753
   84SAPS   H9X 7983   0.847   2.758   8.818 -0.3881 -0.7755  2.6265
   84SAPS   H9Y 7984   0.796   2.928   8.852  0.5766 -0.0977 -0.9952
   84SAPS  C310 7985   0.714   2.862   8.673 -0.1361 -0.7716 -0.7451
   84SAPS  H10X 7986   0.805   2.886   8.615  0.4878 -0.0788  0.4689
   84SAPS  H10Y 7987   0.646   2.950   8.675 -0.2569 -0.8503  1.1291
   84SAPS  C311 7988   0.654   2.748   8.592  0.0470 -0.1095  0.0099
   84SAPS  H11X 7989   0.571   2.696   8.645 -0.5182  1.3400  0.6094
   84SAPS  H11Y 7990   0.729   2.668   8.571 -0.1692  0.2742 -2.6411
   84SAPS  C312 7991   0.593   2.803   8.466  1.2460  0.1309 -0.6318
   84SAPS  H12X 7992   0.502   2.855   8.501 -0.1462 -2.6051  0.1306
   84SAPS  H12Y 7993   0.553   2.723   8.400  0.6727 -1.9375  2.0394
   84SAPS  C313 7994   0.686   2.883   8.378 -0.1419 -0.6327  0.0315
   84SAPS  H13X 7995   0.734   2.975   8.417  2.2970 -0.8545 -2.1531
   84SAPS  H13Y 7996   0.631   2.915   8.287  0.4469 -0.7591 -0.3728
   84SAPS  C314 7997   0.802   2.794   8.327  0.2213  0.1685  0.6401
   84SAPS  H14X 7998   0.864   2.753   8.409 -1.2283  0.8595  2.1586
   84SAPS  H14Y 7999   0.871   2.855   8.265  1.1157 -0.6631  0.8059
   84SAPS  C315 8000   0.765   2.681   8.233 -0.3854 -0.3258  0.0411
   84SAPS  H15X 8001   0.687   2.718   8.163 -1.7070 -0.4110  1.4133
   84SAPS  H15Y 8002   0.704   2.611   8.293  0.1988 -0.2616  0.7236
   84SAPS  C316 8003   0.897   2.621   8.174  0.5312  0.4789  0.0373
   84SAPS  H16X 8004   0.963   2.569   8.248  3.8988  1.2382 -2.2005
   84SAPS  H16Y 8005   0.966   2.699   8.136 -1.2043  2.8282  1.4587
   84SAPS  C317 8006   0.865   2.521   8.065  0.2036  0.1705 -0.6329
   84SAPS  H17X 8007   0.823   2.577   7.979  2.1725  2.2384 -0.3370
   84SAPS  H17Y 8008   0.779   2.461   8.103 -0.4489  0.4339 -1.6394
   84SAPS  C318 8009   0.979   2.424   8.014  0.1131 -0.1071  0.0596
   84SAPS  H18X 8010   1.070   2.487   8.002  1.3876 -1.3341  2.5696
   84SAPS  H18Y 8011   0.946   2.375   7.919  0.4238 -0.4258  0.1165
   84SAPS  H18Z 8012   1.000   2.337   8.079  1.2770  0.6860  0.7781
   85SAPS     N 8013   3.697   5.735  10.385 -0.3756  0.4621  1.0480
   85SAPS   HN1 8014   3.734   5.821  10.341 -2.1727  0.5305 -0.4276
   85SAPS   HN2 8015   3.652   5.777  10.469  2.7392  1.4628  2.3733
   85SAPS   HN3 8016   3.775   5.674  10.419  0.2480 -1.0780 -2.7342
   85SAPS   C12 8017   3.618   5.661  10.277  0.5443 -0.4060 -0.1189
   85SAPS  H12A 8018   3.685   5.635  10.196 -1.2003 -0.2739 -1.6487
   85SAPS   C13 8019   3.560   5.532  10.317  0.0666 -0.4740  0.7522
   85SAPS  O13A 8020   3.577   5.482  10.434 -0.5525 -0.7175 -0.0480
   85SAPS  O13B 8021   3.495   5.473  10.225  0.3686  0.1789 -0.3987
   85SAPS   C11 8022   3.522   5.764  10.221  0.1779  0.6236  0.0479
   85SAPS  H11A 8023   3.449   5.781  10.303 -0.6139 -3.1892  0.3330
   85SAPS  H11B 8024   3.465   5.709  10.143  1.1176  0.8852 -0.8499
   85SAPS     P 8025   3.493   6.010  10.143  0.1058  0.1160 -0.0433
   85SAPS   O13 8026   3.351   5.978  10.170  0.4485 -0.2127  0.3551
   85SAPS   O14 8027   3.545   6.128  10.211 -0.4701  0.3123 -0.3848
   85SAPS   O12 8028   3.588   5.885  10.178 -0.0202  0.3318  0.5356
   85SAPS   O11 8029   3.510   6.033   9.986 -0.3987  0.2345  0.0470
   85SAPS    C1 8030   3.619   5.965   9.917 -0.7725  0.7050  0.0891
   85SAPS    HA 8031   3.716   5.969   9.972 -1.7223 -1.0499  2.0389
   85SAPS    HB 8032   3.599   5.856   9.913 -0.5286  0.7011 -1.3539
   85SAPS    C2 8033   3.642   6.009   9.770  0.2961  0.4041 -0.1231
   85SAPS    HS 8034   3.743   5.978   9.737  0.4256  0.5943  0.0855
   85SAPS   O21 8035   3.611   6.150   9.772  0.1179  0.3768  0.2042
   85SAPS   C21 8036   3.705   6.227   9.819 -0.5769  0.2758 -0.1006
   85SAPS   O22 8037   3.816   6.187   9.847 -0.5171 -0.0299  0.4284
   85SAPS   C22 8038   3.670   6.374   9.832  0.5027  0.1363 -0.2614
   85SAPS   H2R 8039   3.590   6.382   9.908  0.3302 -0.2548 -0.3988
   85SAPS   H2S 8040   3.761   6.423   9.873 -1.0901  1.2606  2.1596
   85SAPS    C3 8041   3.548   5.939   9.670 -0.4766  1.0309 -0.6440
   85SAPS    HX 8042   3.566   5.975   9.566  1.4651  0.7591 -0.4525
   85SAPS    HY 8043   3.444   5.962   9.701 -1.1671 -2.5835  0.0610
   85SAPS   O31 8044   3.567   5.797   9.660  0.4705  0.4090 -0.8249
   85SAPS   C31 8045   3.463   5.736   9.603  1.5001 -0.0184  0.6532
   85SAPS   O32 8046   3.364   5.800   9.568 -0.4717 -0.3141 -0.4413
   85SAPS   C32 8047   3.501   5.588   9.578  0.2225  0.2742  0.0692
   85SAPS   H2X 8048   3.421   5.520   9.616 -1.6212  1.6609 -1.1246
   85SAPS   H2Y 8049   3.590   5.573   9.642 -0.0475  0.7055  0.5535
   85SAPS   C23 8050   3.606   6.447   9.705 -0.4665  0.5444 -0.0603
   85SAPS   H3R 8051   3.690   6.441   9.633  0.7217  3.3474  0.9234
   85SAPS   H3S 8052   3.600   6.556   9.728 -0.5320  0.4860  0.2089
   85SAPS   C24 8053   3.473   6.403   9.656 -0.5022  0.7020  0.2594
   85SAPS   H4R 8054   3.404   6.433   9.738 -1.0187  0.1812  0.0257
   85SAPS   H4S 8055   3.457   6.293   9.645  1.4077  0.6208 -2.6427
   85SAPS   C25 8056   3.435   6.479   9.526 -0.5927 -0.4615 -0.1939
   85SAPS   H5R 8057   3.421   6.587   9.539 -0.4407 -0.6348  1.6486
   85SAPS   C26 8058   3.432   6.432   9.400  0.1526 -0.2513 -0.7248
   85SAPS   H6R 8059   3.403   6.496   9.316  1.4802 -0.1441 -1.1142
   85SAPS   C27 8060   3.462   6.287   9.357  0.2512  0.0270 -0.2258
   85SAPS   H7R 8061   3.539   6.238   9.421  1.2862 -0.1180 -1.5256
   85SAPS   H7S 8062   3.515   6.293   9.259  0.5013 -0.0087 -0.0945
   85SAPS   C28 8063   3.339   6.205   9.343  0.5389  0.2901 -0.2896
   85SAPS   H8R 8064   3.245   6.247   9.381  0.7390 -1.5691  2.5501
   85SAPS   C29 8065   3.325   6.097   9.264 -0.5694  0.5369  0.0452
   85SAPS   H9R 8066   3.226   6.053   9.244 -0.9904  1.9086 -1.0596
   85SAPS  C210 8067   3.438   6.040   9.176  0.2622  0.2482 -0.7547
   85SAPS  H10R 8068   3.530   6.100   9.190  0.6563 -0.0704 -1.8975
   85SAPS  H10S 8069   3.413   6.061   9.070  0.4661 -1.0108 -1.0714
   85SAPS  C211 8070   3.469   5.892   9.207 -0.5269  0.3451  0.3415
   85SAPS  H11R 8071   3.506   5.866   9.308 -0.9718  1.0857  0.7007
   85SAPS  C212 8072   3.408   5.791   9.136  0.5601  0.8980  0.0448
   85SAPS  H12R 8073   3.421   5.687   9.171 -0.7858  0.2883 -1.1745
   85SAPS  C213 8074   3.329   5.797   9.009  0.1911  0.1318  0.3640
   85SAPS  H13R 8075   3.375   5.732   8.931  2.1674  2.6643 -0.7464
   85SAPS  H13S 8076   3.338   5.900   8.967  0.9380  1.1155  2.7376
   85SAPS  C214 8077   3.186   5.760   9.035  0.0722  0.2744  0.2106
   85SAPS  H14R 8078   3.166   5.666   9.088 -0.8922  1.5073  2.1489
   85SAPS  C215 8079   3.078   5.836   9.015  0.9410 -0.8796 -0.1343
   85SAPS  H15R 8080   2.979   5.796   9.040  0.8632 -0.3262  0.4682
   85SAPS  C216 8081   3.071   5.974   8.953 -0.5497 -0.1689 -0.0590
   85SAPS  H16R 8082   3.145   5.991   8.872 -1.1346  2.4812 -0.1525
   85SAPS  H16S 8083   3.093   6.051   9.030 -1.0933 -0.5813  0.5250
   85SAPS  C217 8084   2.940   6.008   8.889  0.8097 -0.5585 -0.1017
   85SAPS  H17R 8085   2.900   5.910   8.854 -1.7515 -0.8409  3.0358
   85SAPS  H17S 8086   2.965   6.066   8.798 -0.2840  0.5906  0.3074
   85SAPS  C218 8087   2.833   6.065   8.980  0.3629  0.3426 -0.4492
   85SAPS  H18R 8088   2.858   6.170   9.006  1.0923  0.1011 -0.1571
   85SAPS  H18S 8089   2.827   6.007   9.074  2.5224 -0.9377 -1.0192
   85SAPS  C219 8090   2.693   6.064   8.924  1.1467  0.5686 -0.3193
   85SAPS  H19R 8091   2.623   6.105   9.000 -0.0297 -0.7986 -0.6233
   85SAPS  H19S 8092   2.657   5.961   8.904 -0.4102  0.0141  4.1914
   85SAPS  C220 8093   2.677   6.148   8.799  0.3432 -0.2826  0.1504
   85SAPS  H20R 8094   2.740   6.099   8.722  0.2205 -0.7985  0.3721
   85SAPS  H20S 8095   2.722   6.246   8.824  2.2838 -0.9350 -0.5803
   85SAPS  H20T 8096   2.573   6.165   8.764  0.2766  2.5459  1.4757
   85SAPS   C33 8097   3.532   5.572   9.430 -0.7194  0.5074 -0.4197
   85SAPS   H3X 8098   3.597   5.659   9.405 -0.1010  0.1668 -0.0461
   85SAPS   H3Y 8099   3.441   5.577   9.367 -3.7269 -0.8865  3.4433
   85SAPS   C34 8100   3.620   5.449   9.404  0.3507 -0.5709 -0.0426
   85SAPS   H4X 8101   3.570   5.359   9.444 -0.6558 -0.0264 -0.0515
   85SAPS   H4Y 8102   3.708   5.465   9.470 -0.1835 -0.8509  0.7419
   85SAPS   C35 8103   3.680   5.426   9.269  0.0621 -0.2438 -0.2398
   85SAPS   H5X 8104   3.745   5.337   9.280  0.9583  0.6387  2.3974
   85SAPS   H5Y 8105   3.749   5.511   9.250 -1.1808  0.5451 -1.4410
   85SAPS   C36 8106   3.589   5.406   9.154  0.3735 -0.3035  1.0104
   85SAPS   H6X 8107   3.532   5.500   9.135 -0.1267 -0.6676  0.6868
   85SAPS   H6Y 8108   3.516   5.325   9.177  0.3070 -0.2211  1.0906
   85SAPS   C37 8109   3.668   5.356   9.028  0.1346 -0.1389  0.1001
   85SAPS   H7X 8110   3.726   5.264   9.048 -2.0236 -1.3485  1.1638
   85SAPS   H7Y 8111   3.754   5.426   9.016 -0.2515  0.0882 -1.6936
   85SAPS   C38 8112   3.586   5.327   8.903 -0.6924  0.3879 -0.0794
   85SAPS   H8X 8113   3.521   5.243   8.933  1.5923 -1.1835  0.7232
   85SAPS   H8Y 8114   3.646   5.310   8.811 -2.1808 -0.2446 -0.9650
   85SAPS   C39 8115   3.497   5.447   8.856 -0.6159  0.5107  0.7745
   85SAPS   H9X 8116   3.443   5.489   8.943 -0.1122 -0.1686  1.4267
   85SAPS   H9Y 8117   3.422   5.398   8.790  1.3051  1.1340 -2.0687
   85SAPS  C310 8118   3.574   5.551   8.783 -0.8511 -0.2092  0.3974
   85SAPS  H10X 8119   3.679   5.550   8.819 -0.7410 -0.7564  0.0684
   85SAPS  H10Y 8120   3.525   5.650   8.797  0.2070  0.2383  1.0455
   85SAPS  C311 8121   3.572   5.525   8.633  0.2401 -0.3361 -0.1814
   85SAPS  H11X 8122   3.466   5.514   8.603  0.1143 -1.8758  0.7471
   85SAPS  H11Y 8123   3.628   5.430   8.621  1.6115  0.4557 -0.3898
   85SAPS  C312 8124   3.655   5.633   8.560  0.7680  0.1324 -0.0732
   85SAPS  H12X 8125   3.757   5.612   8.599 -0.2499 -0.3563  2.5211
   85SAPS  H12Y 8126   3.629   5.740   8.576  1.5747  0.7337 -2.3640
   85SAPS  C313 8127   3.662   5.608   8.408 -0.1270 -0.4129  0.5124
   85SAPS  H13X 8128   3.568   5.558   8.373  0.2391 -1.2269  0.6670
   85SAPS  H13Y 8129   3.748   5.544   8.379  1.9427  1.4278  2.2000
   85SAPS  C314 8130   3.676   5.736   8.321 -0.4933 -0.1985  0.0779
   85SAPS  H14X 8131   3.761   5.796   8.359  0.3255 -0.8285 -0.7164
   85SAPS  H14Y 8132   3.581   5.791   8.338  0.1522  1.1500 -0.4919
   85SAPS  C315 8133   3.696   5.698   8.165 -0.6186 -0.3258 -1.0822
   85SAPS  H15X 8134   3.797   5.656   8.146 -0.8453 -0.4987 -1.9745
   85SAPS  H15Y 8135   3.696   5.795   8.111  1.0088 -0.8047 -2.0006
   85SAPS  C316 8136   3.596   5.608   8.097  1.4017 -0.2162 -0.4277
   85SAPS  H16X 8137   3.496   5.652   8.120  1.9723  0.0414  1.7454
   85SAPS  H16Y 8138   3.608   5.508   8.145  2.2603  0.1088  0.0374
   85SAPS  C317 8139   3.612   5.575   7.947  0.3089  0.5063  0.1376
   85SAPS  H17X 8140   3.719   5.549   7.932  0.2742 -0.6158  1.5964
   85SAPS  H17Y 8141   3.593   5.657   7.875 -0.2541  1.5230  1.4108
   85SAPS  C318 8142   3.527   5.451   7.908 -0.1086 -0.3990  0.0447
   85SAPS  H18X 8143   3.422   5.475   7.937 -0.8524 -2.3335 -0.8142
   85SAPS  H18Y 8144   3.565   5.362   7.963  2.1831  0.9237  0.7265
   85SAPS  H18Z 8145   3.520   5.429   7.799  1.0362 -0.3875 -0.0392
   86SAPS     N 8146   5.387   1.261  10.659 -0.1398  0.2805  0.6990
   86SAPS   HN1 8147   5.363   1.298  10.753  0.5584 -1.4105  1.5812
   86SAPS   HN2 8148   5.347   1.165  10.658  0.1680  0.1520  0.6383
   86SAPS   HN3 8149   5.490   1.255  10.644 -0.4031 -0.0012 -1.3544
   86SAPS   C12 8150   5.323   1.348  10.554  0.3197  0.9416 -0.5546
   86SAPS  H12A 8151   5.354   1.311  10.458  0.5887 -0.0110 -0.1084
   86SAPS   C13 8152   5.169   1.337  10.560  0.3548 -0.2523  0.1512
   86SAPS  O13A 8153   5.123   1.259  10.647 -0.6989 -0.6432 -0.4119
   86SAPS  O13B 8154   5.093   1.400  10.483 -0.3909  0.1403 -0.6531
   86SAPS   C11 8155   5.360   1.494  10.575  0.9135  0.5314  0.9030
   86SAPS  H11A 8156   5.307   1.537  10.663 -0.6335  1.2663 -0.3433
   86SAPS  H11B 8157   5.327   1.553  10.487  0.0968 -1.8266 -0.4626
   86SAPS     P 8158   5.602   1.556  10.502 -0.2613 -0.2506 -0.1188
   86SAPS   O13 8159   5.595   1.707  10.492 -0.8404  0.5859 -0.2323
   86SAPS   O14 8160   5.734   1.500  10.535  0.3742  0.0518 -0.1994
   86SAPS   O12 8161   5.496   1.504  10.603  0.1962 -0.3342  0.0096
   86SAPS   O11 8162   5.555   1.490  10.371  0.6118 -0.2298  0.1446
   86SAPS    C1 8163   5.623   1.489  10.251 -0.1835 -0.3399  0.3329
   86SAPS    HA 8164   5.647   1.592  10.217  1.6677 -1.3021 -1.4624
   86SAPS    HB 8165   5.719   1.437  10.272 -1.1253 -1.0920  3.4158
   86SAPS    C2 8166   5.541   1.428  10.137 -0.3536 -0.4712 -0.7032
   86SAPS    HS 8167   5.525   1.319  10.154  0.5592 -0.6572 -0.9682
   86SAPS   O21 8168   5.594   1.457  10.003 -0.0217  0.5385  0.2968
   86SAPS   C21 8169   5.697   1.377   9.963  0.2165  0.0325 -0.1013
   86SAPS   O22 8170   5.754   1.291  10.032 -0.5104  0.0218 -0.4561
   86SAPS   C22 8171   5.734   1.426   9.828 -0.2996  0.3495 -0.6983
   86SAPS   H2R 8172   5.645   1.409   9.764  0.6053  0.3022 -1.9716
   86SAPS   H2S 8173   5.766   1.533   9.833 -2.1355  1.0792 -2.9160
   86SAPS    C3 8174   5.400   1.491  10.139 -0.2493  0.0134 -0.0993
   86SAPS    HX 8175   5.391   1.599  10.119 -2.1907  0.1660  1.2855
   86SAPS    HY 8176   5.360   1.485  10.243  0.7613  0.1136  0.2986
   86SAPS   O31 8177   5.310   1.413  10.055 -0.1223 -0.0510 -0.2326
   86SAPS   C31 8178   5.286   1.453   9.940  0.2347  0.0250  0.1068
   86SAPS   O32 8179   5.328   1.551   9.888 -0.0531 -0.5565  0.5553
   86SAPS   C32 8180   5.188   1.353   9.890  1.4132  0.0221  0.8141
   86SAPS   H2X 8181   5.096   1.340   9.951  0.9344  1.7899  0.5237
   86SAPS   H2Y 8182   5.245   1.257   9.893 -0.9301 -1.5263 -1.1088
   86SAPS   C23 8183   5.851   1.344   9.774  0.4228  0.2316  0.1887
   86SAPS   H3R 8184   5.835   1.235   9.792 -1.3711  0.3363 -0.5199
   86SAPS   H3S 8185   5.946   1.378   9.820 -0.8131  0.9969  2.3070
   86SAPS   C24 8186   5.857   1.354   9.619 -0.0713  0.0829 -0.2064
   86SAPS   H4R 8187   5.838   1.459   9.587 -2.0463 -0.3658 -0.6479
   86SAPS   H4S 8188   5.768   1.317   9.565 -0.3881 -0.8322  0.9082
   86SAPS   C25 8189   5.979   1.289   9.559  0.8347 -0.6566  0.0708
   86SAPS   H5R 8190   6.072   1.303   9.616  0.0816 -0.4935  1.2980
   86SAPS   C26 8191   5.981   1.240   9.433 -0.1417  0.0782 -0.2255
   86SAPS   H6R 8192   6.074   1.193   9.396  0.1165  0.4703 -0.0813
   86SAPS   C27 8193   5.863   1.235   9.341  0.5200 -0.1359 -0.3201
   86SAPS   H7R 8194   5.786   1.312   9.362  0.6826 -0.0739  0.0620
   86SAPS   H7S 8195   5.802   1.143   9.356  0.8987 -0.2694  0.4741
   86SAPS   C28 8196   5.900   1.260   9.193  0.3991 -0.3677 -0.2259
   86SAPS   H8R 8197   5.924   1.366   9.173  0.3503 -0.4773 -0.9055
   86SAPS   C29 8198   5.938   1.175   9.096  0.1327  0.4942 -0.1767
   86SAPS   H9R 8199   5.966   1.211   8.996  0.4845 -0.3929 -0.4094
   86SAPS  C210 8200   5.941   1.024   9.104  0.0880  0.3721 -0.2252
   86SAPS  H10R 8201   5.908   0.976   9.009 -0.7764 -1.0277  0.7401
   86SAPS  H10S 8202   5.861   0.996   9.177  1.6935 -3.2521  0.3953
   86SAPS  C211 8203   6.065   0.951   9.143 -0.9942  1.2224  0.2944
   86SAPS  H11R 8204   6.062   0.868   9.215  1.7672 -1.0630 -1.9862
   86SAPS  C212 8205   6.186   0.978   9.097 -0.3876 -0.2003  0.3991
   86SAPS  H12R 8206   6.270   0.913   9.127 -1.5124 -1.7519  0.2926
   86SAPS  C213 8207   6.228   1.066   8.982 -0.3244  0.0999 -0.1910
   86SAPS  H13R 8208   6.150   1.082   8.904  1.0919 -1.6479 -2.0821
   86SAPS  H13S 8209   6.303   1.004   8.928 -0.6071 -1.1098  0.7579
   86SAPS  C214 8210   6.288   1.204   9.012 -0.2681 -0.4983  0.3163
   86SAPS  H14R 8211   6.224   1.257   9.085 -1.1166  1.9558 -2.0546
   86SAPS  C215 8212   6.385   1.273   8.953  0.7720  0.0582  0.4207
   86SAPS  H15R 8213   6.398   1.380   8.976 -1.7438 -0.1547  3.4973
   86SAPS  C216 8214   6.474   1.218   8.839 -0.2178  0.0806  0.7762
   86SAPS  H16R 8215   6.487   1.107   8.839 -0.2640  0.0697  0.0668
   86SAPS  H16S 8216   6.581   1.246   8.846  0.2479 -1.4508  0.2980
   86SAPS  C217 8217   6.439   1.271   8.695  0.4852 -0.1697 -0.7698
   86SAPS  H17R 8218   6.463   1.380   8.688 -0.1521  0.0015 -0.3951
   86SAPS  H17S 8219   6.330   1.260   8.680 -0.4424  1.6958  3.2235
   86SAPS  C218 8220   6.512   1.192   8.576 -0.3156  1.0501  0.0684
   86SAPS  H18R 8221   6.510   1.086   8.608  1.5747  1.1011  0.4674
   86SAPS  H18S 8222   6.618   1.225   8.565 -0.6727  3.0210  1.9378
   86SAPS  C219 8223   6.445   1.218   8.441 -0.0842 -0.4306 -0.2482
   86SAPS  H19R 8224   6.335   1.203   8.447 -0.2103  0.6802  0.6475
   86SAPS  H19S 8225   6.478   1.143   8.367 -2.0326 -3.1302  1.4396
   86SAPS  C220 8226   6.477   1.361   8.381  0.5917  0.4695  0.5673
   86SAPS  H20R 8227   6.421   1.393   8.290 -1.1302 -0.9783  1.0515
   86SAPS  H20S 8228   6.586   1.380   8.373  0.4229  0.8635 -0.9931
   86SAPS  H20T 8229   6.434   1.435   8.453 -0.6438 -0.1546  0.5065
   86SAPS   C33 8230   5.142   1.382   9.749 -0.7043 -0.0347 -0.0013
   86SAPS   H3X 8231   5.229   1.381   9.681 -0.2640 -0.8848  0.5638
   86SAPS   H3Y 8232   5.098   1.484   9.744 -1.3795 -0.3629 -1.0595
   86SAPS   C34 8233   5.033   1.292   9.704 -0.1659  0.3553 -0.4592
   86SAPS   H4X 8234   4.950   1.303   9.776  2.4814  1.7156  2.6622
   86SAPS   H4Y 8235   5.069   1.187   9.712 -4.6331 -1.3403 -0.2236
   86SAPS   C35 8236   4.970   1.324   9.562  0.3709 -0.2123  0.6076
   86SAPS   H5X 8237   4.939   1.430   9.569 -2.2903 -1.0042  2.6884
   86SAPS   H5Y 8238   4.871   1.274   9.551  2.0265 -3.8345  0.8693
   86SAPS   C36 8239   5.073   1.285   9.452  1.1546  0.0882 -0.1923
   86SAPS   H6X 8240   5.087   1.177   9.474 -1.2788 -0.1433  0.5714
   86SAPS   H6Y 8241   5.165   1.345   9.466  0.0958  1.9311 -0.8142
   86SAPS   C37 8242   5.030   1.305   9.304  0.2441  0.0867  0.0055
   86SAPS   H7X 8243   4.946   1.235   9.286 -0.3091 -1.1729  5.5097
   86SAPS   H7Y 8244   5.112   1.285   9.232 -0.1850  1.6391 -0.9397
   86SAPS   C38 8245   4.976   1.443   9.277 -0.2483 -0.2305  0.5854
   86SAPS   H8X 8246   5.049   1.515   9.320 -0.4783  0.1318  0.3850
   86SAPS   H8Y 8247   4.875   1.465   9.318 -0.3999  0.3686 -0.0923
   86SAPS   C39 8248   4.939   1.462   9.130  0.3220 -0.9346 -0.5379
   86SAPS   H9X 8249   4.857   1.392   9.102 -0.3194 -0.3703 -0.0868
   86SAPS   H9Y 8250   5.033   1.438   9.075  0.8703 -1.9134  0.7884
   86SAPS  C310 8251   4.874   1.594   9.087  0.4601 -0.4340  0.2209
   86SAPS  H10X 8252   4.937   1.685   9.101  0.8845 -0.8855  1.3898
   86SAPS  H10Y 8253   4.775   1.613   9.134 -0.3125 -0.7905 -1.2072
   86SAPS  C311 8254   4.833   1.601   8.934 -0.6178 -0.8871  0.3473
   86SAPS  H11X 8255   4.781   1.507   8.906 -1.0957 -0.1325 -1.3796
   86SAPS  H11Y 8256   4.931   1.595   8.882 -1.2394 -1.4117 -0.8032
   86SAPS  C312 8257   4.746   1.720   8.886  0.1599 -0.4384  0.0913
   86SAPS  H12X 8258   4.806   1.812   8.902 -1.9379  0.7197  1.7159
   86SAPS  H12Y 8259   4.652   1.726   8.945  0.8473 -2.6470  1.5182
   86SAPS  C313 8260   4.707   1.702   8.740  0.1259  0.1638 -0.6089
   86SAPS  H13X 8261   4.669   1.600   8.720 -1.8401  0.8067 -0.2807
   86SAPS  H13Y 8262   4.793   1.721   8.672  1.8790  1.5134  1.8287
   86SAPS  C314 8263   4.600   1.808   8.701 -0.6567 -0.0665  0.1282
   86SAPS  H14X 8264   4.665   1.895   8.677 -1.7783 -0.2742 -4.7180
   86SAPS  H14Y 8265   4.542   1.857   8.783 -0.4975  0.3517 -0.0050
   86SAPS  C315 8266   4.536   1.781   8.562  0.9494 -0.0749 -0.5494
   86SAPS  H15X 8267   4.462   1.861   8.539 -1.2688 -1.5527  1.0960
   86SAPS  H15Y 8268   4.471   1.692   8.560 -1.3694  1.5364 -0.5464
   86SAPS  C316 8269   4.632   1.758   8.450  0.0955 -0.5307 -0.4606
   86SAPS  H16X 8270   4.679   1.658   8.465  0.4348 -0.2220  0.6542
   86SAPS  H16Y 8271   4.713   1.833   8.458  1.4043 -1.8323 -1.1160
   86SAPS  C317 8272   4.569   1.753   8.306  0.5064  0.0768 -0.5640
   86SAPS  H17X 8273   4.541   1.858   8.280 -1.7864 -0.5135 -0.7507
   86SAPS  H17Y 8274   4.471   1.700   8.315  0.2775  0.7299  1.2543
   86SAPS  C318 8275   4.649   1.691   8.198  0.1175  0.1815 -0.4484
   86SAPS  H18X 8276   4.590   1.671   8.106 -1.0824  4.3092 -0.7822
   86SAPS  H18Y 8277   4.680   1.591   8.235  1.3705  1.0395  0.9636
   86SAPS  H18Z 8278   4.733   1.759   8.167 -0.4606  1.0106 -0.2328
   87SAPS     N 8279   6.375   4.788  10.426  0.1220 -0.6119  0.3035
   87SAPS   HN1 8280   6.377   4.854  10.506 -1.0894 -0.1321 -0.0326
   87SAPS   HN2 8281   6.337   4.696  10.458 -3.5782  0.6869  0.1048
   87SAPS   HN3 8282   6.470   4.781  10.384  0.4814  1.8447  0.5802
   87SAPS   C12 8283   6.277   4.854  10.330  0.3937  0.1932 -0.1714
   87SAPS  H12A 8284   6.303   4.828  10.229 -1.6383  0.1301 -0.7188
   87SAPS   C13 8285   6.135   4.801  10.368 -0.4512 -0.3440  0.1006
   87SAPS  O13A 8286   6.119   4.728  10.468 -0.1958  0.0196 -0.1051
   87SAPS  O13B 8287   6.043   4.809  10.284 -0.4300 -0.1221 -0.1906
   87SAPS   C11 8288   6.269   5.014  10.352 -0.4236 -0.2627  0.3717
   87SAPS  H11A 8289   6.227   5.025  10.455 -1.0508 -1.1068  0.2240
   87SAPS  H11B 8290   6.187   5.065  10.298 -1.1654 -2.6843 -0.9364
   87SAPS     P 8291   6.450   5.122  10.190  0.2460  0.0329  0.1052
   87SAPS   O13 8292   6.551   5.227  10.217  0.0439  0.2220  0.2916
   87SAPS   O14 8293   6.493   5.007  10.108 -0.3161 -0.2832 -0.1804
   87SAPS   O12 8294   6.402   5.075  10.332  0.4119  0.3546  0.2533
   87SAPS   O11 8295   6.322   5.196  10.127 -0.4238 -0.2712  0.0157
   87SAPS    C1 8296   6.229   5.126  10.048  0.7704 -0.2483 -0.2624
   87SAPS    HA 8297   6.240   5.017  10.064 -1.5049 -0.2863  1.6704
   87SAPS    HB 8298   6.124   5.154  10.074  0.4854 -0.4055 -1.1979
   87SAPS    C2 8299   6.259   5.153   9.896 -0.1457  0.7890 -0.1240
   87SAPS    HS 8300   6.368   5.138   9.882  0.2260  1.5822  1.6965
   87SAPS   O21 8301   6.215   5.279   9.855  0.0281  1.0469  0.4070
   87SAPS   C21 8302   6.282   5.337   9.754 -0.6276  1.0437 -0.1202
   87SAPS   O22 8303   6.388   5.300   9.709 -0.5367 -0.2202 -0.6650
   87SAPS   C22 8304   6.216   5.470   9.716 -0.4100  0.0462 -0.8520
   87SAPS   H2R 8305   6.105   5.472   9.724 -0.3074  1.7540  1.1287
   87SAPS   H2S 8306   6.251   5.547   9.788 -1.5504  0.8781 -1.1495
   87SAPS    C3 8307   6.187   5.044   9.818  0.2633 -0.4834  1.1171
   87SAPS    HX 8308   6.080   5.040   9.849 -0.9289  1.8353 -2.1985
   87SAPS    HY 8309   6.225   4.944   9.849 -1.4091 -1.0067  1.5978
   87SAPS   O31 8310   6.201   5.061   9.671 -0.0879  0.2482 -0.5543
   87SAPS   C31 8311   6.314   5.008   9.619 -0.6058  0.3927  0.2002
   87SAPS   O32 8312   6.399   4.948   9.683 -0.3489 -0.6511  0.1110
   87SAPS   C32 8313   6.318   5.025   9.465 -0.0996  0.8058  0.3471
   87SAPS   H2X 8314   6.368   5.118   9.430  0.6888  0.0280 -0.6739
   87SAPS   H2Y 8315   6.215   5.021   9.424 -0.1476 -1.4483  0.5192
   87SAPS   C23 8316   6.241   5.507   9.571  0.4117  0.1007 -0.0140
   87SAPS   H3R 8317   6.230   5.417   9.507 -1.3704 -0.0697  0.4649
   87SAPS   H3S 8318   6.345   5.544   9.564  0.2510  0.6875  0.6171
   87SAPS   C24 8319   6.137   5.613   9.524  0.3725 -0.2089 -0.4236
   87SAPS   H4R 8320   6.154   5.713   9.568  1.2724 -0.3067 -0.5114
   87SAPS   H4S 8321   6.029   5.593   9.536  0.7649 -2.6936 -0.3266
   87SAPS   C25 8322   6.160   5.644   9.374 -0.6573 -0.0400 -0.7683
   87SAPS   H5R 8323   6.235   5.575   9.331 -0.9526 -2.0570  1.7124
   87SAPS   C26 8324   6.104   5.730   9.296 -0.1056 -0.4574 -0.0659
   87SAPS   H6R 8325   6.140   5.732   9.192 -1.8020 -0.2434 -0.6780
   87SAPS   C27 8326   5.988   5.827   9.327 -0.4747 -0.5801 -0.2473
   87SAPS   H7R 8327   6.012   5.933   9.302 -0.0393 -0.2394  1.4956
   87SAPS   H7S 8328   5.974   5.831   9.437 -0.8378 -2.5153 -0.1855
   87SAPS   C28 8329   5.857   5.775   9.271 -0.3470 -0.2637 -0.0649
   87SAPS   H8R 8330   5.782   5.740   9.343  1.0705  0.7158  1.9500
   87SAPS   C29 8331   5.826   5.747   9.140  0.3263  0.4768 -0.0764
   87SAPS   H9R 8332   5.726   5.710   9.115  0.3247  1.5220 -1.7876
   87SAPS  C210 8333   5.910   5.752   9.013  0.9369 -0.2278  0.6186
   87SAPS  H10R 8334   5.977   5.840   9.026 -1.1429  1.7901 -1.4243
   87SAPS  H10S 8335   5.848   5.790   8.929  1.8243 -1.6396 -0.7448
   87SAPS  C211 8336   5.983   5.622   8.987  0.1905  0.3579  0.2250
   87SAPS  H11R 8337   6.031   5.571   9.071  0.2304 -1.2588 -0.7221
   87SAPS  C212 8338   6.000   5.560   8.866 -0.5195 -0.1847  0.6127
   87SAPS  H12R 8339   6.050   5.465   8.842  0.7952  0.8574 -1.0177
   87SAPS  C213 8340   5.957   5.613   8.735  0.1704 -0.8601 -0.5882
   87SAPS  H13R 8341   6.026   5.573   8.657  1.0477 -1.4710  0.4775
   87SAPS  H13S 8342   5.963   5.724   8.728  3.5115 -0.8301  1.0317
   87SAPS  C214 8343   5.815   5.566   8.704 -0.4471 -0.4743  0.2476
   87SAPS  H14R 8344   5.745   5.548   8.787 -3.4781 -0.8284 -2.2035
   87SAPS  C215 8345   5.755   5.574   8.582  0.4668 -0.0764 -0.0497
   87SAPS  H15R 8346   5.649   5.548   8.566  0.9269 -1.8001 -0.5043
   87SAPS  C216 8347   5.827   5.612   8.454 -0.1813 -0.0717 -0.3232
   87SAPS  H16R 8348   5.793   5.535   8.382 -1.1127  0.9367 -0.9914
   87SAPS  H16S 8349   5.938   5.614   8.462 -0.2540  0.9288  0.9467
   87SAPS  C217 8350   5.782   5.740   8.372  0.1558  0.7981 -0.0465
   87SAPS  H17R 8351   5.839   5.727   8.277 -1.0240 -0.9237 -0.5653
   87SAPS  H17S 8352   5.810   5.831   8.429 -0.9554  0.9815  0.2289
   87SAPS  C218 8353   5.630   5.736   8.347  0.4477 -0.1373 -0.7764
   87SAPS  H18R 8354   5.580   5.824   8.393 -1.6599 -0.9456 -1.4014
   87SAPS  H18S 8355   5.589   5.646   8.396  0.3167 -0.3251 -1.2291
   87SAPS  C219 8356   5.596   5.729   8.199  0.9003 -1.3369  0.4746
   87SAPS  H19R 8357   5.624   5.631   8.154  0.3493  0.0747 -3.3018
   87SAPS  H19S 8358   5.660   5.811   8.160 -0.7211 -0.2887 -0.0991
   87SAPS  C220 8359   5.447   5.746   8.170 -0.8967  0.1316 -0.2308
   87SAPS  H20R 8360   5.406   5.832   8.227  0.1363  0.2812  0.3025
   87SAPS  H20S 8361   5.390   5.655   8.200 -3.5154  0.9805 -2.2038
   87SAPS  H20T 8362   5.430   5.762   8.061  0.9504 -0.0209 -0.5713
   87SAPS   C33 8363   6.407   4.914   9.391 -0.2796  0.1613 -0.2793
   87SAPS   H3X 8364   6.364   4.816   9.419  1.4678 -0.3048  0.9233
   87SAPS   H3Y 8365   6.508   4.912   9.436 -0.6060  0.0651  0.4692
   87SAPS   C34 8366   6.412   4.933   9.241  0.3689 -0.1434 -1.0138
   87SAPS   H4X 8367   6.443   5.038   9.221  2.5323 -0.6817 -0.7265
   87SAPS   H4Y 8368   6.309   4.912   9.205  0.3112 -1.0477 -0.3477
   87SAPS   C35 8369   6.515   4.840   9.173  0.4135 -0.1189 -0.7262
   87SAPS   H5X 8370   6.507   4.734   9.205  1.2421 -0.0829 -0.3777
   87SAPS   H5Y 8371   6.613   4.875   9.211 -0.4498  0.2806  1.2310
   87SAPS   C36 8372   6.509   4.841   9.019  0.8720 -0.0783 -0.2485
   87SAPS   H6X 8373   6.549   4.941   8.990 -1.1829  0.5303 -1.2378
   87SAPS   H6Y 8374   6.403   4.834   8.986  0.4758  0.6440  0.7992
   87SAPS   C37 8375   6.590   4.728   8.963  0.1043 -0.4007 -0.4683
   87SAPS   H7X 8376   6.541   4.635   8.999 -1.3888  0.7465  0.5653
   87SAPS   H7Y 8377   6.693   4.727   9.006 -0.3791 -0.9155  0.7192
   87SAPS   C38 8378   6.600   4.739   8.812  0.0116 -0.3986  0.3715
   87SAPS   H8X 8379   6.646   4.838   8.788 -0.3436  0.0780  1.5236
   87SAPS   H8Y 8380   6.504   4.750   8.757  1.5632  0.5461 -2.3257
   87SAPS   C39 8381   6.666   4.621   8.743  0.1496  0.0261 -0.9370
   87SAPS   H9X 8382   6.602   4.531   8.755 -0.7622  0.8116  0.3998
   87SAPS   H9Y 8383   6.755   4.595   8.803 -0.5581  1.8911  1.0690
   87SAPS  C310 8384   6.700   4.642   8.594 -0.6036  0.5790  0.2556
   87SAPS  H10X 8385   6.750   4.551   8.555  0.1966  1.0453  0.1502
   87SAPS  H10Y 8386   6.752   4.740   8.586 -0.9896  0.7326 -0.4325
   87SAPS  C311 8387   6.580   4.669   8.510 -0.2294  0.0169  0.2566
   87SAPS  H11X 8388   6.522   4.756   8.547 -1.0878 -1.2508  2.0346
   87SAPS  H11Y 8389   6.514   4.582   8.532 -0.6140  0.4630  0.9085
   87SAPS  C312 8390   6.630   4.693   8.362  0.7635  0.1572  0.3793
   87SAPS  H12X 8391   6.676   4.597   8.331  0.9115 -0.0104  1.0882
   87SAPS  H12Y 8392   6.700   4.779   8.359  0.5193  0.3444 -0.0850
   87SAPS  C313 8393   6.516   4.726   8.263  0.4520 -0.1227 -0.2021
   87SAPS  H13X 8394   6.458   4.814   8.297  0.0195 -0.1361 -0.8996
   87SAPS  H13Y 8395   6.435   4.651   8.269 -0.4028  0.6460 -1.6109
   87SAPS  C314 8396   6.565   4.766   8.115 -0.2032  0.9713 -0.8936
   87SAPS  H14X 8397   6.622   4.675   8.086  0.2693  1.0404 -0.2028
   87SAPS  H14Y 8398   6.625   4.856   8.138 -0.9477  1.5335 -1.1074
   87SAPS  C315 8399   6.462   4.798   8.012 -0.4467 -0.1156 -0.4529
   87SAPS  H15X 8400   6.387   4.870   8.048  2.0387  2.2757  0.2655
   87SAPS  H15Y 8401   6.403   4.708   7.984 -3.0115  1.2634  0.2160
   87SAPS  C316 8402   6.519   4.868   7.884 -0.5836  0.0004  0.2795
   87SAPS  H16X 8403   6.588   4.951   7.910  1.8260 -1.6127 -0.6247
   87SAPS  H16Y 8404   6.429   4.900   7.828 -1.5122  0.3435  1.8882
   87SAPS  C317 8405   6.595   4.776   7.792  0.0664 -0.0266 -0.9680
   87SAPS  H17X 8406   6.550   4.675   7.802 -0.7938  0.4547  0.1819
   87SAPS  H17Y 8407   6.703   4.777   7.818  0.1104 -0.9241 -1.0940
   87SAPS  C318 8408   6.589   4.817   7.648 -0.5361 -0.2220 -0.3050
   87SAPS  H18X 8409   6.595   4.925   7.623  1.1235 -0.7047 -2.2685
   87SAPS  H18Y 8410   6.490   4.784   7.611  0.2069 -0.4726 -2.2068
   87SAPS  H18Z 8411   6.669   4.777   7.582  0.4826  1.1789  0.0256
   88SAPS     N 8412   2.483   4.285  10.566  0.1719  0.3039 -0.2391
   88SAPS   HN1 8413   2.512   4.381  10.594 -1.6477  0.9722 -0.4791
   88SAPS   HN2 8414   2.543   4.257  10.486  1.8199  3.5840 -0.3252
   88SAPS   HN3 8415   2.381   4.287  10.548 -0.1810 -3.9465  0.4346
   88SAPS   C12 8416   2.507   4.183  10.675  0.4938 -0.8406  0.2828
   88SAPS  H12A 8417   2.603   4.137  10.654  0.8145 -0.2134  0.3608
   88SAPS   C13 8418   2.511   4.249  10.813 -0.5058  0.2033 -0.1073
   88SAPS  O13A 8419   2.509   4.371  10.826  0.2938 -0.1529 -0.5251
   88SAPS  O13B 8420   2.547   4.175  10.909  0.2318  0.1745  0.0123
   88SAPS   C11 8421   2.386   4.088  10.692  0.9116 -0.6100  0.3728
   88SAPS  H11A 8422   2.300   4.145  10.735 -0.3017 -1.2461 -1.1053
   88SAPS  H11B 8423   2.410   4.006  10.764  1.1201  1.2300  2.5187
   88SAPS     P 8424   2.250   3.917  10.565  0.1139  0.2551  0.2439
   88SAPS   O13 8425   2.348   3.812  10.545  1.0710  0.2817  0.0324
   88SAPS   O14 8426   2.168   3.922  10.686  0.5064  0.2571  0.3443
   88SAPS   O12 8427   2.338   4.046  10.562 -0.2420  0.1343 -0.1590
   88SAPS   O11 8428   2.165   3.934  10.434  0.1143 -0.0342 -0.1894
   88SAPS    C1 8429   2.245   3.969  10.321 -0.6390  0.9789  0.0185
   88SAPS    HA 8430   2.267   4.078  10.321 -3.3741  1.6769 -2.3804
   88SAPS    HB 8431   2.337   3.908  10.309 -1.8796 -0.6924 -1.7738
   88SAPS    C2 8432   2.181   3.931  10.183  0.4792 -0.6506  0.5909
   88SAPS    HS 8433   2.259   3.938  10.105 -0.8984 -2.3417 -1.0330
   88SAPS   O21 8434   2.075   4.018  10.147 -0.1058 -0.0709 -0.0642
   88SAPS   C21 8435   2.105   4.137  10.102  0.1409  0.0437  0.5743
   88SAPS   O22 8436   2.217   4.177  10.072  0.5913 -0.3588 -0.4445
   88SAPS   C22 8437   1.979   4.219  10.075 -0.7675  0.0013 -0.1482
   88SAPS   H2R 8438   1.924   4.235  10.171  0.5947  2.6695  0.2681
   88SAPS   H2S 8439   2.020   4.318  10.046  0.7767 -0.4416  0.4148
   88SAPS    C3 8440   2.143   3.778  10.178  0.3206  0.1096 -0.6020
   88SAPS    HX 8441   2.095   3.764  10.278  0.2108 -1.8590 -0.8913
   88SAPS    HY 8442   2.240   3.725  10.179  0.9436  1.2279 -0.0223
   88SAPS   O31 8443   2.059   3.745  10.061 -0.5016  0.4214 -0.0867
   88SAPS   C31 8444   1.928   3.761  10.077 -0.3339 -0.4895 -0.0415
   88SAPS   O32 8445   1.865   3.771  10.183 -0.3492 -0.4644 -0.1965
   88SAPS   C32 8446   1.857   3.766   9.938  0.7547  0.6614  0.2141
   88SAPS   H2X 8447   1.867   3.670   9.884 -2.5326  1.0468 -1.3876
   88SAPS   H2Y 8448   1.896   3.843   9.868  0.7443 -0.9067 -1.5960
   88SAPS   C23 8449   1.890   4.159   9.973 -0.1784  0.1046  0.0029
   88SAPS   H3R 8450   1.858   4.057  10.003  3.1395 -1.9893 -2.7261
   88SAPS   H3S 8451   1.954   4.135   9.885 -0.8365  2.8806 -1.3657
   88SAPS   C24 8452   1.778   4.246   9.931  0.2218  0.1351 -0.6957
   88SAPS   H4R 8453   1.730   4.289  10.021 -3.2934 -1.4017 -1.6563
   88SAPS   H4S 8454   1.694   4.184   9.892  0.8284 -2.4815  1.8571
   88SAPS   C25 8455   1.815   4.355   9.834 -0.1653 -0.4071  0.5299
   88SAPS   H5R 8456   1.872   4.436   9.882 -2.3309  0.3394  2.0106
   88SAPS   C26 8457   1.807   4.364   9.702  1.2743  0.5777  0.0082
   88SAPS   H6R 8458   1.831   4.458   9.650  0.4212  1.2422  0.7618
   88SAPS   C27 8459   1.740   4.249   9.625  0.4098 -0.4316 -0.5550
   88SAPS   H7R 8460   1.672   4.292   9.549  1.1475  0.7435 -0.5804
   88SAPS   H7S 8461   1.675   4.187   9.691 -0.5802  0.2431 -0.8781
   88SAPS   C28 8462   1.839   4.164   9.555 -0.7437  0.7751 -0.4440
   88SAPS   H8R 8463   1.879   4.078   9.610 -1.1607  0.0547 -1.2463
   88SAPS   C29 8464   1.898   4.177   9.437 -0.1282  0.5257 -0.5445
   88SAPS   H9R 8465   1.971   4.103   9.400  0.6375  0.7087  0.5340
   88SAPS  C210 8466   1.863   4.280   9.325  0.4554  0.1778  0.4875
   88SAPS  H10R 8467   1.950   4.292   9.257  0.2578  1.5307  0.4400
   88SAPS  H10S 8468   1.836   4.382   9.359  0.6289  0.0256  1.1027
   88SAPS  C211 8469   1.742   4.226   9.248 -0.1371  0.2487 -0.2855
   88SAPS  H11R 8470   1.651   4.281   9.275 -0.5063 -0.2123 -0.5654
   88SAPS  C212 8471   1.745   4.155   9.130  0.2804  0.1687 -0.8910
   88SAPS  H12R 8472   1.645   4.118   9.107 -0.6183  0.6127  1.9416
   88SAPS  C213 8473   1.863   4.092   9.062  0.1247  0.2980  0.5367
   88SAPS  H13R 8474   1.932   4.047   9.137 -2.2921 -2.2074  1.4642
   88SAPS  H13S 8475   1.912   4.166   8.997 -1.1280  0.5325 -0.1746
   88SAPS  C214 8476   1.807   3.980   8.982 -0.8252 -0.6486  0.9770
   88SAPS  H14R 8477   1.820   3.877   9.020  0.4763 -0.9042 -0.0972
   88SAPS  C215 8478   1.758   3.986   8.854 -0.2331 -1.0740 -0.1654
   88SAPS  H15R 8479   1.710   3.898   8.810 -0.5299 -0.1899 -1.6826
   88SAPS  C216 8480   1.750   4.119   8.776  0.3905 -0.8290 -0.5804
   88SAPS  H16R 8481   1.824   4.114   8.694 -0.7906 -0.4694 -1.6901
   88SAPS  H16S 8482   1.790   4.210   8.827  2.0701 -1.0762 -1.4125
   88SAPS  C217 8483   1.619   4.151   8.698 -0.5896 -0.0823 -0.7512
   88SAPS  H17R 8484   1.530   4.141   8.764 -0.2518  1.4935  0.0226
   88SAPS  H17S 8485   1.612   4.073   8.620 -0.9307  0.3110 -1.1160
   88SAPS  C218 8486   1.626   4.280   8.615 -0.3191  0.1562  0.2221
   88SAPS  H18R 8487   1.701   4.266   8.535  0.1571  1.7469  0.3539
   88SAPS  H18S 8488   1.664   4.364   8.677  2.3886 -1.1998  0.5408
   88SAPS  C219 8489   1.492   4.313   8.554  0.5526 -0.0350  0.6115
   88SAPS  H19R 8490   1.436   4.373   8.629 -0.1256 -0.9265  0.8314
   88SAPS  H19S 8491   1.438   4.221   8.523  3.0199 -0.5773 -2.5264
   88SAPS  C220 8492   1.515   4.405   8.433 -0.2334  0.3506  0.9717
   88SAPS  H20R 8493   1.424   4.459   8.399  0.6137 -0.6291 -3.4304
   88SAPS  H20S 8494   1.557   4.344   8.350  0.8004 -1.9985  3.1104
   88SAPS  H20T 8495   1.594   4.480   8.455  1.4342 -1.3220  0.9545
   88SAPS   C33 8496   1.708   3.801   9.951 -0.5352  0.1396 -0.6191
   88SAPS   H3X 8497   1.691   3.906   9.982 -0.9481  0.3025 -1.3843
   88SAPS   H3Y 8498   1.663   3.735  10.029 -2.1360 -0.2406 -1.8096
   88SAPS   C34 8499   1.625   3.754   9.827 -0.0755  0.0147 -0.1663
   88SAPS   H4X 8500   1.519   3.767   9.860 -0.6824 -1.3863 -1.4474
   88SAPS   H4Y 8501   1.649   3.646   9.821  2.1967  0.3643  1.4801
   88SAPS   C35 8502   1.654   3.828   9.693 -0.7209 -0.5615 -0.0265
   88SAPS   H5X 8503   1.759   3.818   9.657 -1.0229  1.3793 -1.6452
   88SAPS   H5Y 8504   1.636   3.937   9.703 -0.7073 -0.4281 -1.2946
   88SAPS   C36 8505   1.572   3.780   9.572 -0.2250  0.4584 -0.1867
   88SAPS   H6X 8506   1.466   3.763   9.601 -0.5218  1.2852 -0.7624
   88SAPS   H6Y 8507   1.606   3.677   9.549 -3.2286 -0.5465 -0.6609
   88SAPS   C37 8508   1.575   3.860   9.442  0.3729  0.9982 -0.5297
   88SAPS   H7X 8509   1.680   3.890   9.420  0.4945  1.4118  0.5690
   88SAPS   H7Y 8510   1.511   3.950   9.450  0.0187  0.6827  0.1977
   88SAPS   C38 8511   1.521   3.780   9.320  0.2702 -0.9209  0.2047
   88SAPS   H8X 8512   1.414   3.753   9.334 -0.6426  1.1896 -2.0687
   88SAPS   H8Y 8513   1.585   3.690   9.306  1.1389 -0.2887  0.0688
   88SAPS   C39 8514   1.528   3.861   9.194  0.1632 -0.1783 -0.3661
   88SAPS   H9X 8515   1.632   3.898   9.180  0.0969  0.4241  0.6210
   88SAPS   H9Y 8516   1.464   3.952   9.197 -0.7208 -0.5393 -3.8904
   88SAPS  C310 8517   1.486   3.780   9.070 -0.2402 -1.0232 -0.0594
   88SAPS  H10X 8518   1.419   3.695   9.096 -2.1420  0.2833 -0.4746
   88SAPS  H10Y 8519   1.580   3.735   9.032  1.2908  1.3704  0.7165
   88SAPS  C311 8520   1.421   3.859   8.963  0.1899  0.2460  0.0210
   88SAPS  H11X 8521   1.483   3.950   8.947  1.3446 -0.6731 -0.9348
   88SAPS  H11Y 8522   1.316   3.883   8.992 -0.3208 -0.1960 -1.3452
   88SAPS  C312 8523   1.397   3.780   8.832 -0.2399  0.1302 -0.1340
   88SAPS  H12X 8524   1.313   3.709   8.843 -1.5548  1.2361 -2.2569
   88SAPS  H12Y 8525   1.486   3.719   8.806 -1.0801 -2.3414  2.3166
   88SAPS  C313 8526   1.348   3.864   8.717  0.0965  0.1119  0.0434
   88SAPS  H13X 8527   1.437   3.924   8.691  0.0352 -0.0748 -0.6022
   88SAPS  H13Y 8528   1.276   3.943   8.748 -1.4201 -1.7198  1.5082
   88SAPS  C314 8529   1.296   3.781   8.596  0.1608 -0.8804 -0.0477
   88SAPS  H14X 8530   1.200   3.729   8.617 -0.1335  0.1069  1.1332
   88SAPS  H14Y 8531   1.376   3.707   8.571  3.2002  1.5078  1.8377
   88SAPS  C315 8532   1.278   3.873   8.470  0.6620  0.4184 -0.3247
   88SAPS  H15X 8533   1.385   3.894   8.446  0.8324 -0.9810 -0.8416
   88SAPS  H15Y 8534   1.220   3.967   8.484  1.5090  1.1816 -1.7102
   88SAPS  C316 8535   1.217   3.805   8.340  0.0602  0.1719 -0.4086
   88SAPS  H16X 8536   1.108   3.796   8.363 -0.3128  3.1157 -0.5812
   88SAPS  H16Y 8537   1.256   3.704   8.316 -1.6670 -0.4255 -0.8564
   88SAPS  C317 8538   1.241   3.906   8.224 -0.4620 -0.3923 -0.2095
   88SAPS  H17X 8539   1.351   3.924   8.221 -0.4937 -0.0548  0.3417
   88SAPS  H17Y 8540   1.197   4.007   8.239  2.1487  0.8246 -0.0715
   88SAPS  C318 8541   1.192   3.847   8.094 -0.2214  0.4451 -0.1278
   88SAPS  H18X 8542   1.164   3.921   8.016  0.8451 -0.0121 -0.9598
   88SAPS  H18Y 8543   1.104   3.780   8.102  0.1712 -0.0645 -0.0967
   88SAPS  H18Z 8544   1.266   3.774   8.056 -0.3299 -2.0752  3.8798
   89SAPS     N 8545   0.904   0.394  10.371  0.3505  0.4616  0.4234
   89SAPS   HN1 8546   0.820   0.350  10.328  1.5681 -3.3177  1.4943
   89SAPS   HN2 8547   0.948   0.462  10.305  1.4817  0.6055  1.2971
   89SAPS   HN3 8548   0.982   0.325  10.374  0.0996  0.1789  0.4679
   89SAPS   C12 8549   0.866   0.444  10.504  0.4121 -0.0835 -0.7386
   89SAPS  H12A 8550   0.802   0.367  10.544  1.3661 -0.8376 -0.6171
   89SAPS   C13 8551   0.970   0.477  10.610  0.0928  0.7647  0.0482
   89SAPS  O13A 8552   1.087   0.440  10.581  0.5170 -0.6220  0.0072
   89SAPS  O13B 8553   0.935   0.529  10.719  0.3618 -0.2043  0.2776
   89SAPS   C11 8554   0.778   0.571  10.481 -0.0057  0.1540  0.1281
   89SAPS  H11A 8555   0.822   0.655  10.422 -2.2898  0.4405 -1.2912
   89SAPS  H11B 8556   0.758   0.627  10.575  0.7991  0.1074  0.3394
   89SAPS     P 8557   0.528   0.635  10.424  0.1337 -0.0179 -0.1789
   89SAPS   O13 8558   0.435   0.583  10.523 -0.2206  0.3376 -0.0492
   89SAPS   O14 8559   0.562   0.772  10.445 -0.6280 -0.0706  0.2696
   89SAPS   O12 8560   0.653   0.543  10.418 -0.0618  0.3371  0.2333
   89SAPS   O11 8561   0.460   0.618  10.281 -0.1320 -0.0750 -0.7451
   89SAPS    C1 8562   0.326   0.661  10.256  0.0400  0.3646 -0.2595
   89SAPS    HA 8563   0.251   0.581  10.276  1.1243 -0.5136  0.4201
   89SAPS    HB 8564   0.308   0.742  10.330  0.8144  0.9994 -0.7464
   89SAPS    C2 8565   0.301   0.726  10.116 -0.1386  0.1741 -0.0701
   89SAPS    HS 8566   0.213   0.790  10.141  0.7178  1.6959 -0.7977
   89SAPS   O21 8567   0.265   0.636  10.004 -0.2827  0.1905  0.3408
   89SAPS   C21 8568   0.146   0.583  10.017 -0.5596  0.2724 -0.1706
   89SAPS   O22 8569   0.056   0.624  10.088 -0.3120  0.3473  0.3905
   89SAPS   C22 8570   0.128   0.479   9.915 -0.3058  0.1015  0.8935
   89SAPS   H2R 8571   0.145   0.526   9.816  1.8059 -1.8675  0.2503
   89SAPS   H2S 8572   0.202   0.401   9.941 -0.5998 -0.1246  1.0496
   89SAPS    C3 8573   0.423   0.818  10.079 -0.1923  0.2567 -0.5532
   89SAPS    HX 8574   0.509   0.748  10.074  0.8909  1.4564  0.6620
   89SAPS    HY 8575   0.449   0.892  10.158  0.6856  0.0845 -0.6750
   89SAPS   O31 8576   0.411   0.877   9.948 -0.1409 -0.8567  0.3572
   89SAPS   C31 8577   0.330   0.980   9.942 -0.6062 -0.4525  0.1477
   89SAPS   O32 8578   0.264   1.025  10.032 -0.0855  0.2639  0.6366
   89SAPS   C32 8579   0.335   1.038   9.803  0.0007  0.0155 -0.0856
   89SAPS   H2X 8580   0.431   1.090   9.789  0.4619 -0.0012  2.5061
   89SAPS   H2Y 8581   0.248   1.107   9.792  0.3510  0.1759 -2.1566
   89SAPS   C23 8582  -0.011   0.412   9.908  0.3960 -0.2882  0.1585
   89SAPS   H3R 8583  -0.089   0.476   9.863 -0.4197 -2.5503 -1.8948
   89SAPS   H3S 8584  -0.044   0.397  10.013 -0.5657  0.4444 -0.0292
   89SAPS   C24 8585  -0.008   0.268   9.859  0.1925  0.1901 -0.2499
   89SAPS   H4R 8586  -0.111   0.225   9.859 -0.4257  1.4858 -2.0455
   89SAPS   H4S 8587   0.052   0.210   9.931 -1.4717  0.3405  1.3458
   89SAPS   C25 8588   0.039   0.270   9.716 -0.3215 -0.3731  0.3106
   89SAPS   H5R 8589   0.147   0.262   9.692 -0.5215  0.7882 -1.1215
   89SAPS   C26 8590  -0.043   0.272   9.610 -0.1919 -0.8782 -0.1295
   89SAPS   H6R 8591   0.008   0.289   9.515 -0.3882  0.6213  0.0167
   89SAPS   C27 8592  -0.195   0.262   9.595 -0.5146  0.1658 -0.6766
   89SAPS   H7R 8593  -0.234   0.298   9.692  0.0011  1.1885 -0.8406
   89SAPS   H7S 8594  -0.224   0.155   9.598 -1.6904  0.4023 -2.2458
   89SAPS   C28 8595  -0.273   0.334   9.480 -0.0779  0.5723 -0.0857
   89SAPS   H8R 8596  -0.348   0.405   9.518  0.6291  0.9995  0.5226
   89SAPS   C29 8597  -0.274   0.305   9.345  0.0205  0.2330  0.0699
   89SAPS   H9R 8598  -0.333   0.375   9.284  1.6378  0.8061 -0.9185
   89SAPS  C210 8599  -0.187   0.208   9.264 -0.7094  0.2273 -0.4351
   89SAPS  H10R 8600  -0.127   0.145   9.332  1.4331  1.9131 -0.6490
   89SAPS  H10S 8601  -0.116   0.270   9.204 -0.7874  1.2701  0.5092
   89SAPS  C211 8602  -0.273   0.124   9.176  0.6269 -0.0448  0.0616
   89SAPS  H11R 8603  -0.278   0.022   9.217  1.0088  0.8566  2.5158
   89SAPS  C212 8604  -0.340   0.152   9.059 -0.4748 -0.3037  0.2330
   89SAPS  H12R 8605  -0.404   0.076   9.012 -1.5430  0.3945  0.5057
   89SAPS  C213 8606  -0.341   0.290   8.995 -0.3147 -0.2829  0.6540
   89SAPS  H13R 8607  -0.370   0.368   9.068 -0.3380 -0.6374  1.0237
   89SAPS  H13S 8608  -0.422   0.281   8.920 -0.0642 -1.9158  0.5550
   89SAPS  C214 8609  -0.214   0.340   8.932  0.4398 -0.4427  0.5489
   89SAPS  H14R 8610  -0.119   0.300   8.971  1.2996  0.4827 -0.5725
   89SAPS  C215 8611  -0.210   0.393   8.808  0.3716  0.4646  0.1077
   89SAPS  H15R 8612  -0.108   0.407   8.770  0.2897  3.1314  0.6835
   89SAPS  C216 8613  -0.323   0.439   8.714 -0.8707 -0.4156  0.0966
   89SAPS  H16R 8614  -0.307   0.549   8.708  0.9040 -0.3038  3.9705
   89SAPS  H16S 8615  -0.420   0.431   8.769 -1.2046  0.1606 -0.3890
   89SAPS  C217 8616  -0.348   0.356   8.587 -0.0503 -0.5967 -0.7161
   89SAPS  H17R 8617  -0.329   0.248   8.596  1.3641 -0.6877 -3.6197
   89SAPS  H17S 8618  -0.274   0.388   8.511 -1.1240  0.2760 -1.4430
   89SAPS  C218 8619  -0.495   0.367   8.532 -0.7149  0.3789 -0.0666
   89SAPS  H18R 8620  -0.559   0.361   8.622 -1.1921  2.1808 -0.2329
   89SAPS  H18S 8621  -0.525   0.286   8.462 -1.8457  0.5284  0.2293
   89SAPS  C219 8622  -0.503   0.500   8.453 -0.8499 -0.7189 -0.5625
   89SAPS  H19R 8623  -0.417   0.513   8.383 -0.2865  0.3511  0.2844
   89SAPS  H19S 8624  -0.488   0.585   8.524  2.1650 -0.7764 -0.9823
   89SAPS  C220 8625  -0.631   0.519   8.385  0.4376  0.6542  0.1874
   89SAPS  H20R 8626  -0.635   0.619   8.337 -0.8764  0.6488  0.2451
   89SAPS  H20S 8627  -0.711   0.512   8.462  1.6389  0.4514  1.4654
   89SAPS  H20T 8628  -0.640   0.435   8.312  1.0780 -1.6384  2.5931
   89SAPS   C33 8629   0.327   0.928   9.692  0.1779 -1.0120 -0.2979
   89SAPS   H3X 8630   0.237   0.862   9.690  0.9472 -2.0692 -1.5258
   89SAPS   H3Y 8631   0.429   0.883   9.685  0.3956 -0.8855  1.6132
   89SAPS   C34 8632   0.320   0.996   9.557 -0.2345  0.4547  0.1000
   89SAPS   H4X 8633   0.414   1.053   9.545  0.2592 -0.5630 -1.1437
   89SAPS   H4Y 8634   0.234   1.067   9.556  1.3605  2.4773  0.9428
   89SAPS   C35 8635   0.300   0.898   9.443 -0.2831 -0.0368  0.3451
   89SAPS   H5X 8636   0.201   0.849   9.450 -1.3575  1.4902 -2.4540
   89SAPS   H5Y 8637   0.375   0.819   9.465  2.9003  2.5300 -0.5169
   89SAPS   C36 8638   0.321   0.961   9.302  0.2564 -0.0870 -0.6946
   89SAPS   H6X 8639   0.424   1.002   9.301  1.2830 -2.3597  1.1099
   89SAPS   H6Y 8640   0.250   1.042   9.276 -1.6036 -1.3541  0.1269
   89SAPS   C37 8641   0.302   0.855   9.188  0.3511  0.5467 -0.1595
   89SAPS   H7X 8642   0.198   0.823   9.208 -0.1863  0.5039 -2.6552
   89SAPS   H7Y 8643   0.374   0.771   9.196 -0.4021 -0.0080  0.9663
   89SAPS   C38 8644   0.318   0.923   9.052  0.4672 -0.2810  0.4420
   89SAPS   H8X 8645   0.424   0.945   9.028  0.7301 -0.8375  1.0555
   89SAPS   H8Y 8646   0.253   1.011   9.072 -0.5504 -1.3231  1.9392
   89SAPS   C39 8647   0.275   0.833   8.932  1.4559  0.3316 -0.4655
   89SAPS   H9X 8648   0.174   0.797   8.961  1.3460  1.3649  0.5192
   89SAPS   H9Y 8649   0.341   0.744   8.923 -1.9213 -2.3693 -0.5929
   89SAPS  C310 8650   0.281   0.909   8.807  0.1707  0.1508 -0.3016
   89SAPS  H10X 8651   0.391   0.911   8.789  0.6276 -4.1608  0.7639
   89SAPS  H10Y 8652   0.242   1.011   8.827 -1.0752 -0.2011 -0.8069
   89SAPS  C311 8653   0.204   0.852   8.685 -0.6494  0.5200  0.2005
   89SAPS  H11X 8654   0.094   0.862   8.692 -1.1744 -0.6308 -3.8341
   89SAPS  H11Y 8655   0.223   0.743   8.676 -1.3487  0.2948  1.3481
   89SAPS  C312 8656   0.258   0.921   8.555  0.7834  0.4315  0.2966
   89SAPS  H12X 8657   0.368   0.905   8.565  0.3530 -2.4713  1.1562
   89SAPS  H12Y 8658   0.219   1.025   8.562 -1.3195 -0.3922  1.7378
   89SAPS  C313 8659   0.221   0.862   8.417  0.7385  0.9264 -0.2620
   89SAPS  H13X 8660   0.113   0.838   8.411  0.6330  0.7610  1.5395
   89SAPS  H13Y 8661   0.268   0.761   8.424  0.7564  1.0063  1.0072
   89SAPS  C314 8662   0.276   0.937   8.291  0.1054  0.5118  0.0399
   89SAPS  H14X 8663   0.382   0.969   8.295  0.7326 -1.0892 -1.7664
   89SAPS  H14Y 8664   0.212   1.027   8.276 -0.6387 -0.3092 -2.1787
   89SAPS  C315 8665   0.270   0.852   8.159  0.6184  0.2950 -0.2124
   89SAPS  H15X 8666   0.314   0.753   8.184 -0.7993 -0.2256  0.3348
   89SAPS  H15Y 8667   0.309   0.905   8.070 -1.6519  0.0709 -1.4146
   89SAPS  C316 8668   0.123   0.822   8.113  0.3083 -0.5487 -0.1648
   89SAPS  H16X 8669   0.078   0.913   8.068 -1.2287 -1.1491  0.1151
   89SAPS  H16Y 8670   0.064   0.793   8.202 -1.7782  0.7414 -1.0523
   89SAPS  C317 8671   0.116   0.712   8.001  0.2650 -0.2690  0.3029
   89SAPS  H17X 8672   0.025   0.647   7.998 -0.5394  0.8356  0.0052
   89SAPS  H17Y 8673   0.195   0.640   8.032  0.6318 -0.3539 -0.7917
   89SAPS  C318 8674   0.158   0.769   7.864  0.0345  0.1683  0.0484
   89SAPS  H18X 8675   0.109   0.717   7.778 -0.8706  1.4237 -0.2205
   89SAPS  H18Y 8676   0.268   0.769   7.850 -0.0039  0.2695 -0.2686
   89SAPS  H18Z 8677   0.121   0.873   7.858  0.9659  0.5839  1.1850
   90SAPS     N 8678   2.976   0.303  10.353  0.5638  0.5905 -0.2322
   90SAPS   HN1 8679   2.914   0.259  10.282  2.8528 -1.2683 -1.2138
   90SAPS   HN2 8680   2.964   0.407  10.358 -0.6131  0.6140 -2.2205
   90SAPS   HN3 8681   3.076   0.277  10.344  0.7201  0.9863  0.3326
   90SAPS   C12 8682   2.934   0.236  10.476 -0.5031  0.4623  0.1899
   90SAPS  H12A 8683   2.913   0.133  10.453 -1.6983  1.0696 -1.7589
   90SAPS   C13 8684   3.042   0.227  10.586 -0.2876 -0.0095 -0.1950
   90SAPS  O13A 8685   3.158   0.268  10.561 -0.0020 -0.0213  0.4750
   90SAPS  O13B 8686   3.015   0.185  10.705 -0.0156  0.2824  0.5784
   90SAPS   C11 8687   2.804   0.284  10.531  0.3663 -0.8937  0.2805
   90SAPS  H11A 8688   2.808   0.384  10.579 -1.2382 -1.2416  1.1975
   90SAPS  H11B 8689   2.772   0.224  10.618  0.7313 -1.5312 -0.0162
   90SAPS     P 8690   2.606   0.156  10.407  0.1967  0.0327 -0.0013
   90SAPS   O13 8691   2.688   0.026  10.407  0.7030  0.6640 -0.3230
   90SAPS   O14 8692   2.489   0.152  10.501 -0.8105 -0.1036 -0.3569
   90SAPS   O12 8693   2.698   0.281  10.432 -0.1165 -0.1040 -0.4363
   90SAPS   O11 8694   2.550   0.173  10.262 -0.0935 -0.3836 -0.1221
   90SAPS    C1 8695   2.497   0.285  10.197  0.1443  0.1409  0.5271
   90SAPS    HA 8696   2.401   0.312  10.246  0.2699  0.3866  0.6394
   90SAPS    HB 8697   2.557   0.376  10.220  2.3288 -0.5983 -1.7288
   90SAPS    C2 8698   2.478   0.270  10.044 -0.3313  0.4671  0.2108
   90SAPS    HS 8699   2.393   0.198  10.037 -1.3172  1.5778  0.5246
   90SAPS   O21 8700   2.604   0.212   9.987  0.5487  0.5550  0.3958
   90SAPS   C21 8701   2.593   0.111   9.906  0.0215  0.0074  0.2241
   90SAPS   O22 8702   2.495   0.047   9.879  0.4997  0.0111  0.0225
   90SAPS   C22 8703   2.729   0.078   9.856  0.0704  0.1986  0.6071
   90SAPS   H2R 8704   2.764   0.173   9.811  0.8184 -0.9862 -1.4084
   90SAPS   H2S 8705   2.802   0.043   9.932  1.6457  1.9529 -0.0276
   90SAPS    C3 8706   2.447   0.403   9.976  0.3017 -0.3466  0.7225
   90SAPS    HX 8707   2.538   0.465   9.990 -0.1769  0.6149 -0.2298
   90SAPS    HY 8708   2.361   0.450  10.030 -0.7542  0.4634 -1.5212
   90SAPS   O31 8709   2.409   0.398   9.835  0.1797 -0.8326 -0.5205
   90SAPS   C31 8710   2.286   0.359   9.816  0.3134  0.0724 -0.4046
   90SAPS   O32 8711   2.208   0.315   9.895 -0.0842 -0.0557  0.0530
   90SAPS   C32 8712   2.257   0.374   9.664  0.2181  0.1497  0.3176
   90SAPS   H2X 8713   2.147   0.388   9.649  0.3707 -0.7509 -2.0749
   90SAPS   H2Y 8714   2.283   0.276   9.618  0.3881  0.0745  0.5756
   90SAPS   C23 8715   2.722  -0.041   9.758 -0.6855 -0.6930 -0.1353
   90SAPS   H3R 8716   2.813  -0.037   9.695 -0.8007 -2.6630 -0.4751
   90SAPS   H3S 8717   2.638  -0.032   9.686 -1.8371 -0.4314  1.1854
   90SAPS   C24 8718   2.735  -0.185   9.823  0.1995  0.0209  0.7966
   90SAPS   H4R 8719   2.729  -0.250   9.732  0.3947  2.5286 -1.1290
   90SAPS   H4S 8720   2.649  -0.205   9.890 -0.9136 -1.9110 -1.0605
   90SAPS   C25 8721   2.869  -0.216   9.894 -0.3427  0.7350 -0.5178
   90SAPS   H5R 8722   2.896  -0.144   9.972  1.3869  0.1721 -0.5573
   90SAPS   C26 8723   2.958  -0.314   9.863  0.0256  1.3970  0.5405
   90SAPS   H6R 8724   3.050  -0.330   9.921  0.5937 -0.5209 -0.7754
   90SAPS   C27 8725   2.938  -0.416   9.744 -0.1774 -0.2501  0.1662
   90SAPS   H7R 8726   2.879  -0.364   9.665  0.4638  1.4556  0.7719
   90SAPS   H7S 8727   2.876  -0.500   9.780  0.1299  0.1563  1.7047
   90SAPS   C28 8728   3.067  -0.481   9.686  0.4090  0.1335  0.0292
   90SAPS   H8R 8729   3.162  -0.431   9.708 -0.0158  0.3629  1.4890
   90SAPS   C29 8730   3.068  -0.597   9.627  0.2483  0.4076  0.5060
   90SAPS   H9R 8731   3.165  -0.637   9.594 -0.5694 -1.0994 -0.1403
   90SAPS  C210 8732   2.945  -0.682   9.598 -0.3269 -0.1054  0.8852
   90SAPS  H10R 8733   2.855  -0.617   9.606 -0.4952 -0.3954  1.3478
   90SAPS  H10S 8734   2.929  -0.752   9.682 -0.7083 -1.2694 -0.1334
   90SAPS  C211 8735   2.953  -0.767   9.469  0.0849 -0.8349 -0.5716
   90SAPS  H11R 8736   3.020  -0.854   9.473  0.9606 -0.1399  0.5656
   90SAPS  C212 8737   2.892  -0.736   9.354 -0.3578 -0.6951 -0.3642
   90SAPS  H12R 8738   2.914  -0.793   9.263  2.5564  0.5188 -0.5227
   90SAPS  C213 8739   2.801  -0.622   9.321  0.4958 -0.1202 -0.2910
   90SAPS  H13R 8740   2.842  -0.553   9.245 -0.3567 -1.1194 -1.7044
   90SAPS  H13S 8741   2.792  -0.552   9.407  0.8357  0.0259 -0.3755
   90SAPS  C214 8742   2.669  -0.677   9.259  0.6453 -0.2137  0.0403
   90SAPS  H14R 8743   2.665  -0.783   9.230  1.1232 -0.0835 -0.5231
   90SAPS  C215 8744   2.561  -0.599   9.216  0.3631  0.7345  0.0244
   90SAPS  H15R 8745   2.476  -0.656   9.178 -0.4746  1.8472  0.1809
   90SAPS  C216 8746   2.551  -0.451   9.231  0.0618 -0.6925 -0.1699
   90SAPS  H16R 8747   2.645  -0.397   9.256 -0.1595 -0.7854  0.9182
   90SAPS  H16S 8748   2.466  -0.415   9.294  0.3754 -1.5147  0.7458
   90SAPS  C217 8749   2.519  -0.410   9.083  0.2508 -0.8333  0.2592
   90SAPS  H17R 8750   2.485  -0.304   9.079 -0.3584 -1.0682 -1.5378
   90SAPS  H17S 8751   2.431  -0.459   9.036 -0.6439  0.3888  0.6141
   90SAPS  C218 8752   2.640  -0.399   8.997 -0.3331  0.4991 -0.0805
   90SAPS  H18R 8753   2.692  -0.496   8.986 -2.2806 -0.3869 -2.4508
   90SAPS  H18S 8754   2.707  -0.328   9.049  2.5681  0.1936 -3.0594
   90SAPS  C219 8755   2.610  -0.355   8.855 -0.5089  0.2985  0.4356
   90SAPS  H19R 8756   2.579  -0.249   8.868 -0.2745  0.5636 -1.0547
   90SAPS  H19S 8757   2.527  -0.418   8.818 -0.0104  0.1327 -0.4283
   90SAPS  C220 8758   2.722  -0.369   8.749 -0.0720 -0.0433  0.4483
   90SAPS  H20R 8759   2.690  -0.332   8.649 -0.4442  0.4369  0.7443
   90SAPS  H20S 8760   2.748  -0.477   8.747 -2.3337 -0.6378  0.1790
   90SAPS  H20T 8761   2.803  -0.302   8.786  1.1895  0.2187 -2.4559
   90SAPS   C33 8762   2.327   0.487   9.590 -0.2242 -0.6332  0.2265
   90SAPS   H3X 8763   2.436   0.466   9.597 -0.1547 -0.1644  0.5761
   90SAPS   H3Y 8764   2.307   0.583   9.641 -1.2672 -1.4708  1.4536
   90SAPS   C34 8765   2.292   0.490   9.441  0.4725 -0.4298  0.8538
   90SAPS   H4X 8766   2.198   0.548   9.435  0.6295 -0.3308 -1.9256
   90SAPS   H4Y 8767   2.259   0.387   9.413  0.7459 -0.8259  1.9460
   90SAPS   C35 8768   2.406   0.532   9.345  0.7824  0.2048 -0.9169
   90SAPS   H5X 8769   2.506   0.491   9.374  0.9277  1.1997  0.0671
   90SAPS   H5Y 8770   2.397   0.642   9.354 -1.6550 -0.1414  2.6721
   90SAPS   C36 8771   2.367   0.492   9.202 -0.5335  0.2196 -0.3498
   90SAPS   H6X 8772   2.261   0.514   9.180 -1.3058  0.2798  2.9590
   90SAPS   H6Y 8773   2.376   0.382   9.208  2.1343  0.4336  1.2520
   90SAPS   C37 8774   2.471   0.545   9.098  0.1607  0.1534 -0.5222
   90SAPS   H7X 8775   2.566   0.490   9.118  0.4205  0.8388  0.1635
   90SAPS   H7Y 8776   2.487   0.654   9.104  0.0230  0.1446  0.0179
   90SAPS   C38 8777   2.438   0.498   8.954  0.5142 -0.5548  0.5741
   90SAPS   H8X 8778   2.348   0.555   8.922  1.4153  0.5693 -0.0454
   90SAPS   H8Y 8779   2.423   0.390   8.939  3.0631 -0.5720 -3.5082
   90SAPS   C39 8780   2.551   0.554   8.859 -0.1303  0.2763  0.3191
   90SAPS   H9X 8781   2.649   0.508   8.886  0.4909  1.9920  1.0975
   90SAPS   H9Y 8782   2.569   0.661   8.882  0.3400  0.3399 -0.3187
   90SAPS  C310 8783   2.523   0.534   8.713  0.3016 -0.0230 -0.5862
   90SAPS  H10X 8784   2.418   0.558   8.686 -0.9959 -2.4468  1.8534
   90SAPS  H10Y 8785   2.541   0.427   8.691 -0.8328 -0.4207  0.3169
   90SAPS  C311 8786   2.624   0.619   8.633 -0.6658 -0.3066 -0.0883
   90SAPS  H11X 8787   2.727   0.600   8.671 -0.9573  0.8436  1.4083
   90SAPS  H11Y 8788   2.608   0.729   8.640  0.7881 -0.1473  1.6059
   90SAPS  C312 8789   2.634   0.563   8.489  0.1969  0.1527 -0.5371
   90SAPS  H12X 8790   2.657   0.454   8.488 -2.4206 -0.4927  0.2404
   90SAPS  H12Y 8791   2.724   0.607   8.441  0.5841 -0.3666 -0.3010
   90SAPS  C313 8792   2.510   0.593   8.404 -0.0197  0.0163  0.5387
   90SAPS  H13X 8793   2.489   0.702   8.409 -2.2893 -0.2369 -1.4039
   90SAPS  H13Y 8794   2.424   0.540   8.452 -0.4421 -0.9918 -1.2265
   90SAPS  C314 8795   2.525   0.568   8.254 -0.4007  0.7692 -0.1271
   90SAPS  H14X 8796   2.513   0.459   8.236 -1.4738  1.0879 -1.5559
   90SAPS  H14Y 8797   2.625   0.596   8.214  1.5595 -2.0480  2.3499
   90SAPS  C315 8798   2.414   0.641   8.175  0.2347  0.3904  0.2532
   90SAPS  H15X 8799   2.440   0.749   8.181  1.3799  0.1168  0.3767
   90SAPS  H15Y 8800   2.314   0.630   8.222  0.5697 -1.6902  0.5621
   90SAPS  C316 8801   2.401   0.595   8.025 -0.1870  0.9109  0.2240
   90SAPS  H16X 8802   2.345   0.498   8.018 -0.9014  1.3202  0.1329
   90SAPS  H16Y 8803   2.502   0.561   7.995 -0.9207  0.8080 -2.4337
   90SAPS  C317 8804   2.363   0.708   7.920  0.2394  0.1668  0.0236
   90SAPS  H17X 8805   2.355   0.659   7.820 -1.7733 -2.1483  1.2149
   90SAPS  H17Y 8806   2.450   0.776   7.929  0.1598  0.1276  1.1614
   90SAPS  C318 8807   2.232   0.787   7.952 -0.3027  0.7184 -0.3694
   90SAPS  H18X 8808   2.224   0.866   7.874 -0.5412 -2.2820 -3.5910
   90SAPS  H18Y 8809   2.236   0.832   8.053  0.3396  0.3131 -0.2057
   90SAPS  H18Z 8810   2.148   0.716   7.936 -0.5145  1.0526 -0.7597
   91SAPS     N 8811   3.802   6.451   5.758 -0.7488 -0.1520  0.0410
   91SAPS   HN1 8812   3.819   6.362   5.810 -0.9442  0.8321  1.9031
   91SAPS   HN2 8813   3.886   6.512   5.767  0.0191 -1.2528  0.5534
   91SAPS   HN3 8814   3.720   6.498   5.800  0.0481  1.8571 -0.5421
   91SAPS   C12 8815   3.790   6.434   5.612  0.0805 -0.3728 -0.2286
   91SAPS  H12A 8816   3.738   6.339   5.616  2.5791 -1.7884  0.6300
   91SAPS   C13 8817   3.698   6.542   5.554 -0.6364 -0.8883 -0.2674
   91SAPS  O13A 8818   3.664   6.636   5.634  0.5107 -0.0153 -0.4912
   91SAPS  O13B 8819   3.668   6.548   5.433  0.5910 -0.5795 -0.5792
   91SAPS   C11 8820   3.924   6.439   5.532  0.2279 -0.4067 -0.3122
   91SAPS  H11A 8821   3.988   6.528   5.552  0.9887 -1.0640  0.2477
   91SAPS  H11B 8822   3.885   6.433   5.429 -0.2665 -0.3054 -0.1370
   91SAPS     P 8823   4.131   6.294   5.650  0.0983 -0.4663 -0.2915
   91SAPS   O13 8824   4.137   6.147   5.678 -0.6306  0.4345 -0.0098
   91SAPS   O14 8825   4.252   6.361   5.601 -0.6308 -0.1039 -0.0256
   91SAPS   O12 8826   4.002   6.323   5.557 -0.0378  0.0580 -0.5672
   91SAPS   O11 8827   4.091   6.380   5.777  0.2084 -0.4101 -0.5133
   91SAPS    C1 8828   4.186   6.437   5.869  0.6154  0.2255  0.0994
   91SAPS    HA 8829   4.291   6.407   5.847  0.0590 -0.5813 -1.6397
   91SAPS    HB 8830   4.181   6.548   5.871  1.3277  0.2742 -0.5082
   91SAPS    C2 8831   4.160   6.385   6.012 -0.3639 -0.3905  0.0626
   91SAPS    HS 8832   4.254   6.398   6.071  0.0205 -3.1993  0.2102
   91SAPS   O21 8833   4.118   6.247   6.014  0.0848  0.1766 -0.3759
   91SAPS   C21 8834   4.178   6.171   6.102 -0.8478  0.4689 -0.1600
   91SAPS   O22 8835   4.285   6.195   6.153 -0.4220  0.0111 -0.5354
   91SAPS   C22 8836   4.082   6.055   6.135  0.2582  0.3296  0.9445
   91SAPS   H2R 8837   4.061   6.005   6.037 -0.4571  2.7289 -0.1988
   91SAPS   H2S 8838   4.148   5.994   6.200  1.9900  0.9312 -0.1702
   91SAPS    C3 8839   4.057   6.468   6.080  0.7085 -0.3745 -0.9407
   91SAPS    HX 8840   3.959   6.420   6.060  0.7852 -0.4770 -1.0680
   91SAPS    HY 8841   4.045   6.571   6.040  2.0548 -0.9250 -2.8993
   91SAPS   O31 8842   4.066   6.474   6.230  0.1779  0.2569 -0.1171
   91SAPS   C31 8843   4.155   6.564   6.268 -0.6866  0.0002  0.4184
   91SAPS   O32 8844   4.223   6.642   6.207  0.0394 -0.5996 -0.2157
   91SAPS   C32 8845   4.158   6.570   6.417 -0.0128 -0.1584  0.0983
   91SAPS   H2X 8846   4.086   6.647   6.451  0.0683 -0.0821  0.0994
   91SAPS   H2Y 8847   4.263   6.597   6.443 -0.1408 -0.5829  1.0938
   91SAPS   C23 8848   3.962   6.099   6.224  0.2499 -0.8526  0.7793
   91SAPS   H3R 8849   3.891   6.141   6.150  1.2946 -0.3530  0.0381
   91SAPS   H3S 8850   3.978   6.178   6.301  0.0855 -1.6730  1.6861
   91SAPS   C24 8851   3.889   5.973   6.276 -0.1499 -0.5706 -0.7425
   91SAPS   H4R 8852   3.961   5.913   6.336  2.0250  0.9133 -1.7288
   91SAPS   H4S 8853   3.855   5.909   6.191 -1.5486 -0.5229 -0.2369
   91SAPS   C25 8854   3.772   6.014   6.356  0.2825  1.3132 -0.3778
   91SAPS   H5R 8855   3.680   6.012   6.296 -0.3764  1.7604  0.5862
   91SAPS   C26 8856   3.770   6.045   6.487 -0.0440  0.6279  0.2208
   91SAPS   H6R 8857   3.672   6.069   6.531 -1.1233  1.7720 -2.6109
   91SAPS   C27 8858   3.886   6.041   6.581  0.3279 -0.1704  0.3274
   91SAPS   H7R 8859   3.896   6.141   6.627  1.2319  0.1205 -0.4733
   91SAPS   H7S 8860   3.977   6.026   6.520  0.4768 -2.2902  0.9759
   91SAPS   C28 8861   3.869   5.932   6.688 -0.2398 -0.0725  0.8620
   91SAPS   H8R 8862   3.833   5.838   6.643 -1.3571  1.4343 -1.5803
   91SAPS   C29 8863   3.898   5.939   6.816  0.2533 -0.7811 -0.2363
   91SAPS   H9R 8864   3.861   5.855   6.877 -0.6438 -1.7323 -2.0035
   91SAPS  C210 8865   3.952   6.067   6.891  0.1878  0.6990  0.3237
   91SAPS  H10R 8866   3.869   6.139   6.903 -0.0852  0.7730 -1.5733
   91SAPS  H10S 8867   4.023   6.116   6.821  0.4652 -0.5356 -0.3067
   91SAPS  C211 8868   4.028   6.030   7.017 -0.4224 -0.2811 -0.1903
   91SAPS  H11R 8869   4.109   5.958   6.998  0.0781  0.3089 -0.3126
   91SAPS  C212 8870   3.995   6.036   7.143 -0.0133 -0.1593  0.1074
   91SAPS  H12R 8871   4.063   5.988   7.216 -0.2278 -0.8113 -0.1174
   91SAPS  C213 8872   3.868   6.096   7.195  0.7074 -0.1532  0.0483
   91SAPS  H13R 8873   3.811   6.021   7.252  0.2945 -0.8263 -1.2066
   91SAPS  H13S 8874   3.800   6.112   7.108  0.0569 -1.3488  0.3167
   91SAPS  C214 8875   3.895   6.226   7.266 -0.5882  0.0818  0.4441
   91SAPS  H14R 8876   3.941   6.311   7.213  0.1870 -0.8265 -0.3646
   91SAPS  C215 8877   3.867   6.262   7.396  0.6319 -0.2994 -0.1208
   91SAPS  H15R 8878   3.901   6.359   7.436 -2.4425  0.5319  0.7227
   91SAPS  C216 8879   3.807   6.168   7.491 -0.5274 -0.6036 -0.0079
   91SAPS  H16R 8880   3.798   6.060   7.464  0.5549 -0.5846 -0.4997
   91SAPS  H16S 8881   3.701   6.199   7.504 -0.0934  1.6951 -1.4768
   91SAPS  C217 8882   3.873   6.168   7.633 -0.9905  0.8289 -0.5962
   91SAPS  H17R 8883   3.871   6.261   7.692 -0.6182  1.5341 -1.6665
   91SAPS  H17S 8884   3.977   6.140   7.605 -1.0054 -0.9375  0.9140
   91SAPS  C218 8885   3.825   6.052   7.717  0.0600  0.1788 -0.9705
   91SAPS  H18R 8886   3.915   6.001   7.759  0.0578  0.5733 -0.4748
   91SAPS  H18S 8887   3.758   5.984   7.662 -1.5840  1.7750 -1.0323
   91SAPS  C219 8888   3.736   6.090   7.839 -0.3610 -0.2917 -0.3112
   91SAPS  H19R 8889   3.650   6.157   7.816  1.9188  1.8377 -3.5892
   91SAPS  H19S 8890   3.804   6.138   7.913  0.4807 -2.1310  0.1419
   91SAPS  C220 8891   3.683   5.963   7.905  0.1348 -0.5621  0.4221
   91SAPS  H20R 8892   3.626   5.972   8.000 -0.5869 -1.0804  0.0460
   91SAPS  H20S 8893   3.773   5.903   7.929  1.7423  2.1746  1.8370
   91SAPS  H20T 8894   3.624   5.907   7.830 -1.3869  1.2564  0.1649
   91SAPS   C33 8895   4.123   6.433   6.490  0.4893  0.1073  0.6209
   91SAPS   H3X 8896   4.203   6.361   6.464 -0.9564 -0.4939 -2.6644
   91SAPS   H3Y 8897   4.026   6.398   6.448  0.1751 -1.3960  2.4681
   91SAPS   C34 8898   4.100   6.440   6.639 -0.6146  0.6962  0.9306
   91SAPS   H4X 8899   4.063   6.337   6.658 -0.0076  0.3945  0.4905
   91SAPS   H4Y 8900   4.021   6.511   6.671  0.8259  2.4139  0.8794
   91SAPS   C35 8901   4.228   6.461   6.721  0.3050 -0.6363 -0.4547
   91SAPS   H5X 8902   4.257   6.567   6.703 -0.0944 -0.3539  0.5578
   91SAPS   H5Y 8903   4.310   6.397   6.682  1.6449  0.0562  1.0912
   91SAPS   C36 8904   4.215   6.453   6.873 -0.2929  1.1252  0.0170
   91SAPS   H6X 8905   4.318   6.460   6.914 -0.1380 -1.8590  0.3590
   91SAPS   H6Y 8906   4.184   6.352   6.908  3.2169 -0.0046  0.2138
   91SAPS   C37 8907   4.128   6.557   6.938  0.0731  1.7197  0.2112
   91SAPS   H7X 8908   4.024   6.521   6.930  0.5804 -1.0173  3.4711
   91SAPS   H7Y 8909   4.136   6.658   6.892 -1.0615  1.9171  0.4172
   91SAPS   C38 8910   4.153   6.553   7.094  0.3337  0.1670  0.8748
   91SAPS   H8X 8911   4.263   6.565   7.111  1.1697 -2.9608 -1.5031
   91SAPS   H8Y 8912   4.126   6.456   7.139 -0.7170  0.2669  0.4731
   91SAPS   C39 8913   4.064   6.657   7.165  0.4348  0.2832 -0.7529
   91SAPS   H9X 8914   3.961   6.616   7.161  0.8687 -1.4895  2.5341
   91SAPS   H9Y 8915   4.059   6.756   7.115 -1.1855  0.1620 -0.8805
   91SAPS  C310 8916   4.115   6.696   7.305 -0.1228 -0.2165  0.5195
   91SAPS  H10X 8917   4.067   6.789   7.343 -1.9871 -0.7835 -0.3238
   91SAPS  H10Y 8918   4.224   6.714   7.310  0.0993 -0.8386 -1.3178
   91SAPS  C311 8919   4.089   6.584   7.405  0.1210 -0.2886 -0.3361
   91SAPS  H11X 8920   4.094   6.482   7.362  1.2050 -0.2199 -0.4097
   91SAPS  H11Y 8921   3.985   6.608   7.436  0.2956 -0.2656  0.2390
   91SAPS  C312 8922   4.168   6.601   7.538 -0.0267 -0.1059  0.2828
   91SAPS  H12X 8923   4.162   6.706   7.572 -1.0934  0.1417 -0.5913
   91SAPS  H12Y 8924   4.276   6.584   7.516 -0.6667 -2.5315 -1.4213
   91SAPS  C313 8925   4.128   6.515   7.661 -0.3782  0.1984 -0.6723
   91SAPS  H13X 8926   4.124   6.408   7.632  2.6861  0.1818 -1.4022
   91SAPS  H13Y 8927   4.025   6.546   7.690 -0.1945  0.3838 -0.2066
   91SAPS  C314 8928   4.221   6.528   7.780  0.8427 -0.6402 -0.7847
   91SAPS  H14X 8929   4.225   6.637   7.804 -2.3951 -0.2411 -1.6613
   91SAPS  H14Y 8930   4.323   6.493   7.753  1.8655  1.1742  0.4736
   91SAPS  C315 8931   4.178   6.446   7.908  0.1905 -0.4423 -0.0104
   91SAPS  H15X 8932   4.153   6.339   7.887  2.3633 -1.0524  0.3319
   91SAPS  H15Y 8933   4.078   6.481   7.942 -0.2466  0.4369 -2.0399
   91SAPS  C316 8934   4.287   6.444   8.015 -0.3424 -0.0540 -0.1971
   91SAPS  H16X 8935   4.384   6.414   7.971 -0.3223 -1.8924  0.9698
   91SAPS  H16Y 8936   4.268   6.361   8.087  0.5080  0.1246  0.2531
   91SAPS  C317 8937   4.306   6.576   8.078 -0.0357  0.4681 -0.3968
   91SAPS  H17X 8938   4.207   6.622   8.099 -1.0829 -1.2899 -1.2005
   91SAPS  H17Y 8939   4.355   6.638   8.000 -0.5958  0.7241 -0.5534
   91SAPS  C318 8940   4.361   6.576   8.228  0.0718  0.3808 -0.1644
   91SAPS  H18X 8941   4.380   6.681   8.259 -1.1940  0.1305  1.5826
   91SAPS  H18Y 8942   4.449   6.512   8.243 -0.4863 -0.0263  1.5123
   91SAPS  H18Z 8943   4.289   6.541   8.305  0.2963  1.1299  0.3946
   92SAPS     N 8944   4.347   4.569   5.771  0.0245  0.3157  0.3979
   92SAPS   HN1 8945   4.301   4.521   5.851  0.0286  0.8835  0.7408
   92SAPS   HN2 8946   4.369   4.500   5.697 -1.0137  0.4636 -0.0643
   92SAPS   HN3 8947   4.429   4.618   5.811  1.0721 -1.6826  0.8082
   92SAPS   C12 8948   4.242   4.656   5.707  0.1277 -0.0687 -0.5094
   92SAPS  H12A 8949   4.275   4.757   5.726  0.1689 -0.5815  2.7129
   92SAPS   C13 8950   4.221   4.622   5.560  0.1635 -1.0697 -0.5636
   92SAPS  O13A 8951   4.295   4.544   5.499  0.1624  0.4982  0.1382
   92SAPS  O13B 8952   4.156   4.712   5.502 -0.3324  0.2728  0.2848
   92SAPS   C11 8953   4.103   4.619   5.773 -0.6786  0.5824 -0.0234
   92SAPS  H11A 8954   4.088   4.511   5.749  0.7767  0.9031 -2.8102
   92SAPS  H11B 8955   4.023   4.678   5.724 -0.3966  0.7019 -0.3488
   92SAPS     P 8956   3.965   4.643   5.993 -0.0951 -0.5055 -0.2149
   92SAPS   O13 8957   3.910   4.777   5.961 -0.4357 -0.2871  0.2663
   92SAPS   O14 8958   3.885   4.528   5.942 -0.5182  0.5776  0.1709
   92SAPS   O12 8959   4.104   4.639   5.916 -0.7450  0.1857 -0.0103
   92SAPS   O11 8960   4.010   4.639   6.149  0.0842 -0.1699 -0.0748
   92SAPS    C1 8961   4.122   4.715   6.199 -0.6539 -0.4813 -0.0991
   92SAPS    HA 8962   4.153   4.803   6.138 -1.3804  1.1745  1.7893
   92SAPS    HB 8963   4.088   4.749   6.299 -0.4501  2.2201 -0.8753
   92SAPS    C2 8964   4.251   4.626   6.219  0.0938 -0.1887 -0.4166
   92SAPS    HS 8965   4.262   4.559   6.131  0.7142 -0.2128 -0.3244
   92SAPS   O21 8966   4.227   4.552   6.342  0.0234 -0.0079 -0.1369
   92SAPS   C21 8967   4.310   4.460   6.381 -0.2215  0.4163  0.3486
   92SAPS   O22 8968   4.416   4.420   6.335 -0.1873 -0.3086 -0.1975
   92SAPS   C22 8969   4.266   4.400   6.510  0.5134  0.3820 -0.9729
   92SAPS   H2R 8970   4.181   4.454   6.557  3.3682  2.6774  1.9434
   92SAPS   H2S 8971   4.235   4.297   6.481  1.3737  0.3076 -1.6831
   92SAPS    C3 8972   4.379   4.718   6.231 -0.7513 -0.3234 -0.3098
   92SAPS    HX 8973   4.378   4.789   6.146  0.9563 -0.6261 -0.6047
   92SAPS    HY 8974   4.469   4.655   6.215  0.4153  0.9169  1.1400
   92SAPS   O31 8975   4.390   4.784   6.361  0.2946  0.0721  0.2861
   92SAPS   C31 8976   4.350   4.913   6.366  0.3319 -0.0823  0.3596
   92SAPS   O32 8977   4.290   4.972   6.277 -0.2642  0.1842 -0.7523
   92SAPS   C32 8978   4.396   4.966   6.503  0.4008 -0.3472 -0.3368
   92SAPS   H2X 8979   4.504   4.991   6.496  0.7640 -2.0992 -2.0303
   92SAPS   H2Y 8980   4.388   4.883   6.576  2.4503 -0.0890  0.2314
   92SAPS   C23 8981   4.381   4.373   6.614 -0.1658 -0.3067  0.2782
   92SAPS   H3R 8982   4.436   4.285   6.575 -3.6434 -2.6392  0.2127
   92SAPS   H3S 8983   4.338   4.350   6.713 -1.4441  0.5364 -0.0551
   92SAPS   C24 8984   4.467   4.496   6.637  0.1633 -0.3960  0.1534
   92SAPS   H4R 8985   4.510   4.512   6.535  0.4042 -0.8011  0.1898
   92SAPS   H4S 8986   4.558   4.473   6.696 -0.0071 -0.4016  0.4154
   92SAPS   C25 8987   4.396   4.620   6.687  0.3441  0.1316  0.6292
   92SAPS   H5R 8988   4.343   4.669   6.604 -0.1178  0.3970  1.0748
   92SAPS   C26 8989   4.386   4.667   6.814 -0.0761 -0.3691 -1.1859
   92SAPS   H6R 8990   4.348   4.768   6.837  0.5774 -0.5340  0.7474
   92SAPS   C27 8991   4.449   4.602   6.934 -0.1408  0.3363 -0.3777
   92SAPS   H7R 8992   4.475   4.498   6.907 -0.9729  0.4680 -1.7309
   92SAPS   H7S 8993   4.377   4.589   7.018  0.6730 -0.0190  0.2863
   92SAPS   C28 8994   4.574   4.674   6.982 -0.2106 -0.6171 -0.0023
   92SAPS   H8R 8995   4.661   4.652   6.918  0.4101  1.3407  0.1134
   92SAPS   C29 8996   4.589   4.750   7.094  0.2080  0.3892  0.3946
   92SAPS   H9R 8997   4.687   4.781   7.133  0.1374  0.8717  0.1923
   92SAPS  C210 8998   4.473   4.781   7.184  0.7340 -0.0792  0.1130
   92SAPS  H10R 8999   4.381   4.777   7.122  1.7261 -1.1244 -1.3397
   92SAPS  H10S 9000   4.463   4.883   7.227 -0.2185  0.3523 -1.0727
   92SAPS  C211 9001   4.466   4.675   7.291  0.0327  0.6432 -0.3066
   92SAPS  H11R 9002   4.433   4.579   7.250 -0.5241  1.0734 -0.8851
   92SAPS  C212 9003   4.482   4.691   7.420 -0.7184  1.2527  0.1317
   92SAPS  H12R 9004   4.460   4.607   7.487  2.9811  2.0808  2.6652
   92SAPS  C213 9005   4.522   4.816   7.489  0.2376 -0.2872 -0.5276
   92SAPS  H13R 9006   4.534   4.900   7.418 -2.7911 -0.3041 -1.1878
   92SAPS  H13S 9007   4.617   4.805   7.546  0.5078  1.7954 -0.5193
   92SAPS  C214 9008   4.406   4.855   7.577  0.1774  0.3057  0.2948
   92SAPS  H14R 9009   4.321   4.888   7.516  0.2379  3.7651  1.8761
   92SAPS  C215 9010   4.386   4.830   7.704 -0.3446  0.1915 -0.7843
   92SAPS  H15R 9011   4.297   4.857   7.761  0.3087  1.9704 -0.5226
   92SAPS  C216 9012   4.508   4.791   7.790  0.6706  0.5220  0.3851
   92SAPS  H16R 9013   4.598   4.844   7.752  1.3238 -1.0093 -0.2714
   92SAPS  H16S 9014   4.525   4.683   7.772 -0.2995  0.2270  1.1285
   92SAPS  C217 9015   4.503   4.832   7.939 -0.2142  0.1456 -1.1782
   92SAPS  H17R 9016   4.477   4.939   7.952  1.0682  0.1876  2.2273
   92SAPS  H17S 9017   4.602   4.812   7.985 -1.0590 -2.4183 -0.2863
   92SAPS  C218 9018   4.397   4.756   8.018  0.9460 -0.1546 -0.0281
   92SAPS  H18R 9019   4.393   4.646   8.005 -2.3860 -0.2730  0.9681
   92SAPS  H18S 9020   4.291   4.788   8.003  0.7469  0.2036  1.8582
   92SAPS  C219 9021   4.398   4.773   8.171  0.5774  0.5655  0.4554
   92SAPS  H19R 9022   4.371   4.878   8.195 -0.8529  0.4406 -0.4800
   92SAPS  H19S 9023   4.506   4.770   8.199  0.4859 -2.9857  0.8704
   92SAPS  C220 9024   4.319   4.674   8.261  0.0384  0.4102 -0.6312
   92SAPS  H20R 9025   4.327   4.715   8.364  1.1294  1.2100 -1.0159
   92SAPS  H20S 9026   4.365   4.574   8.255  0.1373  0.4845 -1.2167
   92SAPS  H20T 9027   4.213   4.666   8.230  0.1679  1.2766 -1.3484
   92SAPS   C33 9028   4.312   5.095   6.547 -0.7687 -0.3762 -0.1097
   92SAPS   H3X 9029   4.205   5.071   6.565 -1.1782 -1.4019 -3.2619
   92SAPS   H3Y 9030   4.305   5.153   6.453  1.5577 -0.1387 -0.1874
   92SAPS   C34 9031   4.375   5.162   6.664  0.6818 -0.4445 -0.3118
   92SAPS   H4X 9032   4.375   5.273   6.654  2.6352 -0.3887 -0.1456
   92SAPS   H4Y 9033   4.483   5.137   6.667  0.9807  0.7917  2.3564
   92SAPS   C35 9034   4.313   5.128   6.800  0.3562  0.3998 -0.3764
   92SAPS   H5X 9035   4.304   5.019   6.817  1.1419 -0.2155 -3.3586
   92SAPS   H5Y 9036   4.208   5.165   6.798  0.8740  1.9273 -0.9286
   92SAPS   C36 9037   4.389   5.190   6.916 -0.0384 -0.4435  0.5004
   92SAPS   H6X 9038   4.366   5.298   6.911  1.6990 -0.0663 -0.1833
   92SAPS   H6Y 9039   4.497   5.184   6.892 -0.1841 -1.6479  0.0684
   92SAPS   C37 9040   4.359   5.129   7.054  0.1947  0.1002  0.1806
   92SAPS   H7X 9041   4.390   5.023   7.063  1.1802  0.4703  1.4714
   92SAPS   H7Y 9042   4.258   5.160   7.089 -0.2534 -0.3399 -0.6778
   92SAPS   C38 9043   4.446   5.208   7.152  0.0370 -0.6938 -1.1736
   92SAPS   H8X 9044   4.443   5.316   7.126  2.6872 -0.1641  0.3151
   92SAPS   H8Y 9045   4.554   5.184   7.146  0.4037  0.9843 -1.8332
   92SAPS   C39 9046   4.410   5.195   7.306  0.0402  0.1535  0.1782
   92SAPS   H9X 9047   4.407   5.090   7.341 -2.4615 -0.3704 -1.3747
   92SAPS   H9Y 9048   4.305   5.231   7.310 -1.6606 -3.3837 -4.1737
   92SAPS  C310 9049   4.502   5.264   7.407 -0.7560 -1.0726 -0.1535
   92SAPS  H10X 9050   4.549   5.354   7.362  0.9285 -2.8884 -2.2626
   92SAPS  H10Y 9051   4.588   5.203   7.440  0.9457  1.4733  0.3715
   92SAPS  C311 9052   4.414   5.316   7.525  0.3050  0.3828  0.0484
   92SAPS  H11X 9053   4.338   5.381   7.475 -1.5066 -2.2562 -0.8295
   92SAPS  H11Y 9054   4.477   5.380   7.590  1.6828 -0.2769 -0.6155
   92SAPS  C312 9055   4.336   5.213   7.602  0.3205  0.0560  1.1801
   92SAPS  H12X 9056   4.406   5.162   7.672  0.1379 -0.9287  0.6722
   92SAPS  H12Y 9057   4.277   5.133   7.552  0.5147 -0.6771  2.0829
   92SAPS  C313 9058   4.245   5.278   7.702  0.4560 -0.1713  0.6884
   92SAPS  H13X 9059   4.162   5.320   7.642  1.2587 -1.1384 -1.1982
   92SAPS  H13Y 9060   4.286   5.372   7.744 -4.7810  1.4153  3.1317
   92SAPS  C314 9061   4.209   5.188   7.815  0.0118  0.2447  0.6319
   92SAPS  H14X 9062   4.302   5.161   7.869 -0.3817  0.3294  1.3693
   92SAPS  H14Y 9063   4.156   5.099   7.775  2.4778 -0.2031 -1.9628
   92SAPS  C315 9064   4.124   5.263   7.928 -0.6836  0.0035  0.0349
   92SAPS  H15X 9065   4.024   5.289   7.886 -0.8820 -0.8101 -0.0173
   92SAPS  H15Y 9066   4.185   5.353   7.952  2.7708 -2.3772  0.9095
   92SAPS  C316 9067   4.116   5.182   8.056  0.3732  1.2668  0.3188
   92SAPS  H16X 9068   4.217   5.139   8.075  0.6738  1.1536 -1.4298
   92SAPS  H16Y 9069   4.049   5.097   8.029 -1.2947  1.9435  2.0287
   92SAPS  C317 9070   4.089   5.272   8.172  0.0769  0.0667  0.5308
   92SAPS  H17X 9071   4.165   5.351   8.190 -0.4245  0.3663  1.3529
   92SAPS  H17Y 9072   4.095   5.215   8.267  1.2949  0.1575  0.5307
   92SAPS  C318 9073   3.949   5.337   8.159  0.0095  0.3541  0.2155
   92SAPS  H18X 9074   3.932   5.409   8.242 -0.1125  1.3646 -0.6686
   92SAPS  H18Y 9075   3.870   5.261   8.145 -1.8638  2.2207  0.1161
   92SAPS  H18Z 9076   3.941   5.403   8.070 -0.1528 -0.9682 -0.7830
   93SAPS     N 9077   4.291   0.270   5.648  0.2066  0.5606 -0.2561
   93SAPS   HN1 9078   4.254   0.194   5.708 -1.4153  0.2892 -1.5248
   93SAPS   HN2 9079   4.320   0.226   5.559 -1.1004  1.4817 -1.1693
   93SAPS   HN3 9080   4.374   0.308   5.697 -1.4445  1.3730  2.1124
   93SAPS   C12 9081   4.196   0.373   5.630  0.3941 -0.1705  0.2581
   93SAPS  H12A 9082   4.222   0.449   5.702 -0.2557  0.9814 -0.6891
   93SAPS   C13 9083   4.190   0.423   5.489  0.2712 -0.0550  0.2975
   93SAPS  O13A 9084   4.284   0.395   5.408  0.3174  0.1927 -0.2817
   93SAPS  O13B 9085   4.106   0.511   5.465 -0.1740 -0.1266  0.2973
   93SAPS   C11 9086   4.058   0.316   5.680  0.0193 -0.5239  0.1595
   93SAPS  H11A 9087   4.026   0.246   5.600  1.0799 -1.8557  0.8594
   93SAPS  H11B 9088   3.985   0.395   5.706 -1.0785 -0.3789 -2.9615
   93SAPS     P 9089   3.959   0.180   5.883  0.4210  0.3037  0.8078
   93SAPS   O13 9090   3.883   0.094   5.793  0.0484  0.9106  0.6653
   93SAPS   O14 9091   4.008   0.109   6.004  0.2745  0.4332  0.1242
   93SAPS   O12 9092   4.078   0.231   5.796 -0.1812 -0.2214 -0.0206
   93SAPS   O11 9093   3.872   0.311   5.915 -0.3610  0.1713 -0.3089
   93SAPS    C1 9094   3.935   0.424   5.982  0.3646  0.7325  0.5192
   93SAPS    HA 9095   4.036   0.431   5.936 -1.2927  0.1658 -3.7376
   93SAPS    HB 9096   3.886   0.518   5.950 -2.8649 -0.0255  2.7814
   93SAPS    C2 9097   3.914   0.427   6.133  0.2047  0.0801  0.0512
   93SAPS    HS 9098   3.959   0.523   6.169  2.1354 -1.3374  1.6075
   93SAPS   O21 9099   3.986   0.320   6.200  0.0845  0.0765 -0.1850
   93SAPS   C21 9100   4.119   0.318   6.186  0.3495 -0.0136 -0.6159
   93SAPS   O22 9101   4.179   0.402   6.118  0.4670  0.1372 -0.1317
   93SAPS   C22 9102   4.182   0.204   6.264  0.3376 -1.0773 -1.3340
   93SAPS   H2R 9103   4.099   0.168   6.328  1.6287  2.2677  2.6832
   93SAPS   H2S 9104   4.213   0.127   6.189  0.3211 -2.6261  0.1967
   93SAPS    C3 9105   3.762   0.426   6.166 -0.1002  0.4167  0.3897
   93SAPS    HX 9106   3.711   0.335   6.129 -2.2296  1.0669  1.5441
   93SAPS    HY 9107   3.713   0.507   6.108 -1.7845 -0.6305  0.3021
   93SAPS   O31 9108   3.735   0.438   6.309 -0.5016 -0.0659  0.1503
   93SAPS   C31 9109   3.759   0.559   6.362  0.2005 -0.7390 -0.0041
   93SAPS   O32 9110   3.804   0.655   6.302 -0.8310 -0.3020 -0.4369
   93SAPS   C32 9111   3.721   0.556   6.509 -0.0347  0.3550  0.1456
   93SAPS   H2X 9112   3.758   0.460   6.550  0.9085  1.1864  1.3177
   93SAPS   H2Y 9113   3.611   0.569   6.519  0.1563  0.5522  2.9307
   93SAPS   C23 9114   4.306   0.240   6.348 -0.1107  0.2308  0.0881
   93SAPS   H3R 9115   4.297   0.339   6.395  0.0934  0.4634 -0.3535
   93SAPS   H3S 9116   4.395   0.245   6.281 -0.7139  1.2269 -0.6678
   93SAPS   C24 9117   4.327   0.146   6.470 -0.0573  0.5987 -0.0428
   93SAPS   H4R 9118   4.428   0.169   6.509 -0.1734 -0.1503  0.7302
   93SAPS   H4S 9119   4.321   0.041   6.434 -1.0007  0.7950 -0.4962
   93SAPS   C25 9120   4.217   0.160   6.575 -0.7149 -0.5964 -0.2645
   93SAPS   H5R 9121   4.121   0.204   6.542 -0.3076  0.7475  0.2586
   93SAPS   C26 9122   4.220   0.099   6.698 -0.2788  0.0681 -0.0718
   93SAPS   H6R 9123   4.140   0.111   6.773 -1.1399 -2.2583 -0.5559
   93SAPS   C27 9124   4.342   0.025   6.751 -0.9881 -0.0095  0.3511
   93SAPS   H7R 9125   4.430   0.081   6.713 -0.8068 -0.1295  0.5861
   93SAPS   H7S 9126   4.342  -0.074   6.702 -3.7409  0.6725 -1.2155
   93SAPS   C28 9127   4.357   0.001   6.903 -0.1051  0.5318 -0.3837
   93SAPS   H8R 9128   4.398  -0.097   6.933 -0.8371  0.1763 -0.4937
   93SAPS   C29 9129   4.327   0.092   7.008 -0.8115  1.4763  0.5183
   93SAPS   H9R 9130   4.344   0.059   7.111  2.4335 -0.2707 -0.4267
   93SAPS  C210 9131   4.267   0.226   7.005  0.4721 -0.5093  0.0908
   93SAPS  H10R 9132   4.266   0.266   6.902 -2.6706 -1.4029 -0.3351
   93SAPS  H10S 9133   4.329   0.296   7.066 -0.1690 -1.0546  1.4189
   93SAPS  C211 9134   4.119   0.240   7.050 -0.0833  0.0560  0.3970
   93SAPS  H11R 9135   4.043   0.208   6.977 -1.0147 -1.1734  1.8559
   93SAPS  C212 9136   4.090   0.262   7.179  0.1056 -0.5845 -0.4338
   93SAPS  H12R 9137   3.984   0.264   7.206  0.6940 -2.4596  2.5027
   93SAPS  C213 9138   4.193   0.297   7.289 -0.1149 -0.4643  0.9752
   93SAPS  H13R 9139   4.266   0.378   7.269 -0.3335 -0.0924  1.6431
   93SAPS  H13S 9140   4.260   0.208   7.282 -0.5603 -0.6894 -1.6177
   93SAPS  C214 9141   4.137   0.323   7.425  0.2344  0.2730  0.4874
   93SAPS  H14R 9142   4.054   0.395   7.431 -0.8948 -1.1177  3.2246
   93SAPS  C215 9143   4.177   0.269   7.546  0.4837 -0.1635 -0.0753
   93SAPS  H15R 9144   4.127   0.285   7.643  2.2181 -4.0082  1.6829
   93SAPS  C216 9145   4.298   0.180   7.561 -0.1464  0.1163  0.7307
   93SAPS  H16R 9146   4.402   0.216   7.546 -0.5152  1.7443  1.8611
   93SAPS  H16S 9147   4.286   0.101   7.484 -0.5677  0.3369  0.5652
   93SAPS  C217 9148   4.290   0.090   7.691  0.0694 -0.0411 -0.6805
   93SAPS  H17R 9149   4.368   0.014   7.670  0.1119 -0.2827  0.2909
   93SAPS  H17S 9150   4.198   0.028   7.700  1.7408 -2.5144  0.6518
   93SAPS  C218 9151   4.313   0.167   7.820 -0.4663 -0.2548  0.0380
   93SAPS  H18R 9152   4.238   0.249   7.820  0.4726  0.6260  0.2192
   93SAPS  H18S 9153   4.414   0.212   7.821 -0.5992  0.0526 -0.1949
   93SAPS  C219 9154   4.317   0.075   7.943  0.1816 -0.1489  0.2857
   93SAPS  H19R 9155   4.343   0.140   8.029  4.1391 -1.9987  0.6848
   93SAPS  H19S 9156   4.404   0.007   7.936  0.1742 -0.1371  0.0602
   93SAPS  C220 9157   4.182   0.011   7.979 -0.5400  0.0536 -0.3297
   93SAPS  H20R 9158   4.094   0.079   7.983 -0.4948  0.1210 -0.4713
   93SAPS  H20S 9159   4.194  -0.026   8.083 -0.1558  1.3220  0.0980
   93SAPS  H20T 9160   4.164  -0.079   7.916  1.0115  0.1176 -0.9178
   93SAPS   C33 9161   3.777   0.676   6.586 -0.3470 -0.1747 -0.3496
   93SAPS   H3X 9162   3.745   0.769   6.535  0.9002  1.0428  1.0004
   93SAPS   H3Y 9163   3.888   0.670   6.590 -0.3779 -0.2149  1.4678
   93SAPS   C34 9164   3.720   0.684   6.727 -0.1604  0.2012  0.3742
   93SAPS   H4X 9165   3.616   0.714   6.748  0.4436  1.1560  2.2260
   93SAPS   H4Y 9166   3.771   0.769   6.776  2.0600 -0.5743 -0.4163
   93SAPS   C35 9167   3.755   0.563   6.813 -0.2964  0.2058  0.5899
   93SAPS   H5X 9168   3.851   0.510   6.797 -1.2295 -1.2176 -0.5489
   93SAPS   H5Y 9169   3.676   0.491   6.785  0.4542  0.2080 -1.7308
   93SAPS   C36 9170   3.735   0.579   6.964 -0.4725 -1.2727 -0.2265
   93SAPS   H6X 9171   3.705   0.481   7.009 -0.4262 -1.0327  0.3329
   93SAPS   H6Y 9172   3.646   0.645   6.967  0.4308 -0.0511  0.7865
   93SAPS   C37 9173   3.855   0.643   7.035 -0.4222  0.8014  0.0852
   93SAPS   H7X 9174   3.891   0.734   6.981  2.2136 -0.4482 -0.3921
   93SAPS   H7Y 9175   3.929   0.561   7.037  0.1803  1.3021 -0.8289
   93SAPS   C38 9176   3.833   0.668   7.182  0.5038  0.1252 -0.0636
   93SAPS   H8X 9177   3.738   0.725   7.178  0.6670  0.4225  0.2366
   93SAPS   H8Y 9178   3.911   0.740   7.216 -1.2219  1.5608  1.0560
   93SAPS   C39 9179   3.827   0.541   7.272 -0.2528  0.4700 -0.3120
   93SAPS   H9X 9180   3.921   0.486   7.253 -1.7181 -1.7955 -1.4777
   93SAPS   H9Y 9181   3.742   0.477   7.239 -0.9940  0.4368  1.5747
   93SAPS  C310 9182   3.785   0.567   7.422 -0.3137 -0.2508  0.2266
   93SAPS  H10X 9183   3.788   0.476   7.487  0.9511 -0.6699 -0.3810
   93SAPS  H10Y 9184   3.681   0.604   7.435  0.3207  0.9016  2.7536
   93SAPS  C311 9185   3.873   0.670   7.486  0.1209 -0.2401 -0.1305
   93SAPS  H11X 9186   3.848   0.770   7.445  1.9098  1.0622  1.7737
   93SAPS  H11Y 9187   3.983   0.654   7.475  0.0117 -0.5308 -0.9129
   93SAPS  C312 9188   3.845   0.679   7.637  0.4875 -0.8260  0.3359
   93SAPS  H12X 9189   3.746   0.726   7.654  0.5223 -0.5625 -0.1742
   93SAPS  H12Y 9190   3.909   0.762   7.673 -0.9895 -0.4220  2.1781
   93SAPS  C313 9191   3.881   0.555   7.721 -0.0592  0.5675 -0.1039
   93SAPS  H13X 9192   3.968   0.494   7.689 -1.0578 -1.0089  0.0699
   93SAPS  H13Y 9193   3.788   0.495   7.718 -0.0075  0.4372  0.7207
   93SAPS  C314 9194   3.908   0.594   7.870  0.5432  0.0434  0.3248
   93SAPS  H14X 9195   3.807   0.638   7.888 -0.0715 -1.3851  0.4690
   93SAPS  H14Y 9196   3.982   0.677   7.880 -1.6191  2.0360  0.7463
   93SAPS  C315 9197   3.928   0.479   7.968  0.6555 -0.1447 -0.4363
   93SAPS  H15X 9198   4.013   0.419   7.928  1.0851 -0.1928  0.5241
   93SAPS  H15Y 9199   3.836   0.417   7.960  0.6627 -0.2657  0.3302
   93SAPS  C316 9200   3.932   0.508   8.116 -0.9481 -0.3112  0.7345
   93SAPS  H16X 9201   4.025   0.558   8.150 -1.7692  1.6762  0.1446
   93SAPS  H16Y 9202   3.943   0.407   8.163  1.1852 -0.6436 -0.3396
   93SAPS  C317 9203   3.816   0.582   8.174  0.0046  0.8666  0.4582
   93SAPS  H17X 9204   3.797   0.677   8.119 -2.6972  0.0753 -0.1589
   93SAPS  H17Y 9205   3.843   0.606   8.279  0.2836 -3.1700  1.4743
   93SAPS  C318 9206   3.687   0.501   8.178 -0.0373 -0.4484  0.0277
   93SAPS  H18X 9207   3.613   0.577   8.211  0.8001  0.1445  0.5527
   93SAPS  H18Y 9208   3.695   0.417   8.249  1.4836 -1.0058 -0.7572
   93SAPS  H18Z 9209   3.661   0.460   8.078  0.0133 -1.1101  0.2867
   94SAPS     N 9210   3.896   1.669   5.793  0.4411  0.4914  0.5561
   94SAPS   HN1 9211   3.898   1.740   5.870  1.9988  0.2134  0.7900
   94SAPS   HN2 9212   3.986   1.617   5.789  1.4823  1.9042  3.0060
   94SAPS   HN3 9213   3.872   1.719   5.705  0.1271 -1.1182 -0.3076
   94SAPS   C12 9214   3.779   1.590   5.816  0.4569  0.4386 -0.0735
   94SAPS  H12A 9215   3.772   1.559   5.919 -1.4933 -1.0060 -0.5615
   94SAPS   C13 9216   3.642   1.647   5.783 -0.5009 -0.3252  0.1486
   94SAPS  O13A 9217   3.638   1.772   5.780  0.0920 -0.0530  0.2914
   94SAPS  O13B 9218   3.536   1.578   5.796 -0.0099 -0.2672 -0.6961
   94SAPS   C11 9219   3.797   1.455   5.758  0.3826 -0.0813  0.8555
   94SAPS  H11A 9220   3.825   1.474   5.652  0.2440  3.3081  1.2906
   94SAPS  H11B 9221   3.703   1.397   5.746  0.5368 -0.1499 -0.1455
   94SAPS     P 9222   3.881   1.240   5.894 -0.3965  0.3728 -0.3952
   94SAPS   O13 9223   3.935   1.128   5.824  0.0676  0.3555  0.6899
   94SAPS   O14 9224   3.923   1.257   6.032  0.1139 -0.1876 -0.2538
   94SAPS   O12 9225   3.899   1.372   5.815 -0.0199 -0.0336  0.1303
   94SAPS   O11 9226   3.726   1.219   5.898 -0.9598 -0.2501  0.4258
   94SAPS    C1 9227   3.646   1.244   6.017 -0.3769  0.2410 -0.5707
   94SAPS    HA 9228   3.697   1.306   6.095  0.1591 -0.3686 -0.4265
   94SAPS    HB 9229   3.557   1.305   5.991 -0.2319  1.5302  1.6344
   94SAPS    C2 9230   3.608   1.107   6.090 -0.1724  0.1022 -0.0837
   94SAPS    HS 9231   3.508   1.125   6.135 -0.0889 -1.8747  1.0264
   94SAPS   O21 9232   3.704   1.055   6.181 -0.4062  0.4582 -0.0231
   94SAPS   C21 9233   3.738   1.139   6.284 -0.1237  0.2273 -0.2519
   94SAPS   O22 9234   3.660   1.226   6.321 -0.1483  0.5637  0.6033
   94SAPS   C22 9235   3.865   1.084   6.359 -0.6971  0.0438 -0.2927
   94SAPS   H2R 9236   3.846   0.976   6.376 -1.8329  0.5655  2.0600
   94SAPS   H2S 9237   3.949   1.102   6.287  1.0266  3.4582  2.2991
   94SAPS    C3 9238   3.584   0.997   5.987  0.4006  0.1054  0.0581
   94SAPS    HX 9239   3.676   0.997   5.923  2.1085  0.9610  2.3677
   94SAPS    HY 9240   3.503   1.026   5.916  2.5765  1.5118 -2.0198
   94SAPS   O31 9241   3.555   0.862   6.036  0.0649  0.6752 -0.0067
   94SAPS   C31 9242   3.451   0.828   6.122  0.2793 -0.3830  0.1039
   94SAPS   O32 9243   3.372   0.913   6.162 -0.6028  0.2925  0.2890
   94SAPS   C32 9244   3.449   0.689   6.182 -0.3847 -0.3169 -0.6763
   94SAPS   H2X 9245   3.556   0.666   6.198 -0.2462 -0.7750 -2.0700
   94SAPS   H2Y 9246   3.400   0.617   6.112 -0.5216  0.4053 -1.3307
   94SAPS   C23 9247   3.894   1.157   6.499 -0.3529  0.2778  0.8128
   94SAPS   H3R 9248   3.807   1.143   6.567  0.3382 -1.2879  1.4263
   94SAPS   H3S 9249   3.899   1.265   6.475 -0.6576 -0.4427 -3.1763
   94SAPS   C24 9250   4.023   1.105   6.557  0.1179  0.3464 -0.1392
   94SAPS   H4R 9251   4.060   1.168   6.641 -0.6606 -1.8630  1.9737
   94SAPS   H4S 9252   4.104   1.100   6.481  0.9938  0.8853  0.7366
   94SAPS   C25 9253   4.017   0.962   6.621 -0.3565  0.0157 -0.3840
   94SAPS   H5R 9254   4.042   0.881   6.551 -0.2041  0.1309 -0.4633
   94SAPS   C26 9255   3.989   0.930   6.753 -0.5780  0.2085 -0.1742
   94SAPS   H6R 9256   3.974   0.823   6.773  0.0267 -0.2861 -2.1069
   94SAPS   C27 9257   3.943   1.026   6.856  0.1317  0.2205  0.5707
   94SAPS   H7R 9258   3.985   1.128   6.837 -2.2653  0.8304 -2.2030
   94SAPS   H7S 9259   3.998   1.001   6.949  2.3556  1.5534 -0.2916
   94SAPS   C28 9260   3.796   1.047   6.867  0.4616  0.7922 -0.3540
   94SAPS   H8R 9261   3.737   1.003   6.785  0.6121  1.0966 -0.6257
   94SAPS   C29 9262   3.727   1.104   6.969 -0.5326  0.3935  0.1043
   94SAPS   H9R 9263   3.617   1.105   6.962 -0.5818 -2.0150 -0.2919
   94SAPS  C210 9264   3.787   1.193   7.073  0.1168  1.3130 -0.0762
   94SAPS  H10R 9265   3.703   1.265   7.083 -0.2524  1.1712 -1.8288
   94SAPS  H10S 9266   3.876   1.244   7.030 -1.3002  2.3309 -1.9302
   94SAPS  C211 9267   3.803   1.134   7.209  0.1044  0.1595 -0.0751
   94SAPS  H11R 9268   3.879   1.054   7.210  0.6035  0.6055  2.1663
   94SAPS  C212 9269   3.753   1.165   7.328 -0.5897  0.0777  0.3648
   94SAPS  H12R 9270   3.791   1.110   7.415  0.9326  3.8120  2.3018
   94SAPS  C213 9271   3.663   1.285   7.360 -0.3305 -0.5550  0.9024
   94SAPS  H13R 9272   3.664   1.358   7.276  0.8917 -1.4376  0.1106
   94SAPS  H13S 9273   3.693   1.338   7.453 -0.3441  1.5646 -0.2250
   94SAPS  C214 9274   3.522   1.228   7.361 -0.3239 -0.2763 -0.6577
   94SAPS  H14R 9275   3.463   1.244   7.269 -1.7539 -0.6226  0.1655
   94SAPS  C215 9276   3.453   1.175   7.467 -0.1591  0.5040 -0.3783
   94SAPS  H15R 9277   3.353   1.132   7.451  0.3430 -0.6311 -0.5253
   94SAPS  C216 9278   3.518   1.160   7.597  0.5825  0.5968  0.6798
   94SAPS  H16R 9279   3.447   1.218   7.660  0.2748  2.0031 -0.8917
   94SAPS  H16S 9280   3.621   1.201   7.608  1.5405 -1.5677  0.3002
   94SAPS  C217 9281   3.525   1.015   7.652 -0.2256 -0.4868 -0.1259
   94SAPS  H17R 9282   3.583   1.020   7.747 -0.5630 -0.8130  0.1023
   94SAPS  H17S 9283   3.574   0.942   7.583  0.0363  0.8473 -1.3975
   94SAPS  C218 9284   3.392   0.953   7.689  0.4847  0.3131 -0.1721
   94SAPS  H18R 9285   3.341   0.921   7.596 -0.6857 -0.3104  0.6473
   94SAPS  H18S 9286   3.319   1.024   7.734 -0.6362  1.4734 -3.5204
   94SAPS  C219 9287   3.390   0.822   7.771 -0.2050  0.5076 -0.0933
   94SAPS  H19R 9288   3.438   0.733   7.725 -1.3036  0.4139 -1.1140
   94SAPS  H19S 9289   3.285   0.793   7.795 -0.5555 -1.9202 -3.7637
   94SAPS  C220 9290   3.470   0.828   7.903 -0.3209  0.2941  0.1887
   94SAPS  H20R 9291   3.577   0.852   7.889 -0.6106 -0.0201 -3.2500
   94SAPS  H20S 9292   3.473   0.729   7.952  0.1713 -0.2749 -0.9691
   94SAPS  H20T 9293   3.426   0.899   7.977 -2.9039 -0.8746 -0.1128
   94SAPS   C33 9294   3.367   0.677   6.320 -0.8226  0.3073 -0.1203
   94SAPS   H3X 9295   3.263   0.716   6.319 -1.6024 -1.6409  0.5798
   94SAPS   H3Y 9296   3.436   0.728   6.391  2.0308 -2.2867 -0.8160
   94SAPS   C34 9297   3.369   0.532   6.362 -0.6864 -1.0427 -0.8845
   94SAPS   H4X 9298   3.466   0.480   6.347  1.2278  1.7573  0.8096
   94SAPS   H4Y 9299   3.308   0.475   6.288 -0.9258  0.1266 -1.6281
   94SAPS   C35 9300   3.320   0.514   6.503 -0.2383  0.2870  0.4495
   94SAPS   H5X 9301   3.227   0.575   6.497 -0.8621 -0.7869 -2.2575
   94SAPS   H5Y 9302   3.393   0.554   6.577 -0.2015 -0.3124  0.7450
   94SAPS   C36 9303   3.302   0.369   6.543 -0.5054 -0.0572 -0.0713
   94SAPS   H6X 9304   3.402   0.321   6.540 -0.4090  0.1842 -2.1390
   94SAPS   H6Y 9305   3.239   0.319   6.466  1.4892 -0.9340 -1.2119
   94SAPS   C37 9306   3.237   0.342   6.687  0.2330  0.0121  0.3454
   94SAPS   H7X 9307   3.227   0.231   6.697  0.4247  0.0776  1.3448
   94SAPS   H7Y 9308   3.136   0.388   6.695  0.8882  1.2944  1.6878
   94SAPS   C38 9309   3.314   0.399   6.797 -0.6421  0.2748 -0.6672
   94SAPS   H8X 9310   3.307   0.509   6.784 -1.3093  0.2772 -0.2833
   94SAPS   H8Y 9311   3.423   0.379   6.785 -0.2823  1.5175  0.2759
   94SAPS   C39 9312   3.257   0.367   6.936 -0.4187  0.4048  0.4748
   94SAPS   H9X 9313   3.261   0.257   6.954  1.3982  0.6038  1.4829
   94SAPS   H9Y 9314   3.151   0.399   6.950 -0.6945 -0.6560  0.9472
   94SAPS  C310 9315   3.357   0.422   7.048 -0.1099  0.0478  0.5819
   94SAPS  H10X 9316   3.332   0.530   7.046 -0.3399  0.0237 -2.0360
   94SAPS  H10Y 9317   3.463   0.397   7.024 -0.1729  0.3173  0.0020
   94SAPS  C311 9318   3.316   0.359   7.184  0.4547 -0.2161 -0.7631
   94SAPS  H11X 9319   3.333   0.249   7.185  2.2715  0.0228 -1.6843
   94SAPS  H11Y 9320   3.208   0.374   7.205  1.3532  4.5784  1.8625
   94SAPS  C312 9321   3.404   0.426   7.291 -0.0809  0.2210  0.1420
   94SAPS  H12X 9322   3.376   0.533   7.296  1.1085  0.5035  1.0024
   94SAPS  H12Y 9323   3.507   0.422   7.251 -0.5395  2.3113 -1.3947
   94SAPS  C313 9324   3.386   0.363   7.433  0.0506  0.0540  0.4332
   94SAPS  H13X 9325   3.465   0.398   7.503 -1.7711 -0.3755  2.8529
   94SAPS  H13Y 9326   3.396   0.253   7.430  0.3328  0.0871  0.1507
   94SAPS  C314 9327   3.248   0.394   7.495 -0.2769  0.0789 -0.0744
   94SAPS  H14X 9328   3.170   0.336   7.441  1.6573 -2.5971 -0.1722
   94SAPS  H14Y 9329   3.221   0.498   7.467  1.0571  1.0627  2.0123
   94SAPS  C315 9330   3.253   0.357   7.643  0.3865 -0.2375  0.2544
   94SAPS  H15X 9331   3.323   0.272   7.656 -0.8542 -1.0592  1.9829
   94SAPS  H15Y 9332   3.153   0.311   7.658  1.2504 -2.2007  0.4299
   94SAPS  C316 9333   3.271   0.476   7.738 -0.6938  0.0822  0.5334
   94SAPS  H16X 9334   3.187   0.543   7.712 -0.1103  1.0312  1.0448
   94SAPS  H16Y 9335   3.367   0.522   7.705 -1.0158 -0.3106 -1.0249
   94SAPS  C317 9336   3.286   0.437   7.882  0.4419 -0.2506  0.1530
   94SAPS  H17X 9337   3.190   0.391   7.915 -2.1246  2.1879 -3.1994
   94SAPS  H17Y 9338   3.312   0.533   7.932  3.6887 -0.8278 -0.2015
   94SAPS  C318 9339   3.404   0.348   7.909  0.3660  0.4791  0.1001
   94SAPS  H18X 9340   3.503   0.388   7.879  1.5208 -1.0082  1.7246
   94SAPS  H18Y 9341   3.387   0.249   7.862  2.0576 -0.0137  0.4564
   94SAPS  H18Z 9342   3.409   0.331   8.019 -1.5127 -0.4157  0.0930
   95SAPS     N 9343   0.415   3.848   5.949 -0.3473  0.1980  0.0821
   95SAPS   HN1 9344   0.338   3.779   5.962 -0.8300  0.7686  0.3367
   95SAPS   HN2 9345   0.484   3.831   6.025 -0.3856  2.0872  0.5915
   95SAPS   HN3 9346   0.372   3.940   5.971 -0.0069  0.4268 -0.2098
   95SAPS   C12 9347   0.476   3.837   5.819 -0.1721  0.3790 -0.5027
   95SAPS  H12A 9348   0.529   3.743   5.826  0.8110  1.0627  2.3321
   95SAPS   C13 9349   0.377   3.843   5.695  0.0157  0.3527  0.5311
   95SAPS  O13A 9350   0.252   3.852   5.711 -0.3932 -0.2639 -0.4552
   95SAPS  O13B 9351   0.429   3.862   5.582 -0.2345  0.0975 -0.6038
   95SAPS   C11 9352   0.587   3.943   5.796 -0.0950 -0.3386  1.2507
   95SAPS  H11A 9353   0.560   4.038   5.847  0.0650  1.2989 -1.4886
   95SAPS  H11B 9354   0.599   3.962   5.687 -0.5718 -1.6861  0.9511
   95SAPS     P 9355   0.831   3.993   5.892  0.2236 -0.4016  0.0396
   95SAPS   O13 9356   0.861   3.951   6.030 -0.2623  0.0930 -0.2109
   95SAPS   O14 9357   0.930   3.989   5.783  0.1750  0.2987  0.6483
   95SAPS   O12 9358   0.711   3.896   5.838 -0.4556 -0.4865  0.3434
   95SAPS   O11 9359   0.765   4.141   5.897 -0.0653  0.1624 -0.6039
   95SAPS    C1 9360   0.692   4.195   6.010 -0.3015 -0.1056  0.3177
   95SAPS    HA 9361   0.615   4.263   5.968  0.6719  1.5621  1.1534
   95SAPS    HB 9362   0.652   4.112   6.071 -0.8331  0.7864  1.2085
   95SAPS    C2 9363   0.791   4.280   6.091  0.0168 -0.4545 -0.0662
   95SAPS    HS 9364   0.887   4.224   6.105  0.3785  0.3466  0.7392
   95SAPS   O21 9365   0.730   4.291   6.216  0.0249 -0.1702  0.1370
   95SAPS   C21 9366   0.810   4.340   6.310 -0.0242 -0.6500 -0.2569
   95SAPS   O22 9367   0.928   4.368   6.288 -0.1533  0.5594  0.3636
   95SAPS   C22 9368   0.749   4.343   6.453 -0.1199  0.4832 -0.4208
   95SAPS   H2R 9369   0.813   4.407   6.518 -0.7413  0.1599  0.5281
   95SAPS   H2S 9370   0.655   4.399   6.437 -1.0755 -0.8423  0.3818
   95SAPS    C3 9371   0.834   4.413   6.014  0.1045 -0.1893 -0.4892
   95SAPS    HX 9372   0.880   4.379   5.919 -1.3002  0.3950 -1.4078
   95SAPS    HY 9373   0.908   4.474   6.069 -0.9334 -0.8388  1.7550
   95SAPS   O31 9374   0.721   4.486   5.963 -0.1132 -0.3614  0.1578
   95SAPS   C31 9375   0.663   4.568   6.057 -0.6676  0.2198  1.3112
   95SAPS   O32 9376   0.704   4.597   6.165  0.1161 -0.0577 -0.4011
   95SAPS   C32 9377   0.536   4.625   5.986  0.1450  0.4836  0.1595
   95SAPS   H2X 9378   0.479   4.551   5.926 -2.9931  1.9128  1.1972
   95SAPS   H2Y 9379   0.560   4.712   5.921 -0.5293  1.1158  0.7533
   95SAPS   C23 9380   0.724   4.199   6.520 -0.9206  0.0262 -0.0243
   95SAPS   H3R 9381   0.820   4.155   6.556 -1.9500 -2.7967 -0.4796
   95SAPS   H3S 9382   0.679   4.128   6.447  0.1097  0.2602 -0.9161
   95SAPS   C24 9383   0.636   4.207   6.644  0.7622  0.2513  0.4566
   95SAPS   H4R 9384   0.540   4.240   6.602  0.4300  3.5604  3.3761
   95SAPS   H4S 9385   0.671   4.289   6.710  0.3369  0.7295  0.0901
   95SAPS   C25 9386   0.606   4.071   6.710 -0.1935 -0.0417  0.1469
   95SAPS   H5R 9387   0.577   3.988   6.644 -1.6754 -0.9038  1.8051
   95SAPS   C26 9388   0.624   4.044   6.842  0.1504  0.3260  0.9199
   95SAPS   H6R 9389   0.590   3.949   6.886  0.3438  0.4397  1.3152
   95SAPS   C27 9390   0.661   4.144   6.944  0.4656  0.6451  0.2740
   95SAPS   H7R 9391   0.748   4.186   6.889  1.0279 -0.6590  0.1435
   95SAPS   H7S 9392   0.684   4.093   7.039 -2.5609 -2.8887 -0.6459
   95SAPS   C28 9393   0.568   4.257   6.981  0.0739 -0.3222  0.8950
   95SAPS   H8R 9394   0.479   4.255   6.916  0.8979  0.0599 -0.2761
   95SAPS   C29 9395   0.578   4.339   7.079  0.1826  0.5462  0.1904
   95SAPS   H9R 9396   0.511   4.426   7.085 -1.1662 -0.5133  1.2047
   95SAPS  C210 9397   0.685   4.351   7.184  0.3887 -0.0464  0.0566
   95SAPS  H10R 9398   0.738   4.449   7.184  0.7148 -0.1740  2.2209
   95SAPS  H10S 9399   0.764   4.273   7.176  1.0142  0.3157  2.0283
   95SAPS  C211 9400   0.639   4.314   7.323  0.1657 -0.4255 -0.1671
   95SAPS  H11R 9401   0.605   4.211   7.345 -1.5979  0.4830  1.6377
   95SAPS  C212 9402   0.649   4.388   7.434  0.7124  0.8935  0.0461
   95SAPS  H12R 9403   0.628   4.332   7.526 -0.6839 -1.0496 -1.3691
   95SAPS  C213 9404   0.710   4.523   7.448  0.0237 -0.4272 -0.1100
   95SAPS  H13R 9405   0.701   4.588   7.358  0.0591 -1.0375 -0.5630
   95SAPS  H13S 9406   0.820   4.511   7.454  0.0085 -1.7625 -1.8666
   95SAPS  C214 9407   0.649   4.604   7.563  0.1343  0.0748  0.9394
   95SAPS  H14R 9408   0.540   4.615   7.552  0.3648  2.0624  0.2776
   95SAPS  C215 9409   0.709   4.654   7.671 -0.3464  0.1845 -0.3321
   95SAPS  H15R 9410   0.654   4.727   7.733  2.1581  2.2108 -0.3271
   95SAPS  C216 9411   0.853   4.644   7.698  0.3872 -0.5534 -0.3114
   95SAPS  H16R 9412   0.917   4.682   7.616 -1.3203 -1.8329 -2.3420
   95SAPS  H16S 9413   0.884   4.537   7.707  0.7507 -0.6759 -2.4950
   95SAPS  C217 9414   0.904   4.717   7.825 -0.2580  0.4905  0.4299
   95SAPS  H17R 9415   0.866   4.821   7.825 -0.9366  0.2699  2.0625
   95SAPS  H17S 9416   1.014   4.733   7.818 -0.1307 -0.5964 -0.2852
   95SAPS  C218 9417   0.875   4.649   7.960  0.4529  0.3828  1.0666
   95SAPS  H18R 9418   0.933   4.554   7.963  0.7967  0.5377 -0.2774
   95SAPS  H18S 9419   0.767   4.621   7.958  0.3617  0.7552  0.5057
   95SAPS  C219 9420   0.908   4.733   8.077  0.0398  0.1442  0.8281
   95SAPS  H19R 9421   0.851   4.829   8.071 -1.2038 -0.6638 -1.7354
   95SAPS  H19S 9422   1.017   4.753   8.065  0.6109 -3.2709 -0.9744
   95SAPS  C220 9423   0.900   4.666   8.215 -0.2386  0.0843  0.0360
   95SAPS  H20R 9424   0.955   4.723   8.293  0.7730 -3.0497  1.7946
   95SAPS  H20S 9425   0.945   4.565   8.211 -1.4681 -0.4808  0.0173
   95SAPS  H20T 9426   0.792   4.657   8.239 -0.4080  2.4290  0.3967
   95SAPS   C33 9427   0.436   4.661   6.092 -0.4421 -0.1631 -0.6047
   95SAPS   H3X 9428   0.350   4.705   6.037 -0.1684  2.1887  0.7595
   95SAPS   H3Y 9429   0.480   4.726   6.170  1.1239 -0.4206 -1.2369
   95SAPS   C34 9430   0.376   4.543   6.169  1.0627 -0.2047  0.3237
   95SAPS   H4X 9431   0.451   4.481   6.223  1.3458 -0.2757 -0.1461
   95SAPS   H4Y 9432   0.323   4.476   6.098 -0.2822  0.8104  0.3250
   95SAPS   C35 9433   0.275   4.597   6.277 -0.6818  0.0156  0.5999
   95SAPS   H5X 9434   0.204   4.513   6.293  0.4649 -0.8241  1.4913
   95SAPS   H5Y 9435   0.202   4.672   6.240 -2.3054 -1.2189  1.1793
   95SAPS   C36 9436   0.340   4.651   6.403 -0.0891 -0.5146  0.1647
   95SAPS   H6X 9437   0.294   4.752   6.412 -1.9363 -0.9953 -2.6324
   95SAPS   H6Y 9438   0.451   4.651   6.393 -0.1704 -1.7076 -1.0528
   95SAPS   C37 9439   0.293   4.582   6.531 -0.2787 -0.5253 -0.6301
   95SAPS   H7X 9440   0.330   4.477   6.537 -3.5089 -1.7955 -0.7227
   95SAPS   H7Y 9441   0.182   4.577   6.537 -0.2402 -0.2123  0.5549
   95SAPS   C38 9442   0.337   4.650   6.663  0.0232 -0.5446  0.2137
   95SAPS   H8X 9443   0.314   4.758   6.670  0.1791 -0.5590  1.0286
   95SAPS   H8Y 9444   0.448   4.643   6.675 -0.0883 -0.0534  1.6273
   95SAPS   C39 9445   0.272   4.600   6.794  0.0438 -0.8280  0.3303
   95SAPS   H9X 9446   0.265   4.489   6.788 -0.3616 -0.8561  1.1804
   95SAPS   H9Y 9447   0.170   4.643   6.784 -0.1353 -0.9705  1.4413
   95SAPS  C310 9448   0.341   4.644   6.922  0.4570  0.2311 -0.2544
   95SAPS  H10X 9449   0.338   4.755   6.915 -1.1096  0.1716 -0.8033
   95SAPS  H10Y 9450   0.449   4.619   6.921  0.3667 -0.1811  0.2603
   95SAPS  C311 9451   0.270   4.580   7.043 -0.2658 -0.9696 -0.5163
   95SAPS  H11X 9452   0.286   4.473   7.068 -1.1306 -0.9998 -0.0557
   95SAPS  H11Y 9453   0.160   4.597   7.046  0.2059  3.1169  1.3497
   95SAPS  C312 9454   0.310   4.655   7.175 -0.4218  0.2716 -0.2413
   95SAPS  H12X 9455   0.281   4.760   7.157 -0.1370  0.0845 -1.8932
   95SAPS  H12Y 9456   0.419   4.643   7.193 -0.9061 -0.5889  2.6195
   95SAPS  C313 9457   0.232   4.616   7.301 -0.1228  0.2212 -0.1278
   95SAPS  H13X 9458   0.123   4.629   7.288 -0.3564  0.9330  2.2111
   95SAPS  H13Y 9459   0.262   4.685   7.382  1.9428  0.5401 -1.0864
   95SAPS  C314 9460   0.244   4.475   7.364 -0.7986 -0.1790 -0.1705
   95SAPS  H14X 9461   0.353   4.470   7.387 -0.9574  1.2336  1.0582
   95SAPS  H14Y 9462   0.209   4.397   7.294 -0.9917 -0.0653 -0.2018
   95SAPS  C315 9463   0.181   4.479   7.505  0.3320 -0.4490 -0.0921
   95SAPS  H15X 9464   0.211   4.577   7.546  2.5733 -0.8172 -0.7505
   95SAPS  H15Y 9465   0.229   4.411   7.578  2.3004  0.1137 -0.8138
   95SAPS  C316 9466   0.027   4.467   7.518  0.0704 -0.4554 -0.2638
   95SAPS  H16X 9467  -0.018   4.446   7.418 -1.2691  1.4345 -0.1105
   95SAPS  H16Y 9468  -0.022   4.556   7.562 -0.8910 -1.7606  1.4205
   95SAPS  C317 9469  -0.011   4.363   7.624 -0.8958  0.0525  0.6362
   95SAPS  H17X 9470   0.063   4.363   7.707  0.2050 -1.1049 -0.2983
   95SAPS  H17Y 9471  -0.017   4.260   7.582 -1.6148  0.0498  0.7316
   95SAPS  C318 9472  -0.144   4.398   7.682  0.0476 -0.1066  0.1765
   95SAPS  H18X 9473  -0.152   4.505   7.712  0.7838 -0.2249  0.8247
   95SAPS  H18Y 9474  -0.164   4.334   7.770  4.1423 -1.5321  0.2896
   95SAPS  H18Z 9475  -0.227   4.393   7.609 -1.3217  1.2931  1.5796
   96SAPS     N 9476   1.526   3.879   6.161  0.5672 -0.3416  0.0562
   96SAPS   HN1 9477   1.454   3.883   6.237 -0.6417  1.8463 -1.0947
   96SAPS   HN2 9478   1.617   3.861   6.207  0.8902 -1.2850 -0.9220
   96SAPS   HN3 9479   1.535   3.978   6.131 -1.0278 -0.7459 -1.9492
   96SAPS   C12 9480   1.490   3.781   6.061 -0.2945 -0.4218  0.6500
   96SAPS  H12A 9481   1.408   3.820   6.002  1.5394  0.6343 -1.3691
   96SAPS   C13 9482   1.600   3.770   5.948  0.4638 -0.0549 -0.2515
   96SAPS  O13A 9483   1.680   3.867   5.939  0.0289 -0.1229 -0.1336
   96SAPS  O13B 9484   1.580   3.694   5.853 -0.0603 -0.2222  0.1325
   96SAPS   C11 9485   1.464   3.647   6.134 -0.2485 -0.6145 -0.4196
   96SAPS  H11A 9486   1.557   3.627   6.191 -0.6742  1.6233  1.2295
   96SAPS  H11B 9487   1.460   3.564   6.061 -1.1376 -0.8476 -0.1112
   96SAPS     P 9488   1.225   3.578   6.214 -0.1623  0.1225 -0.0464
   96SAPS   O13 9489   1.104   3.663   6.225 -0.4256  0.1213  0.0574
   96SAPS   O14 9490   1.232   3.483   6.096 -0.3653  0.0922 -0.3364
   96SAPS   O12 9491   1.352   3.668   6.221 -0.2333  0.3990 -0.3668
   96SAPS   O11 9492   1.236   3.490   6.342  0.9296 -0.3689  0.4152
   96SAPS    C1 9493   1.350   3.478   6.428 -0.4016 -0.9341  0.1120
   96SAPS    HA 9494   1.382   3.373   6.444  0.0558 -0.6737  0.9894
   96SAPS    HB 9495   1.442   3.524   6.386 -0.6984  0.8688  1.3044
   96SAPS    C2 9496   1.328   3.539   6.562  0.5183  0.1998  0.2526
   96SAPS    HS 9497   1.421   3.516   6.618  1.7875  0.4567 -1.6649
   96SAPS   O21 9498   1.207   3.482   6.621  0.5114  0.1249 -0.2244
   96SAPS   C21 9499   1.226   3.373   6.694  0.5738  0.4908 -0.4066
   96SAPS   O22 9500   1.333   3.318   6.719 -0.2798  0.6941  0.0149
   96SAPS   C22 9501   1.097   3.339   6.772 -0.3792 -0.4509 -0.1688
   96SAPS   H2R 9502   1.005   3.362   6.716 -1.5390 -1.3303  1.2959
   96SAPS   H2S 9503   1.097   3.229   6.788  0.8355 -0.8370 -2.4986
   96SAPS    C3 9504   1.321   3.692   6.543  0.3862 -0.1181 -0.3120
   96SAPS    HX 9505   1.238   3.713   6.472  0.0463  0.2064  0.1744
   96SAPS    HY 9506   1.416   3.726   6.495 -0.1584 -0.5408 -1.7354
   96SAPS   O31 9507   1.296   3.755   6.674  0.1417  0.3842 -0.2294
   96SAPS   C31 9508   1.164   3.774   6.693  0.2397 -0.3810  0.5781
   96SAPS   O32 9509   1.073   3.753   6.610  0.6791  0.0783 -0.0197
   96SAPS   C32 9510   1.137   3.818   6.841  0.1154 -0.3223  0.2833
   96SAPS   H2X 9511   1.171   3.924   6.840 -2.4898  0.5764  0.6995
   96SAPS   H2Y 9512   1.205   3.757   6.906  1.7526  0.2421 -0.8324
   96SAPS   C23 9513   1.094   3.424   6.898 -0.8915  0.3024 -0.4469
   96SAPS   H3R 9514   1.121   3.531   6.880  1.5285 -0.1685  0.0605
   96SAPS   H3S 9515   1.171   3.396   6.972  0.7147  3.3360 -0.7941
   96SAPS   C24 9516   0.950   3.422   6.963  0.1639 -0.3760 -0.6018
   96SAPS   H4R 9517   0.881   3.452   6.880  1.8049  1.2208 -1.4817
   96SAPS   H4S 9518   0.949   3.503   7.039 -1.0203  0.6186 -1.6238
   96SAPS   C25 9519   0.911   3.287   7.013  0.0335  0.1038 -0.1189
   96SAPS   H5R 9520   0.895   3.210   6.936  0.6008  0.3909 -0.5343
   96SAPS   C26 9521   0.914   3.244   7.140 -0.2879  0.0282  0.4248
   96SAPS   H6R 9522   0.886   3.139   7.160 -0.2257  0.2007  1.4610
   96SAPS   C27 9523   0.950   3.318   7.259 -0.2067  0.7044 -0.0830
   96SAPS   H7R 9524   0.873   3.396   7.280  0.3253  1.2475 -0.0948
   96SAPS   H7S 9525   1.054   3.355   7.245  0.5722 -1.4645 -0.3065
   96SAPS   C28 9526   0.979   3.219   7.377  0.3744  0.3652  0.2963
   96SAPS   H8R 9527   1.083   3.188   7.390 -0.0700  0.1210  4.4058
   96SAPS   C29 9528   0.880   3.172   7.455 -0.0413  0.2063 -0.8482
   96SAPS   H9R 9529   0.910   3.119   7.546 -1.7275  2.1384  0.9526
   96SAPS  C210 9530   0.737   3.219   7.453 -0.2573 -0.3056  0.2397
   96SAPS  H10R 9531   0.675   3.129   7.431  2.3168 -2.4376  1.1642
   96SAPS  H10S 9532   0.710   3.285   7.368 -0.9164  1.2039  1.5824
   96SAPS  C211 9533   0.689   3.294   7.575 -0.7368 -0.2727 -0.2206
   96SAPS  H11R 9534   0.715   3.401   7.578 -1.7582 -0.0227  1.5402
   96SAPS  C212 9535   0.619   3.241   7.679  0.2270  0.6063 -0.1965
   96SAPS  H12R 9536   0.585   3.304   7.763  0.3367  0.2502  0.1162
   96SAPS  C213 9537   0.576   3.095   7.690 -0.2680  0.7550 -0.8012
   96SAPS  H13R 9538   0.635   3.048   7.772  1.4539 -0.6318 -2.7401
   96SAPS  H13S 9539   0.609   3.044   7.597 -0.5309  2.1911 -1.7100
   96SAPS  C214 9540   0.426   3.073   7.707  0.5532  0.5372  0.9396
   96SAPS  H14R 9541   0.369   3.131   7.632  0.7651  1.8069  1.7282
   96SAPS  C215 9542   0.366   2.997   7.806 -0.8400 -0.4697  0.0972
   96SAPS  H15R 9543   0.258   2.987   7.827 -0.2909 -1.2548  2.8684
   96SAPS  C216 9544   0.443   2.925   7.914 -0.3752 -0.1932  0.2506
   96SAPS  H16R 9545   0.409   2.944   8.018  0.6045 -3.6279  1.3019
   96SAPS  H16S 9546   0.552   2.947   7.918 -0.2989 -0.3352 -0.8827
   96SAPS  C217 9547   0.435   2.774   7.905 -0.7708  1.0012 -0.3967
   96SAPS  H17R 9548   0.510   2.727   7.973 -0.8610  1.0262 -0.2794
   96SAPS  H17S 9549   0.470   2.739   7.805 -0.6393 -1.7916  0.5442
   96SAPS  C218 9550   0.302   2.707   7.948  0.5956  0.1243  0.5974
   96SAPS  H18R 9551   0.263   2.679   7.848  2.6026  0.6626 -0.3811
   96SAPS  H18S 9552   0.222   2.762   8.002 -2.4987 -2.4205 -1.0232
   96SAPS  C219 9553   0.331   2.582   8.036 -0.0659  0.1674  0.8768
   96SAPS  H19R 9554   0.365   2.616   8.136 -0.4738  1.2185  0.6645
   96SAPS  H19S 9555   0.424   2.534   8.000  1.1683  1.9739  1.5262
   96SAPS  C220 9556   0.227   2.477   8.043  0.4384  0.0198 -0.0927
   96SAPS  H20R 9557   0.132   2.508   8.091  0.7532  0.0652  0.5053
   96SAPS  H20S 9558   0.260   2.393   8.107 -1.3671  0.2700  1.2255
   96SAPS  H20T 9559   0.188   2.435   7.947 -0.7813  0.2908  0.2679
   96SAPS   C33 9560   0.989   3.805   6.882 -1.1134 -0.2520 -0.3620
   96SAPS   H3X 9561   0.955   3.700   6.867 -3.1980  0.5385 -1.5887
   96SAPS   H3Y 9562   0.931   3.872   6.815 -0.1895  0.4995 -0.4187
   96SAPS   C34 9563   0.966   3.855   7.029  0.0937 -0.0912 -0.4675
   96SAPS   H4X 9564   0.869   3.822   7.072  0.1904 -0.0684 -0.2311
   96SAPS   H4Y 9565   0.957   3.965   7.014 -0.1998  0.1445  1.2908
   96SAPS   C35 9566   1.079   3.812   7.121 -0.1765 -0.0598  0.3286
   96SAPS   H5X 9567   1.166   3.880   7.111  0.5287 -0.6069  2.2208
   96SAPS   H5Y 9568   1.102   3.703   7.113 -2.0838 -0.4601 -0.2738
   96SAPS   C36 9569   1.044   3.833   7.264  0.4694  0.2012 -0.5322
   96SAPS   H6X 9570   0.949   3.783   7.295  1.4524 -1.5076 -0.1229
   96SAPS   H6Y 9571   1.023   3.938   7.294 -0.5941 -0.0248 -0.4305
   96SAPS   C37 9572   1.153   3.790   7.367  0.1296  0.0553  0.1252
   96SAPS   H7X 9573   1.255   3.830   7.349  0.3475  0.4386  2.0271
   96SAPS   H7Y 9574   1.160   3.680   7.349 -1.1137 -0.4000  2.1487
   96SAPS   C38 9575   1.112   3.825   7.517 -0.1167  0.5052 -0.1438
   96SAPS   H8X 9576   1.084   3.733   7.572 -1.2625  1.2994  0.6411
   96SAPS   H8Y 9577   1.022   3.890   7.516 -1.5950 -1.3870  1.0031
   96SAPS   C39 9578   1.220   3.904   7.595  0.2697 -0.3332  1.1981
   96SAPS   H9X 9579   1.313   3.848   7.573 -0.3642 -1.0844  0.3457
   96SAPS   H9Y 9580   1.207   3.892   7.704 -0.9604 -0.8585  1.0110
   96SAPS  C310 9581   1.225   4.047   7.545 -0.1507 -0.8728  0.6255
   96SAPS  H10X 9582   1.237   4.054   7.434 -1.0540 -1.6063  0.4656
   96SAPS  H10Y 9583   1.313   4.090   7.597 -0.3507  0.0555  0.2093
   96SAPS  C311 9584   1.101   4.135   7.581  0.0359 -0.2017  0.2842
   96SAPS  H11X 9585   1.017   4.118   7.511  0.2867  0.9974 -0.3318
   96SAPS  H11Y 9586   1.138   4.238   7.561 -1.1636  0.2139  0.1492
   96SAPS  C312 9587   1.053   4.134   7.730 -0.2253  0.3145 -0.4883
   96SAPS  H12X 9588   1.133   4.178   7.793 -0.7673  0.8327 -0.1473
   96SAPS  H12Y 9589   1.043   4.028   7.760 -0.0139  0.6157  0.6887
   96SAPS  C313 9590   0.916   4.198   7.743  0.1506 -0.2863  0.4254
   96SAPS  H13X 9591   0.854   4.144   7.668  0.1245  1.1516 -0.6402
   96SAPS  H13Y 9592   0.926   4.304   7.712 -0.8927  0.3229  2.0396
   96SAPS  C314 9593   0.855   4.222   7.879 -0.0992 -0.0819 -0.2990
   96SAPS  H14X 9594   0.752   4.258   7.859 -0.3756 -0.1492  0.8883
   96SAPS  H14Y 9595   0.898   4.306   7.938 -0.7330  0.7521 -1.0000
   96SAPS  C315 9596   0.842   4.091   7.957 -0.5332  0.2199  1.1257
   96SAPS  H15X 9597   0.939   4.037   7.965 -1.1325 -1.5920 -2.0313
   96SAPS  H15Y 9598   0.780   4.025   7.892  0.0866  1.1346 -0.4441
   96SAPS  C316 9599   0.765   4.109   8.091 -0.4642 -0.0499 -0.0017
   96SAPS  H16X 9600   0.734   4.011   8.133  0.0551 -0.6636 -1.0212
   96SAPS  H16Y 9601   0.670   4.166   8.077  0.4531  1.3056 -0.8587
   96SAPS  C317 9602   0.846   4.179   8.201 -0.1747 -0.5077 -0.2653
   96SAPS  H17X 9603   0.955   4.186   8.181 -0.1508  0.3194  0.1085
   96SAPS  H17Y 9604   0.837   4.119   8.294  0.6453 -2.4508 -1.3783
   96SAPS  C318 9605   0.802   4.323   8.220  0.1977 -0.1187  0.2436
   96SAPS  H18X 9606   0.845   4.356   8.316  0.2540  4.9258 -1.2686
   96SAPS  H18Y 9607   0.692   4.338   8.224 -0.1148 -1.1549 -2.4172
   96SAPS  H18Z 9608   0.838   4.378   8.131  2.0121  0.5886  1.3707
   97SAPS     N 9609   6.513   3.001   5.686  0.1760 -1.0228 -0.0734
   97SAPS   HN1 9610   6.451   3.066   5.633 -0.7164 -1.1598  0.7833
   97SAPS   HN2 9611   6.472   2.906   5.679  1.0157 -1.5269  1.4064
   97SAPS   HN3 9612   6.515   3.040   5.782 -0.4518 -1.3915  0.0901
   97SAPS   C12 9613   6.653   3.001   5.632 -0.3853 -0.4258  1.0313
   97SAPS  H12A 9614   6.713   2.945   5.703  0.9541 -0.8241 -0.3714
   97SAPS   C13 9615   6.666   2.945   5.488 -0.5547  0.2907  0.5852
   97SAPS  O13A 9616   6.560   2.897   5.433  0.1639  0.5062  0.4237
   97SAPS  O13B 9617   6.779   2.935   5.430 -0.2532 -0.2848 -0.0893
   97SAPS   C11 9618   6.714   3.149   5.612 -0.0032  0.3937 -0.3650
   97SAPS  H11A 9619   6.656   3.207   5.537 -0.8047 -1.6093 -1.3626
   97SAPS  H11B 9620   6.819   3.145   5.575 -0.1112  0.0187 -0.6352
   97SAPS     P 9621   6.816   3.290   5.815  0.3045 -0.0847 -0.1207
   97SAPS   O13 9622   6.926   3.299   5.717 -0.2035 -0.2630  0.6882
   97SAPS   O14 9623   6.769   3.417   5.879  0.1933 -0.1695 -0.0583
   97SAPS   O12 9624   6.697   3.219   5.741  0.3720 -0.2970 -0.5667
   97SAPS   O11 9625   6.867   3.188   5.924 -0.0415  0.0311 -0.7520
   97SAPS    C1 9626   6.791   3.072   5.955  0.6465 -0.2500  0.3741
   97SAPS    HA 9627   6.685   3.076   5.922  0.7294 -1.6399 -0.1179
   97SAPS    HB 9628   6.820   2.981   5.898 -2.0416 -0.1490 -1.3331
   97SAPS    C2 9629   6.794   3.036   6.104 -0.3123  0.0840  0.4170
   97SAPS    HS 9630   6.711   2.963   6.119 -1.6414  0.8014 -2.7501
   97SAPS   O21 9631   6.780   3.157   6.185  0.3721 -0.4457 -0.2110
   97SAPS   C21 9632   6.661   3.210   6.194 -0.3258 -0.5397  0.2720
   97SAPS   O22 9633   6.554   3.148   6.180 -0.4846 -0.0864  0.6217
   97SAPS   C22 9634   6.684   3.354   6.224  0.5532 -0.0332  0.0170
   97SAPS   H2R 9635   6.783   3.393   6.193  0.7965  0.6651  1.5805
   97SAPS   H2S 9636   6.617   3.415   6.159 -1.3027 -2.4962 -0.5189
   97SAPS    C3 9637   6.934   2.968   6.127 -0.7489 -0.1766 -0.1716
   97SAPS    HX 9638   7.008   3.049   6.112  0.2571 -1.1165 -0.3945
   97SAPS    HY 9639   6.957   2.904   6.039  0.0378  0.4033 -0.3918
   97SAPS   O31 9640   6.942   2.901   6.251 -0.3540  0.4287 -0.2479
   97SAPS   C31 9641   6.890   2.777   6.250 -0.6971 -0.1559  0.4121
   97SAPS   O32 9642   6.829   2.719   6.159 -0.1235 -0.1636 -0.0064
   97SAPS   C32 9643   6.892   2.723   6.390  0.2176  0.3823  0.2230
   97SAPS   H2X 9644   6.817   2.779   6.449 -0.5993 -0.1264 -0.3054
   97SAPS   H2Y 9645   6.994   2.742   6.431  0.8053 -0.9893 -0.5357
   97SAPS   C23 9646   6.645   3.377   6.375  0.1181 -0.4962 -0.0540
   97SAPS   H3R 9647   6.716   3.324   6.442  1.4718  1.6419  0.2627
   97SAPS   H3S 9648   6.542   3.335   6.384  0.3228 -1.1471 -0.6411
   97SAPS   C24 9649   6.645   3.525   6.434  0.1151  0.2618 -0.0046
   97SAPS   H4R 9650   6.581   3.578   6.360 -1.0984  0.2641  1.0078
   97SAPS   H4S 9651   6.740   3.581   6.434  0.3889 -0.1001 -1.9867
   97SAPS   C25 9652   6.582   3.533   6.570 -0.1186 -0.0990 -0.2581
   97SAPS   H5R 9653   6.474   3.518   6.571 -0.5064  2.2899 -0.0613
   97SAPS   C26 9654   6.634   3.541   6.690  0.7967  0.1683  0.1961
   97SAPS   H6R 9655   6.562   3.540   6.773 -1.9253 -2.5999 -1.9339
   97SAPS   C27 9656   6.780   3.559   6.733 -0.2275  0.3954  0.3138
   97SAPS   H7R 9657   6.843   3.489   6.674  0.9520  1.9977 -0.4112
   97SAPS   H7S 9658   6.801   3.519   6.835  0.4108 -1.4989 -0.4965
   97SAPS   C28 9659   6.823   3.699   6.718 -0.1758 -0.3146 -0.3054
   97SAPS   H8R 9660   6.748   3.779   6.703 -0.3957 -0.1690  1.3259
   97SAPS   C29 9661   6.940   3.752   6.756  0.6540  0.1154 -0.1798
   97SAPS   H9R 9662   6.962   3.859   6.752  1.6536 -0.0798 -0.1695
   97SAPS  C210 9663   7.051   3.665   6.810 -0.1661 -0.9266 -0.7396
   97SAPS  H10R 9664   7.024   3.558   6.824  0.8548 -1.0700  0.3097
   97SAPS  H10S 9665   7.066   3.700   6.915 -0.1587  0.8123 -1.2862
   97SAPS  C211 9666   7.170   3.662   6.722  0.1359 -0.4325 -0.8922
   97SAPS  H11R 9667   7.161   3.673   6.613 -1.5067  0.3523 -0.6963
   97SAPS  C212 9668   7.292   3.647   6.777 -0.7049 -0.6028  0.5477
   97SAPS  H12R 9669   7.379   3.661   6.711 -1.7847 -0.4845 -0.8890
   97SAPS  C213 9670   7.329   3.639   6.919 -0.4508  0.2818 -0.4158
   97SAPS  H13R 9671   7.278   3.554   6.968 -1.3546  1.2627  0.3924
   97SAPS  H13S 9672   7.288   3.724   6.977 -1.4800 -1.4984  1.6154
   97SAPS  C214 9673   7.482   3.629   6.938 -0.1092 -0.0772  0.1368
   97SAPS  H14R 9674   7.546   3.648   6.851  0.8049 -0.3277  0.7317
   97SAPS  C215 9675   7.541   3.560   7.043  0.0301 -0.1632  0.2741
   97SAPS  H15R 9676   7.651   3.556   7.048  0.0745 -1.3019 -1.0192
   97SAPS  C216 9677   7.474   3.506   7.167 -0.2918 -0.2640  0.2476
   97SAPS  H16R 9678   7.554   3.449   7.219 -0.4439 -2.4030 -1.7056
   97SAPS  H16S 9679   7.385   3.440   7.154 -1.3430  0.9730  0.8396
   97SAPS  C217 9680   7.448   3.611   7.281 -0.2549  0.0754 -0.8986
   97SAPS  H17R 9681   7.380   3.566   7.358  0.5861  3.4719  2.0871
   97SAPS  H17S 9682   7.394   3.701   7.246  0.3104  0.4194 -0.8862
   97SAPS  C218 9683   7.576   3.661   7.354 -0.7369 -0.7282  0.7254
   97SAPS  H18R 9684   7.649   3.687   7.274 -0.5701  1.2746  1.4659
   97SAPS  H18S 9685   7.624   3.584   7.418  1.1970 -0.0725  0.1307
   97SAPS  C219 9686   7.559   3.794   7.438 -0.1924 -0.7608  0.4864
   97SAPS  H19R 9687   7.471   3.858   7.417  0.0569 -0.6331 -0.2063
   97SAPS  H19S 9688   7.649   3.857   7.418 -0.6407 -0.3353 -0.2265
   97SAPS  C220 9689   7.555   3.774   7.586 -0.5403  0.7560 -0.0213
   97SAPS  H20R 9690   7.652   3.725   7.612  0.7602  2.5254 -1.2893
   97SAPS  H20S 9691   7.488   3.692   7.618  1.1522 -0.8695 -0.4655
   97SAPS  H20T 9692   7.528   3.861   7.649 -0.3285  0.4048  0.5706
   97SAPS   C33 9693   6.859   2.573   6.384 -0.0868  0.5091 -0.4515
   97SAPS   H3X 9694   6.922   2.514   6.314 -2.3011 -1.0430 -1.2808
   97SAPS   H3Y 9695   6.761   2.560   6.334  0.7873  0.9236 -2.3328
   97SAPS   C34 9696   6.866   2.507   6.527  0.0948  0.1592  0.0891
   97SAPS   H4X 9697   6.797   2.569   6.588  1.9956  0.8873  1.6065
   97SAPS   H4Y 9698   6.968   2.523   6.568  0.0835  0.2657  0.0749
   97SAPS   C35 9699   6.813   2.366   6.534  0.2486 -0.2265 -0.2455
   97SAPS   H5X 9700   6.869   2.294   6.471 -0.8118 -3.3264  2.0726
   97SAPS   H5Y 9701   6.707   2.357   6.502  0.2814 -4.6315  0.1920
   97SAPS   C36 9702   6.807   2.302   6.682 -0.2117 -0.4720  0.0618
   97SAPS   H6X 9703   6.748   2.208   6.683 -3.4410  1.3987  0.4907
   97SAPS   H6Y 9704   6.757   2.367   6.757 -0.4773 -2.0066  1.2666
   97SAPS   C37 9705   6.949   2.263   6.731  0.4011  0.8309  0.7253
   97SAPS   H7X 9706   7.031   2.334   6.712  0.0938  0.7586 -1.0877
   97SAPS   H7Y 9707   6.982   2.176   6.670 -2.0491 -1.2614  2.1470
   97SAPS   C38 9708   6.954   2.213   6.873  0.7452 -0.3758 -0.2401
   97SAPS   H8X 9709   6.897   2.118   6.874  1.7724 -1.0054  0.2736
   97SAPS   H8Y 9710   6.900   2.282   6.941 -0.9317 -1.3512 -0.5266
   97SAPS   C39 9711   7.093   2.181   6.932  0.2534  0.2765  0.1272
   97SAPS   H9X 9712   7.149   2.270   6.895  0.8264  0.1506  0.6814
   97SAPS   H9Y 9713   7.146   2.089   6.899  1.6749  1.2699 -0.4934
   97SAPS  C310 9714   7.087   2.173   7.082 -0.3674 -0.3918 -0.2901
   97SAPS  H10X 9715   7.028   2.262   7.115  0.8457 -0.3227  1.8462
   97SAPS  H10Y 9716   7.190   2.188   7.121 -0.6948  0.9253  0.1244
   97SAPS  C311 9717   7.032   2.038   7.136 -0.3563  0.2639 -0.2948
   97SAPS  H11X 9718   7.103   1.967   7.088 -0.2830  1.5130 -2.1604
   97SAPS  H11Y 9719   6.934   2.011   7.090 -0.6525  1.2568 -0.2805
   97SAPS  C312 9720   7.027   2.023   7.289  0.4633  0.1695  0.0736
   97SAPS  H12X 9721   6.965   2.100   7.340  3.1071  0.4666  3.1371
   97SAPS  H12Y 9722   7.129   2.011   7.331  0.5870 -0.0551 -0.2891
   97SAPS  C313 9723   6.978   1.885   7.336 -0.7688  0.6703 -0.0252
   97SAPS  H13X 9724   7.026   1.804   7.277 -2.2758 -0.7186  0.5707
   97SAPS  H13Y 9725   6.871   1.872   7.312 -0.2628 -0.3788 -1.8847
   97SAPS  C314 9726   7.004   1.858   7.493 -0.4857 -0.1476  0.7958
   97SAPS  H14X 9727   6.946   1.940   7.541  1.9369  2.0150  0.2380
   97SAPS  H14Y 9728   7.113   1.873   7.503 -0.5330  2.1512 -1.2294
   97SAPS  C315 9729   6.967   1.718   7.542  0.0794  0.4855 -1.2509
   97SAPS  H15X 9730   7.033   1.636   7.506 -1.9221 -0.9693 -1.8233
   97SAPS  H15Y 9731   6.873   1.704   7.484 -1.0069  1.2143  0.2958
   97SAPS  C316 9732   6.951   1.703   7.696  0.2571 -0.1986  0.5012
   97SAPS  H16X 9733   6.894   1.794   7.725  0.7636  0.3509 -0.2017
   97SAPS  H16Y 9734   7.051   1.713   7.743  0.3190  2.1206 -0.0119
   97SAPS  C317 9735   6.874   1.579   7.734 -0.0130 -0.2001  0.7076
   97SAPS  H17X 9736   6.914   1.489   7.683 -1.7822 -0.0454 -1.1051
   97SAPS  H17Y 9737   6.767   1.578   7.704 -0.4943 -0.4423  2.3355
   97SAPS  C318 9738   6.867   1.552   7.883 -0.0829  0.5290  0.8747
   97SAPS  H18X 9739   6.964   1.503   7.906  0.7072 -0.3733 -3.5591
   97SAPS  H18Y 9740   6.776   1.492   7.901  0.1891 -1.7539 -3.9403
   97SAPS  H18Z 9741   6.853   1.646   7.941 -0.1583  0.1953  1.4087
   98SAPS     N 9742   6.685   3.679   5.855  0.0433 -0.6943 -0.0166
   98SAPS   HN1 9743   6.696   3.576   5.866 -0.1250 -0.7267 -0.1555
   98SAPS   HN2 9744   6.588   3.700   5.826  0.2283  0.4030  0.1075
   98SAPS   HN3 9745   6.755   3.725   5.793 -2.4293  0.5576 -2.0358
   98SAPS   C12 9746   6.699   3.745   5.991 -0.4477  0.5189  0.3125
   98SAPS  H12A 9747   6.776   3.693   6.046  0.7240 -1.5650 -3.0165
   98SAPS   C13 9748   6.743   3.895   5.979 -0.6452 -0.5860 -0.1434
   98SAPS  O13A 9749   6.766   3.936   5.863  0.3177  0.0777  0.0136
   98SAPS  O13B 9750   6.792   3.956   6.076 -0.6520  0.3213 -0.1450
   98SAPS   C11 9751   6.551   3.736   6.058  0.4965  0.0501  0.0975
   98SAPS  H11A 9752   6.482   3.818   6.027  0.5772  0.2029  0.3178
   98SAPS  H11B 9753   6.559   3.758   6.167 -1.1229  1.6704 -0.0622
   98SAPS     P 9754   6.343   3.569   6.060  0.1125 -0.4239 -0.6459
   98SAPS   O13 9755   6.261   3.661   5.980  0.4470  0.2254  0.4644
   98SAPS   O14 9756   6.326   3.428   6.030  0.1032  0.3557 -0.1775
   98SAPS   O12 9757   6.493   3.608   6.038  0.0088  0.1485  0.6146
   98SAPS   O11 9758   6.311   3.590   6.208  0.0493  0.0512 -0.8716
   98SAPS    C1 9759   6.235   3.494   6.290 -0.3459  0.2919 -0.5961
   98SAPS    HA 9760   6.177   3.427   6.222 -0.8831  0.0295  0.1024
   98SAPS    HB 9761   6.318   3.433   6.333 -0.9541 -0.4077 -0.3883
   98SAPS    C2 9762   6.145   3.558   6.400 -0.7011 -0.4124  0.5063
   98SAPS    HS 9763   6.092   3.632   6.337 -0.5571 -1.1807 -0.5440
   98SAPS   O21 9764   6.235   3.610   6.506 -0.5181  0.1391 -0.3018
   98SAPS   C21 9765   6.271   3.732   6.475  0.0909  0.0693 -0.0423
   98SAPS   O22 9766   6.222   3.804   6.393 -0.1136 -0.0088 -0.2538
   98SAPS   C22 9767   6.377   3.778   6.577  0.6771 -0.0689  0.0315
   98SAPS   H2R 9768   6.366   3.711   6.665  0.3108  1.8252  1.5064
   98SAPS   H2S 9769   6.474   3.774   6.522 -0.3565  0.2064 -1.9114
   98SAPS    C3 9770   6.052   3.444   6.461 -0.3534  0.2258  0.2706
   98SAPS    HX 9771   6.121   3.360   6.485 -0.0411  0.8997  1.9023
   98SAPS    HY 9772   5.974   3.421   6.386 -1.7906  0.1294  1.7328
   98SAPS   O31 9773   5.986   3.482   6.582 -0.3429 -0.2601 -0.1025
   98SAPS   C31 9774   5.875   3.556   6.578 -0.6280 -0.3487 -0.1522
   98SAPS   O32 9775   5.835   3.603   6.472  0.0205  0.1469  0.1588
   98SAPS   C32 9776   5.799   3.563   6.712  0.0430 -0.1888 -0.0435
   98SAPS   H2X 9777   5.873   3.548   6.794  0.3972 -0.4967 -0.4168
   98SAPS   H2Y 9778   5.720   3.485   6.710  0.7775 -0.9987  1.1385
   98SAPS   C23 9779   6.369   3.925   6.633 -0.0656  0.6467  0.1338
   98SAPS   H3R 9780   6.320   3.990   6.557 -0.8269 -0.4714 -0.3467
   98SAPS   H3S 9781   6.465   3.977   6.658  2.2056 -3.1306 -0.0034
   98SAPS   C24 9782   6.275   3.915   6.757 -0.0673 -0.4102 -0.1974
   98SAPS   H4R 9783   6.184   3.858   6.728  0.6730 -0.4332 -2.6768
   98SAPS   H4S 9784   6.235   4.017   6.777 -2.7965 -1.5832  0.8251
   98SAPS   C25 9785   6.350   3.873   6.882 -0.1240 -0.4723  0.5645
   98SAPS   H5R 9786   6.460   3.871   6.871 -0.2835  0.6401 -2.1792
   98SAPS   C26 9787   6.289   3.824   6.991  0.5788 -0.2281 -0.6867
   98SAPS   H6R 9788   6.352   3.786   7.073 -0.6524 -0.1473  0.3306
   98SAPS   C27 9789   6.144   3.808   7.019  0.3195  0.2062 -0.3507
   98SAPS   H7R 9790   6.119   3.707   6.981 -1.1140  0.3931  0.0280
   98SAPS   H7S 9791   6.083   3.869   6.949 -1.9362 -0.2560  1.0857
   98SAPS   C28 9792   6.094   3.828   7.161 -0.6386 -0.8457  0.4855
   98SAPS   H8R 9793   6.125   3.925   7.202  0.0335 -0.9770  0.2890
   98SAPS   C29 9794   6.005   3.765   7.242  0.3518  0.3327 -0.2449
   98SAPS   H9R 9795   5.986   3.803   7.343  1.6414 -2.0487  0.9876
   98SAPS  C210 9796   5.943   3.635   7.197 -0.2676  0.5530 -1.1525
   98SAPS  H10R 9797   6.013   3.559   7.238 -0.1421  0.4444 -1.5659
   98SAPS  H10S 9798   5.942   3.620   7.087 -0.9466 -0.0677 -1.0703
   98SAPS  C211 9799   5.807   3.599   7.264 -0.1617 -0.1194  0.5951
   98SAPS  H11R 9800   5.730   3.644   7.200 -0.1735  2.7894  2.4846
   98SAPS  C212 9801   5.772   3.520   7.362  0.9305 -0.6646  0.6659
   98SAPS  H12R 9802   5.666   3.518   7.390  1.6110  0.0352  3.5717
   98SAPS  C213 9803   5.855   3.434   7.459 -0.6257  0.2770  0.0990
   98SAPS  H13R 9804   5.961   3.468   7.461  0.1220 -1.9710  2.2305
   98SAPS  H13S 9805   5.874   3.334   7.415  0.6739  0.8541 -0.7263
   98SAPS  C214 9806   5.789   3.420   7.589 -0.4527 -0.9225 -0.6350
   98SAPS  H14R 9807   5.836   3.484   7.666 -1.4593  0.6813 -1.3179
   98SAPS  C215 9808   5.691   3.331   7.614  0.1114  0.1272 -0.0415
   98SAPS  H15R 9809   5.647   3.336   7.715  0.0817 -1.5163  0.0501
   98SAPS  C216 9810   5.626   3.236   7.527 -0.1439  0.2832 -0.7984
   98SAPS  H16R 9811   5.659   3.135   7.559 -0.7439  0.5602  0.7875
   98SAPS  H16S 9812   5.673   3.252   7.427  0.4746  1.4100 -0.3349
   98SAPS  C217 9813   5.473   3.229   7.509 -0.0129 -0.2780 -0.0614
   98SAPS  H17R 9814   5.425   3.194   7.603  0.7504  0.3202  0.5596
   98SAPS  H17S 9815   5.469   3.143   7.438  0.1530  0.5484 -1.1108
   98SAPS  C218 9816   5.398   3.356   7.455  0.1008  0.9396  0.4434
   98SAPS  H18R 9817   5.456   3.376   7.362  1.2299  0.5746  1.0586
   98SAPS  H18S 9818   5.407   3.441   7.527  0.9512  1.7882 -0.6294
   98SAPS  C219 9819   5.254   3.336   7.414 -0.0134 -0.7130  0.1189
   98SAPS  H19R 9820   5.213   3.427   7.366 -1.7500 -1.2087  0.5875
   98SAPS  H19S 9821   5.184   3.316   7.498  0.6251 -0.4583  0.7172
   98SAPS  C220 9822   5.222   3.220   7.317 -0.1786 -0.2084 -0.2066
   98SAPS  H20R 9823   5.126   3.237   7.264  0.8171  0.6111 -1.8281
   98SAPS  H20S 9824   5.225   3.127   7.377  1.8648  0.6110  1.0709
   98SAPS  H20T 9825   5.298   3.213   7.237  0.2479  2.7254 -0.1775
   98SAPS   C33 9826   5.728   3.696   6.727 -0.7453 -0.0958  0.0637
   98SAPS   H3X 9827   5.633   3.691   6.669 -0.9202 -0.3412  0.3656
   98SAPS   H3Y 9828   5.799   3.771   6.686 -0.3482  1.3842  3.1501
   98SAPS   C34 9829   5.696   3.710   6.875 -0.5161 -0.1887  0.0521
   98SAPS   H4X 9830   5.785   3.709   6.942  0.0448  0.5831 -0.6655
   98SAPS   H4Y 9831   5.634   3.619   6.890  0.8758 -0.8991  1.8663
   98SAPS   C35 9832   5.600   3.828   6.905  0.7784  0.4033 -0.0332
   98SAPS   H5X 9833   5.541   3.853   6.814  1.0194  3.2399  0.5283
   98SAPS   H5Y 9834   5.648   3.927   6.912 -1.5034  1.7494 -1.9555
   98SAPS   C36 9835   5.505   3.787   7.024 -0.2750  0.9121 -0.4863
   98SAPS   H6X 9836   5.572   3.763   7.110  0.3242  0.8075 -0.9692
   98SAPS   H6Y 9837   5.444   3.699   6.993 -2.6362  2.1408  0.4391
   98SAPS   C37 9838   5.401   3.899   7.048 -0.2643  0.2570 -0.2038
   98SAPS   H7X 9839   5.364   3.930   6.947  1.3606  1.1277 -0.5665
   98SAPS   H7Y 9840   5.455   3.986   7.091  1.4323  0.7459 -3.0451
   98SAPS   C38 9841   5.291   3.854   7.141 -0.5510 -0.2596  0.0757
   98SAPS   H8X 9842   5.230   3.772   7.098  2.1368 -2.0321 -0.5678
   98SAPS   H8Y 9843   5.232   3.948   7.149  1.2165  1.0179 -0.9170
   98SAPS   C39 9844   5.343   3.805   7.276 -0.3814 -0.2042 -0.2421
   98SAPS   H9X 9845   5.396   3.893   7.319 -0.2311 -0.4912  0.1664
   98SAPS   H9Y 9846   5.399   3.710   7.267  0.7868  0.5142 -0.7677
   98SAPS  C310 9847   5.218   3.789   7.374 -0.3956  0.1833  0.3609
   98SAPS  H10X 9848   5.157   3.702   7.340  1.4990 -0.6542 -1.0970
   98SAPS  H10Y 9849   5.160   3.880   7.349  1.8207  1.0434 -2.0565
   98SAPS  C311 9850   5.253   3.778   7.522 -0.2069  0.3078  0.4096
   98SAPS  H11X 9851   5.298   3.875   7.550 -0.3584  0.8672 -1.1881
   98SAPS  H11Y 9852   5.327   3.696   7.535 -0.7784 -0.1724  0.7639
   98SAPS  C312 9853   5.133   3.764   7.617 -0.4202 -0.5669 -0.2698
   98SAPS  H12X 9854   5.182   3.754   7.716  0.3711  1.8507 -0.3615
   98SAPS  H12Y 9855   5.083   3.667   7.597 -0.2354 -1.0623  1.5387
   98SAPS  C313 9856   5.040   3.896   7.624  0.5468 -0.1142 -0.0447
   98SAPS  H13X 9857   4.967   3.896   7.541 -0.4049 -2.1617  0.7382
   98SAPS  H13Y 9858   5.098   3.990   7.636  0.0657  0.4653 -1.8731
   98SAPS  C314 9859   4.952   3.874   7.752  0.0932  0.1273  0.6453
   98SAPS  H14X 9860   5.013   3.913   7.837  3.0458  0.9670 -1.7170
   98SAPS  H14Y 9861   4.921   3.767   7.753  0.3386  0.0351 -0.5880
   98SAPS  C315 9862   4.824   3.959   7.749  0.2252 -0.2007 -0.2267
   98SAPS  H15X 9863   4.761   3.914   7.669  0.3209  0.5219 -0.7217
   98SAPS  H15Y 9864   4.861   4.064   7.743  1.1929 -0.5274 -0.2280
   98SAPS  C316 9865   4.760   3.962   7.890  0.4129  0.0793 -0.0977
   98SAPS  H16X 9866   4.689   4.045   7.908 -3.5274 -2.8213 -0.9299
   98SAPS  H16Y 9867   4.834   3.979   7.971  1.6990  0.5448 -1.3139
   98SAPS  C317 9868   4.670   3.845   7.917  0.4523 -1.0434  0.6218
   98SAPS  H17X 9869   4.643   3.841   8.025 -1.0650  1.2973  0.3882
   98SAPS  H17Y 9870   4.728   3.753   7.893  2.6295  0.9612 -2.6646
   98SAPS  C318 9871   4.531   3.848   7.851 -0.0397 -0.0978 -0.4878
   98SAPS  H18X 9872   4.454   3.786   7.900  0.9535 -0.1898  1.0109
   98SAPS  H18Y 9873   4.535   3.811   7.746 -1.1575  0.1100 -0.6160
   98SAPS  H18Z 9874   4.495   3.953   7.850 -0.2959 -0.0751  2.6984
   99SAPS     N 9875   0.614   1.694   5.800 -0.6409  0.3487  0.6598
   99SAPS   HN1 9876   0.598   1.779   5.858 -0.3302 -0.3788  1.8201
   99SAPS   HN2 9877   0.613   1.615   5.867  3.6285  0.2769  0.9012
   99SAPS   HN3 9878   0.708   1.699   5.756 -0.7243 -1.5126  0.1862
   99SAPS   C12 9879   0.498   1.680   5.712  0.9155  0.5250  0.0338
   99SAPS  H12A 9880   0.524   1.726   5.618  0.8605 -0.2033 -0.3441
   99SAPS   C13 9881   0.449   1.537   5.666 -0.6150 -1.0960  0.1355
   99SAPS  O13A 9882   0.500   1.435   5.713  0.2443 -0.6200 -0.3687
   99SAPS  O13B 9883   0.347   1.536   5.592  0.2012 -0.1358  0.0176
   99SAPS   C11 9884   0.370   1.759   5.766 -0.1583 -0.8690 -0.6263
   99SAPS  H11A 9885   0.284   1.755   5.695  0.1056 -0.3550 -0.9801
   99SAPS  H11B 9886   0.382   1.868   5.783 -1.4444 -0.8544  0.3045
   99SAPS     P 9887   0.204   1.776   5.961  0.5763  0.1540  0.3606
   99SAPS   O13 9888   0.207   1.926   5.970  0.4584 -0.1689  0.3205
   99SAPS   O14 9889   0.079   1.718   5.916 -0.2141 -0.0763 -0.3254
   99SAPS   O12 9890   0.323   1.705   5.885  0.1877  0.3040 -0.4191
   99SAPS   O11 9891   0.227   1.717   6.101 -0.7151  0.2604  0.2542
   99SAPS    C1 9892   0.355   1.703   6.172  0.8627 -0.3488 -0.7819
   99SAPS    HA 9893   0.449   1.720   6.114  2.0436  1.3314  1.4457
   99SAPS    HB 9894   0.368   1.766   6.263  2.4935 -2.0492  0.2369
   99SAPS    C2 9895   0.373   1.557   6.224 -0.2805 -0.0130 -0.0198
   99SAPS    HS 9896   0.345   1.488   6.141  2.6673  1.5779 -2.5177
   99SAPS   O21 9897   0.296   1.547   6.349  0.3428  0.3624 -0.3253
   99SAPS   C21 9898   0.239   1.436   6.381  0.2550 -0.0060  0.7276
   99SAPS   O22 9899   0.227   1.339   6.307  0.1978 -0.0028  0.2538
   99SAPS   C22 9900   0.184   1.434   6.525 -0.7659 -0.0628 -0.6097
   99SAPS   H2R 9901   0.200   1.527   6.582 -0.2332 -0.8468  0.5610
   99SAPS   H2S 9902   0.080   1.405   6.499 -1.7962  1.2012  1.8501
   99SAPS    C3 9903   0.522   1.518   6.242 -0.2812  0.4435  1.0147
   99SAPS    HX 9904   0.558   1.520   6.137 -3.3638 -0.6974 -0.1693
   99SAPS    HY 9905   0.528   1.413   6.278  0.5815 -0.1377 -0.6824
   99SAPS   O31 9906   0.589   1.626   6.321  0.0327  0.5700  0.0052
   99SAPS   C31 9907   0.691   1.580   6.398 -0.2482  0.9363  0.5414
   99SAPS   O32 9908   0.732   1.464   6.401 -0.2643  0.0128 -0.0183
   99SAPS   C32 9909   0.730   1.692   6.494  0.1565  0.3413 -0.8486
   99SAPS   H2X 9910   0.638   1.722   6.547  0.1163 -0.2457 -0.5748
   99SAPS   H2Y 9911   0.781   1.772   6.436 -0.7449  2.7370  1.4923
   99SAPS   C23 9912   0.216   1.312   6.611 -0.2462  0.3638  0.8052
   99SAPS   H3R 9913   0.206   1.225   6.543  0.3829 -0.1797  1.3926
   99SAPS   H3S 9914   0.132   1.295   6.682  0.3814 -0.7745  1.2982
   99SAPS   C24 9915   0.354   1.313   6.679  0.3695  0.2561 -0.4450
   99SAPS   H4R 9916   0.439   1.303   6.609  0.5204  0.0299 -0.2327
   99SAPS   H4S 9917   0.355   1.225   6.747 -1.1988  0.0268 -0.6787
   99SAPS   C25 9918   0.380   1.438   6.757  0.2306 -0.6625  0.4383
   99SAPS   H5R 9919   0.414   1.520   6.693  0.2261 -0.1423  1.0959
   99SAPS   C26 9920   0.372   1.461   6.889  0.1812 -0.3547  0.3100
   99SAPS   H6R 9921   0.392   1.563   6.926  0.7966 -0.3370 -0.0522
   99SAPS   C27 9922   0.334   1.362   6.997  0.3179 -0.1253  0.1442
   99SAPS   H7R 9923   0.430   1.341   7.049  0.3813  1.2271  0.6031
   99SAPS   H7S 9924   0.295   1.267   6.955 -0.7073 -1.1259  3.1288
   99SAPS   C28 9925   0.230   1.431   7.086 -0.3121  0.5815  0.8331
   99SAPS   H8R 9926   0.166   1.500   7.029  1.7612  3.2681  1.5455
   99SAPS   C29 9927   0.234   1.428   7.220  0.3831 -0.1635 -0.2197
   99SAPS   H9R 9928   0.154   1.485   7.269  0.2590  0.1903 -0.8325
   99SAPS  C210 9929   0.333   1.347   7.302 -0.2527  0.3317  0.4427
   99SAPS  H10R 9930   0.426   1.407   7.299 -1.2320  1.8808 -0.0607
   99SAPS  H10S 9931   0.345   1.248   7.253 -1.6246  0.7858 -0.8853
   99SAPS  C211 9932   0.275   1.329   7.444 -0.0908  0.1518 -0.7165
   99SAPS  H11R 9933   0.188   1.262   7.449 -0.6638  0.7888 -1.7605
   99SAPS  C212 9934   0.318   1.405   7.548  0.3766  0.0203  0.9471
   99SAPS  H12R 9935   0.275   1.381   7.646 -1.1273 -1.3718 -0.0104
   99SAPS  C213 9936   0.418   1.521   7.539 -0.3551  0.2429 -0.8701
   99SAPS  H13R 9937   0.403   1.570   7.441 -0.0507 -0.6365 -1.3692
   99SAPS  H13S 9938   0.519   1.475   7.531 -0.9488 -1.7217  1.6259
   99SAPS  C214 9939   0.410   1.630   7.641  0.0935 -0.4845  0.8417
   99SAPS  H14R 9940   0.321   1.695   7.640  0.9997  0.8366  1.5068
   99SAPS  C215 9941   0.505   1.657   7.735  0.5685 -0.0825 -1.1154
   99SAPS  H15R 9942   0.495   1.744   7.802  1.4866 -0.0786 -0.9757
   99SAPS  C216 9943   0.615   1.573   7.767 -0.2729  0.0289 -0.2104
   99SAPS  H16R 9944   0.716   1.616   7.753 -0.3675  0.3058 -0.0574
   99SAPS  H16S 9945   0.620   1.482   7.703  0.2625 -1.2725  1.6033
   99SAPS  C217 9946   0.595   1.514   7.902  0.5124 -0.0369 -0.3122
   99SAPS  H17R 9947   0.579   1.598   7.973  0.6641  0.5157 -0.9219
   99SAPS  H17S 9948   0.688   1.472   7.947  0.0469 -0.9262 -0.1530
   99SAPS  C218 9949   0.472   1.412   7.919  0.6959 -0.5357  0.5097
   99SAPS  H18R 9950   0.485   1.323   7.854  1.7993  0.0249 -0.0627
   99SAPS  H18S 9951   0.386   1.474   7.883  0.5956 -0.5657  0.6984
   99SAPS  C219 9952   0.444   1.380   8.073 -0.2402 -0.1587  0.0419
   99SAPS  H19R 9953   0.420   1.480   8.116 -2.2093 -0.9324  0.9181
   99SAPS  H19S 9954   0.542   1.343   8.111  0.5844  1.5766 -0.3136
   99SAPS  C220 9955   0.338   1.268   8.087 -0.3213 -0.5864 -0.1023
   99SAPS  H20R 9956   0.306   1.258   8.193 -2.7031 -1.7690 -0.8470
   99SAPS  H20S 9957   0.383   1.168   8.072 -0.4262 -0.8647  1.2995
   99SAPS  H20T 9958   0.254   1.295   8.018  0.7334 -1.1442 -1.6504
   99SAPS   C33 9959   0.822   1.644   6.599  0.1221 -0.0719 -0.0514
   99SAPS   H3X 9960   0.919   1.616   6.551  0.3517 -1.9005  1.3432
   99SAPS   H3Y 9961   0.778   1.558   6.654  0.4578 -0.9012 -1.0548
   99SAPS   C34 9962   0.860   1.752   6.705  0.3787  0.0603  0.0363
   99SAPS   H4X 9963   0.766   1.805   6.729  0.2565 -0.0733 -0.1413
   99SAPS   H4Y 9964   0.924   1.819   6.644 -0.8938 -0.3241 -1.8504
   99SAPS   C35 9965   0.936   1.701   6.826 -0.4625  0.0840  0.0149
   99SAPS   H5X 9966   1.026   1.642   6.796 -1.0071 -0.4495 -0.5881
   99SAPS   H5Y 9967   0.881   1.630   6.892  0.6803 -1.7778 -0.9336
   99SAPS   C36 9968   0.981   1.818   6.914 -0.7252 -0.1313 -0.9184
   99SAPS   H6X 9969   0.890   1.880   6.931 -0.3537 -0.2034  1.8642
   99SAPS   H6Y 9970   1.061   1.882   6.870 -0.0163 -1.0947 -1.0581
   99SAPS   C37 9971   1.031   1.763   7.056  0.1532 -0.3013 -0.6974
   99SAPS   H7X 9972   1.117   1.700   7.023 -0.7235 -1.4448 -0.8887
   99SAPS   H7Y 9973   0.956   1.704   7.114  2.0172 -1.2291  0.8856
   99SAPS   C38 9974   1.088   1.863   7.153 -0.4436  0.0935 -0.0822
   99SAPS   H8X 9975   1.011   1.940   7.176 -1.0165 -0.4665 -0.0771
   99SAPS   H8Y 9976   1.179   1.910   7.111  0.3035 -0.3931  0.9540
   99SAPS   C39 9977   1.152   1.792   7.282 -0.0689 -0.6528 -0.3233
   99SAPS   H9X 9978   1.223   1.715   7.246  0.8631 -0.5338  1.1384
   99SAPS   H9Y 9979   1.081   1.747   7.354 -0.3002 -1.6303 -1.1457
   99SAPS  C310 9980   1.244   1.885   7.361 -0.3585 -0.0470  0.1559
   99SAPS  H10X 9981   1.191   1.976   7.397 -1.5398 -0.5982 -0.1226
   99SAPS  H10Y 9982   1.326   1.920   7.295 -2.0439 -0.5689 -2.3983
   99SAPS  C311 9983   1.302   1.817   7.495  0.6017  0.0451  0.3248
   99SAPS  H11X 9984   1.348   1.720   7.469 -0.6908 -0.2493 -1.0042
   99SAPS  H11Y 9985   1.213   1.797   7.559  1.9312 -1.5318  1.7763
   99SAPS  C312 9986   1.413   1.898   7.569  0.1077  0.9921 -0.6906
   99SAPS  H12X 9987   1.400   2.008   7.579 -1.8480  1.0576 -2.9974
   99SAPS  H12Y 9988   1.503   1.876   7.507  0.5345 -1.2324  0.5917
   99SAPS  C313 9989   1.431   1.859   7.712 -0.0199 -0.7798 -0.4178
   99SAPS  H13X 9990   1.471   1.755   7.706 -0.1293 -0.9600  1.3338
   99SAPS  H13Y 9991   1.335   1.851   7.767  2.1445 -2.7711  3.4986
   99SAPS  C314 9992   1.534   1.937   7.800  0.2459 -0.1703 -0.4422
   99SAPS  H14X 9993   1.488   2.023   7.853  0.1586 -0.4612 -0.0381
   99SAPS  H14Y 9994   1.622   1.969   7.741  2.8239 -0.1639  3.0956
   99SAPS  C315 9995   1.585   1.846   7.918  0.0096  0.9789 -0.4597
   99SAPS  H15X 9996   1.612   1.750   7.869  0.7618  1.3993 -0.8971
   99SAPS  H15Y 9997   1.497   1.836   7.985  0.7144  0.5401  0.4118
   99SAPS  C316 9998   1.699   1.892   7.994 -0.6154 -0.1786 -0.4028
   99SAPS  H16X 9999   1.690   1.996   8.032  0.5381  1.1176 -3.3187
   99SAPS  H16Y10000   1.792   1.887   7.933 -1.5910  0.2933 -1.9957
   99SAPS  C31710001   1.726   1.802   8.116  0.2403  0.2344 -0.1557
   99SAPS  H17X10002   1.729   1.699   8.075  0.9622  0.8197 -1.6453
   99SAPS  H17Y10003   1.634   1.802   8.177  0.3540  1.0509  0.0312
   99SAPS  C31810004   1.854   1.807   8.199 -0.1101  0.2496 -0.1567
   99SAPS  H18X10005   1.860   1.903   8.256  0.2584  1.9882 -2.9321
   99SAPS  H18Y10006   1.936   1.813   8.124 -1.2340 -0.6748 -1.5036
   99SAPS  H18Z10007   1.866   1.719   8.265  0.6570 -1.4410 -2.4335
  100SAPS     N10008   3.867   4.261   5.938 -1.1811  0.6921  0.5586
  100SAPS   HN110009   3.856   4.363   5.955 -0.9631  0.4845  2.1144
  100SAPS   HN210010   3.936   4.231   6.009  0.0591 -1.2238 -1.3464
  100SAPS   HN310011   3.913   4.247   5.846 -0.1255  0.0180  1.1776
  100SAPS   C1210012   3.734   4.187   5.951  0.1588  0.1552 -0.0237
  100SAPS  H12A10013   3.660   4.243   5.895  0.1398  1.9037  1.6618
  100SAPS   C1310014   3.730   4.045   5.894  0.3875  0.1595  0.1544
  100SAPS  O13A10015   3.834   4.000   5.836  0.3850 -0.2015 -0.2265
  100SAPS  O13B10016   3.617   4.000   5.862  0.3164 -0.7613 -1.0650
  100SAPS   C1110017   3.684   4.187   6.098 -0.6573  0.1577  0.1095
  100SAPS  H11A10018   3.776   4.157   6.153  0.4958  0.8645 -1.3560
  100SAPS  H11B10019   3.608   4.107   6.116 -1.3160  0.4492 -1.2546
  100SAPS     P10020   3.496   4.358   6.133  0.1478 -0.0131  0.2303
  100SAPS   O1310021   3.490   4.502   6.162  0.2949  0.4380 -0.1108
  100SAPS   O1410022   3.420   4.322   6.009  0.2768  0.1242 -0.2684
  100SAPS   O1210023   3.645   4.316   6.128 -0.0354  0.1821  0.2185
  100SAPS   O1110024   3.432   4.275   6.254  0.4196 -0.3473  0.2959
  100SAPS    C110025   3.313   4.324   6.316  1.2038  0.4192  0.3798
  100SAPS    HA10026   3.256   4.393   6.250  0.1517 -1.2447 -0.5087
  100SAPS    HB10027   3.237   4.244   6.328  1.4645  0.2447  0.9105
  100SAPS    C210028   3.335   4.379   6.461 -0.3499 -0.0744  0.2405
  100SAPS    HS10029   3.233   4.372   6.504 -0.6863  0.4781 -0.4328
  100SAPS   O2110030   3.374   4.521   6.450 -0.1538  0.3711 -0.3735
  100SAPS   C2110031   3.286   4.608   6.397  0.2440 -0.7198 -0.0812
  100SAPS   O2210032   3.168   4.587   6.366  0.1902  0.0273 -0.5455
  100SAPS   C2210033   3.344   4.745   6.380  0.2633  0.0247 -0.5069
  100SAPS   H2R10034   3.448   4.742   6.419  0.5742 -0.2043 -1.3388
  100SAPS   H2S10035   3.345   4.775   6.273 -0.5406 -1.3772 -0.9335
  100SAPS    C310036   3.434   4.299   6.542  0.0250 -0.5928 -0.7013
  100SAPS    HX10037   3.536   4.320   6.505 -0.1585  4.1345  0.8252
  100SAPS    HY10038   3.416   4.190   6.530  0.6056 -0.4867 -3.2182
  100SAPS   O3110039   3.420   4.336   6.684 -0.0187  0.5649  0.5134
  100SAPS   C3110040   3.504   4.434   6.722 -0.2949  0.5060 -0.3358
  100SAPS   O3210041   3.592   4.484   6.660  0.0651 -0.3674  0.0425
  100SAPS   C3210042   3.479   4.452   6.867 -0.3264 -0.4730  0.1739
  100SAPS   H2X10043   3.583   4.473   6.902 -0.6775 -0.5364  1.2839
  100SAPS   H2Y10044   3.448   4.358   6.917 -1.8354 -0.7511 -1.2156
  100SAPS   C2310045   3.256   4.833   6.467 -0.6787 -0.8429  0.1747
  100SAPS   H3R10046   3.153   4.844   6.428 -1.3363 -0.0795  2.0067
  100SAPS   H3S10047   3.296   4.937   6.473  0.0764 -1.2165  3.1876
  100SAPS   C2410048   3.262   4.797   6.618 -0.1779  0.0722  0.6135
  100SAPS   H4R10049   3.367   4.790   6.655 -0.3596 -1.6957  0.8870
  100SAPS   H4S10050   3.202   4.705   6.633 -1.6708  1.0308  0.6531
  100SAPS   C2510051   3.188   4.903   6.702  0.7378 -0.1654 -0.2191
  100SAPS   H5R10052   3.263   4.973   6.743 -0.6856  0.6790  1.0326
  100SAPS   C2610053   3.060   4.901   6.745  0.4357  0.3514  0.3787
  100SAPS   H6R10054   3.021   4.976   6.816 -1.3385 -1.1952  1.1323
  100SAPS   C2710055   2.950   4.813   6.693  0.7308  0.0235  0.4742
  100SAPS   H7R10056   2.921   4.753   6.782 -0.0389  0.7044  0.6975
  100SAPS   H7S10057   2.991   4.746   6.615  0.4984  0.9577 -0.4665
  100SAPS   C2810058   2.827   4.891   6.654 -0.0459 -0.1331  0.4965
  100SAPS   H8R10059   2.822   4.914   6.546  0.5315 -1.3783  0.1810
  100SAPS   C2910060   2.736   4.938   6.739  0.6287  0.3218  0.6204
  100SAPS   H9R10061   2.651   4.999   6.706  1.5221 -0.0310 -2.6037
  100SAPS  C21010062   2.744   4.898   6.883 -0.1590  0.1434 -0.7025
  100SAPS  H10R10063   2.669   4.963   6.933 -0.5821 -0.1855 -0.9018
  100SAPS  H10S10064   2.846   4.922   6.920  0.6213 -1.6065 -1.6360
  100SAPS  C21110065   2.715   4.760   6.929  0.2039 -0.5290  0.1031
  100SAPS  H11R10066   2.679   4.699   6.845  1.0530  0.6772 -1.1678
  100SAPS  C21210067   2.744   4.710   7.052 -0.3649  0.0954 -0.5968
  100SAPS  H12R10068   2.714   4.608   7.080  0.5509 -0.3674 -1.2630
  100SAPS  C21310069   2.816   4.781   7.172 -0.0292 -0.7012 -0.3020
  100SAPS  H13R10070   2.863   4.880   7.152  1.5426 -1.2205  0.7037
  100SAPS  H13S10071   2.898   4.712   7.202  1.6283  0.2513 -2.3958
  100SAPS  C21410072   2.706   4.813   7.273  0.6322 -0.0217 -0.1028
  100SAPS  H14R10073   2.668   4.916   7.264  2.0834  0.4301 -1.2358
  100SAPS  C21510074   2.668   4.742   7.379  0.1584 -0.7570 -0.8300
  100SAPS  H15R10075   2.599   4.786   7.453  1.6895  2.5053 -1.1846
  100SAPS  C21610076   2.727   4.607   7.409  0.0537 -0.0717  0.1496
  100SAPS  H16R10077   2.826   4.583   7.365 -0.7260  0.4401 -2.0085
  100SAPS  H16S10078   2.658   4.531   7.367 -1.7183  0.6929  1.5494
  100SAPS  C21710079   2.730   4.573   7.562  0.0718 -0.1907 -0.1584
  100SAPS  H17R10080   2.737   4.462   7.562 -0.3121 -0.2199  0.3684
  100SAPS  H17S10081   2.632   4.599   7.607 -0.7330 -0.5056 -1.6534
  100SAPS  C21810082   2.844   4.645   7.644 -0.0919  0.0997  0.3652
  100SAPS  H18R10083   2.864   4.744   7.599  0.7610  0.1987  0.9436
  100SAPS  H18S10084   2.941   4.593   7.630  0.7176  1.2754  1.4182
  100SAPS  C21910085   2.806   4.644   7.794 -0.1562  0.1672 -0.6890
  100SAPS  H19R10086   2.791   4.539   7.826  1.6171  0.1367  0.1402
  100SAPS  H19S10087   2.710   4.697   7.814 -0.6626 -0.8426 -0.4114
  100SAPS  C22010088   2.921   4.711   7.874  0.1090 -0.2547 -0.3426
  100SAPS  H20R10089   3.005   4.645   7.843 -2.0212 -1.4449 -4.3450
  100SAPS  H20S10090   2.892   4.703   7.981  1.5048 -0.9271  0.0158
  100SAPS  H20T10091   2.941   4.816   7.842 -0.2695  0.3416  1.3034
  100SAPS   C3310092   3.391   4.575   6.911 -1.0351  0.3928 -0.2537
  100SAPS   H3X10093   3.285   4.570   6.878 -1.7883  0.5269  1.9764
  100SAPS   H3Y10094   3.431   4.667   6.863 -0.3356  0.5308  0.5824
  100SAPS   C3410095   3.398   4.610   7.061 -0.2539  0.0527  0.9926
  100SAPS   H4X10096   3.501   4.632   7.095  0.3338 -0.7619 -0.2045
  100SAPS   H4Y10097   3.356   4.525   7.119  1.5037 -0.3963  1.6503
  100SAPS   C3510098   3.314   4.735   7.081  0.6940  0.4796  0.2359
  100SAPS   H5X10099   3.210   4.725   7.043  0.9164  3.1827 -1.3562
  100SAPS   H5Y10100   3.345   4.813   7.008  0.4094 -2.2975 -3.0522
  100SAPS   C3610101   3.317   4.792   7.220 -0.3081  0.4898  1.1936
  100SAPS   H6X10102   3.414   4.829   7.260  1.0806 -2.0952  0.4651
  100SAPS   H6Y10103   3.275   4.705   7.275 -2.8558  1.1890  0.4903
  100SAPS   C3710104   3.219   4.907   7.220 -0.1049  0.2099  0.2347
  100SAPS   H7X10105   3.117   4.876   7.188 -0.6357  0.8159  1.3182
  100SAPS   H7Y10106   3.252   4.974   7.138 -0.8371 -1.0435 -1.1460
  100SAPS   C3810107   3.213   4.973   7.355 -0.2386 -0.0229 -0.1625
  100SAPS   H8X10108   3.161   5.072   7.356 -1.4221 -0.6175  1.3731
  100SAPS   H8Y10109   3.316   4.991   7.393 -1.4849  1.2226  3.0126
  100SAPS   C3910110   3.139   4.884   7.458  0.1432  0.0228 -0.5407
  100SAPS   H9X10111   3.173   4.780   7.437 -1.5722 -0.4556 -1.1433
  100SAPS   H9Y10112   3.028   4.898   7.455  0.1341  0.4581  1.0178
  100SAPS  C31010113   3.184   4.920   7.599  0.0853  0.0999 -0.0307
  100SAPS  H10X10114   3.294   4.903   7.597  0.3573  1.0083  2.8147
  100SAPS  H10Y10115   3.138   4.846   7.669  0.1841 -0.9810 -1.0758
  100SAPS  C31110116   3.146   5.061   7.648 -0.1369  0.0536 -0.4879
  100SAPS  H11X10117   3.035   5.073   7.649 -0.3405 -1.2758 -2.4737
  100SAPS  H11Y10118   3.192   5.134   7.579  1.3137 -0.3934 -0.0239
  100SAPS  C31210119   3.187   5.097   7.788  0.7591 -0.0304 -0.1373
  100SAPS  H12X10120   3.298   5.097   7.799  0.6002  0.2956  1.8144
  100SAPS  H12Y10121   3.152   5.014   7.853  0.0492  0.2024 -0.2108
  100SAPS  C31310122   3.124   5.225   7.837 -0.0048 -0.1735 -0.5859
  100SAPS  H13X10123   3.014   5.216   7.849  0.1895 -1.2730  0.5914
  100SAPS  H13Y10124   3.149   5.295   7.754 -0.7083 -1.3522 -1.8413
  100SAPS  C31410125   3.195   5.260   7.971 -0.1071 -0.2467 -0.0001
  100SAPS  H14X10126   3.300   5.290   7.953 -1.1937  2.7993 -1.8382
  100SAPS  H14Y10127   3.200   5.178   8.046  0.2465  1.0514  1.4274
  100SAPS  C31510128   3.138   5.392   8.024 -0.6786 -1.0625  0.1457
  100SAPS  H15X10129   3.032   5.396   8.055 -0.6697 -1.0276  0.1726
  100SAPS  H15Y10130   3.145   5.462   7.939 -2.8906 -0.6252  0.2842
  100SAPS  C31610131   3.216   5.449   8.141  0.1809  0.6472  0.2019
  100SAPS  H16X10132   3.323   5.471   8.120 -0.3248  2.5537 -0.6236
  100SAPS  H16Y10133   3.221   5.379   8.228 -0.1911  1.6510  1.0592
  100SAPS  C31710134   3.162   5.577   8.200  0.0748 -1.1939 -0.1791
  100SAPS  H17X10135   3.056   5.564   8.231  0.5070 -1.4002  1.3287
  100SAPS  H17Y10136   3.164   5.645   8.112  0.4726 -1.7897 -0.6389
  100SAPS  C31810137   3.230   5.633   8.330  0.1511  0.9302  0.4782
  100SAPS  H18X10138   3.341   5.620   8.336 -0.0566 -2.0372 -0.5607
  100SAPS  H18Y10139   3.187   5.589   8.422 -0.1565 -0.7049 -0.4080
  100SAPS  H18Z10140   3.224   5.744   8.324  1.3261  0.9985  0.3188
  101OSM      N10141   5.740   4.055  10.431 -0.4406  0.2678 -0.3910
  101OSM    C1510142   5.737   4.203  10.440  0.2692  0.4220 -0.1227
  101OSM   H15A10143   5.776   4.238  10.534 -3.4183 -0.1166  1.8029
  101OSM   H15B10144   5.638   4.246  10.435 -0.3063 -0.9925 -1.4202
  101OSM   H15C10145   5.802   4.248  10.366  0.8565 -0.7330 -0.3322
  101OSM    C1410146   5.880   4.010  10.466  0.0288  0.2871  0.1869
  101OSM   H14A10147   5.906   4.036  10.567 -0.8248 -1.1875  0.8191
  101OSM   H14B10148   5.957   4.056  10.406  0.7466  1.0115  1.6159
  101OSM   H14C10149   5.882   3.903  10.453  1.3513  0.1896  0.9567
  101OSM    C1310150   5.650   3.999  10.530 -0.9020  0.4637  0.4667
  101OSM   H13A10151   5.550   4.031  10.507 -0.8912  0.6063  0.6193
  101OSM   H13B10152   5.689   4.030  10.626 -1.4058 -1.8760  1.4843
  101OSM   H13C10153   5.643   3.892  10.522 -0.9552  0.2142  3.0845
  101OSM    C1210154   5.699   4.005  10.293 -0.0708 -0.3141 -0.0134
  101OSM   H12A10155   5.591   4.002  10.293 -0.1432 -1.0651  2.6724
  101OSM   H12B10156   5.729   3.901  10.289  0.9953 -0.0107 -0.3501
  101OSM    C1110157   5.771   4.059  10.165  0.0215 -0.1933  0.1713
  101OSM   H11A10158   5.746   4.164  10.140  3.0538  0.1731 -1.7956
  101OSM   H11B10159   5.730   4.001  10.079  0.0423 -0.7591  0.5339
  101OSM      P10160   6.020   4.148  10.177  0.2648  0.1796 -0.2314
  101OSM    O1310161   5.953   4.270  10.226 -0.9213  0.7378  0.6264
  101OSM    O1410162   6.149   4.100  10.235 -0.3904  0.1968 -0.1827
  101OSM    O1110163   6.043   4.157  10.019 -0.1442  0.1602 -0.2985
  101OSM    O1210164   5.910   4.032  10.180  0.7484  0.6700  0.4493
  101OSM    C1S10165   6.051   4.034   9.949 -0.5343  0.0474  0.2198
  101OSM    H1S10166   5.964   3.969   9.970 -0.1257 -0.3855  0.6123
  101OSM    H1T10167   6.133   3.970   9.989 -2.2892 -0.9445  2.4525
  101OSM     NF10168   6.023   3.919   9.733  0.4289 -0.2389  0.7642
  101OSM    HNF10169   6.097   3.867   9.693  1.2295 -0.1837  2.1326
  101OSM    C2S10170   6.056   4.050   9.793  0.0043  0.0140 -0.2516
  101OSM    H2S10171   5.987   4.129   9.759  0.7015  0.7812  0.0709
  101OSM    C3S10172   6.201   4.102   9.775 -0.6505 -0.3863  0.5408
  101OSM    H3S10173   6.268   4.036   9.835 -0.9220 -3.3329 -2.0851
  101OSM     O310174   6.222   4.226   9.838 -0.3781 -0.2676  0.2170
  101OSM    HO310175   6.147   4.225   9.898 -1.5228 -1.8198 -1.1467
  101OSM    C4S10176   6.246   4.080   9.635 -0.4017  0.2040  0.0360
  101OSM    H4S10177   6.297   3.985   9.613  0.7683  0.8034  0.0469
  101OSM    C5S10178   6.235   4.166   9.533 -0.2369  0.1608 -0.5074
  101OSM    H5S10179   6.173   4.255   9.553  0.0102 -0.1573  2.0261
  101OSM    C6S10180   6.275   4.123   9.396 -0.7429 -0.1912  0.2228
  101OSM    H6S10181   6.386   4.115   9.402 -0.6269  1.6755  2.2027
  101OSM    H6T10182   6.264   4.206   9.323  0.0016  0.9219  1.3123
  101OSM    C7S10183   6.220   3.991   9.335 -0.0566  0.3371  0.0514
  101OSM    H7S10184   6.109   4.004   9.328 -0.0294  0.5010 -0.0597
  101OSM    H7T10185   6.256   3.909   9.401  0.7006  0.2680 -0.4523
  101OSM    C8S10186   6.275   3.967   9.199 -0.0471  0.4149  0.4097
  101OSM    H8S10187   6.381   3.936   9.213  0.6320  0.9499 -2.7609
  101OSM    H8T10188   6.283   4.065   9.148  1.1550 -0.4252 -1.0903
  101OSM    C9S10189   6.209   3.849   9.128 -0.1576  0.7728 -0.5874
  101OSM    H9S10190   6.098   3.846   9.132 -0.1853 -0.1505 -1.7045
  101OSM    H9T10191   6.247   3.758   9.178  0.8144  1.7092  0.4424
  101OSM   C10S10192   6.269   3.854   8.991 -0.1959 -0.8496 -0.1319
  101OSM   H10S10193   6.374   3.818   8.994  0.0358 -0.4712 -2.1045
  101OSM   H10T10194   6.272   3.959   8.954 -0.5234 -0.9567 -0.4802
  101OSM   C11S10195   6.184   3.766   8.896 -0.9736 -0.9088  0.0883
  101OSM   H11S10196   6.080   3.803   8.911 -1.1069 -0.1656 -2.1951
  101OSM   H11T10197   6.187   3.658   8.921 -0.9302 -0.8654  0.2713
  101OSM   C12S10198   6.207   3.804   8.749  0.5979  0.7076  1.0049
  101OSM   H12S10199   6.145   3.889   8.714  0.3615 -0.8366 -2.8734
  101OSM   H12T10200   6.183   3.721   8.680  2.0937  2.0393 -1.2495
  101OSM   C13S10201   6.356   3.839   8.692 -0.1334 -0.8613 -0.1568
  101OSM   H13S10202   6.416   3.761   8.743 -1.5123 -1.8095  0.0862
  101OSM   H13T10203   6.369   3.944   8.726 -2.4061 -0.6039  0.1052
  101OSM   C14S10204   6.363   3.826   8.539 -0.0107 -0.4940  0.2816
  101OSM   H14S10205   6.305   3.905   8.486  0.0734 -0.7021 -0.1214
  101OSM   H14T10206   6.330   3.726   8.507  0.5450 -1.2107  1.8229
  101OSM   C15S10207   6.508   3.835   8.485  0.1307 -0.2002 -0.5453
  101OSM   H15S10208   6.569   3.757   8.537  0.3610  1.4711  1.8227
  101OSM   H15T10209   6.547   3.936   8.509 -3.4684  0.8632  1.5655
  101OSM   C16S10210   6.503   3.798   8.342  0.0559  0.0886  0.4805
  101OSM   H16S10211   6.452   3.880   8.287  1.3704  0.3834 -0.3330
  101OSM   H16T10212   6.445   3.705   8.329 -0.8289  0.8644 -1.4406
  101OSM   C17S10213   6.629   3.781   8.257  0.4691  0.0426  0.0318
  101OSM   H17S10214   6.599   3.776   8.151  3.2313 -1.2695 -0.7644
  101OSM   H17T10215   6.690   3.694   8.288 -0.9478 -1.8295 -2.1935
  101OSM   C18S10216   6.721   3.903   8.272  0.0108  0.7461 -0.1069
  101OSM   H18S10217   6.664   3.997   8.258 -2.4464 -0.6198  0.0995
  101OSM   H18T10218   6.795   3.907   8.190 -1.4742 -0.7638 -1.6132
  101OSM   H18U10219   6.773   3.895   8.370 -0.6007  1.7144  0.3049
  101OSM    C1F10220   5.901   3.865   9.734  0.9124  0.0732  0.6052
  101OSM     OF10221   5.806   3.912   9.794  0.8053 -0.6963 -0.2593
  101OSM    C2F10222   5.880   3.736   9.653 -0.3349 -0.4890 -0.1051
  101OSM    H2F10223   5.855   3.659   9.729 -1.6902 -0.1722 -0.1886
  101OSM    H2G10224   5.971   3.699   9.603  1.0591  1.5523  0.7649
  101OSM    C3F10225   5.760   3.757   9.555  0.3195  0.1568  0.9521
  101OSM    H3F10226   5.778   3.833   9.476 -0.3434 -1.4306 -0.8127
  101OSM    H3G10227   5.676   3.802   9.613 -0.6075  1.2951 -1.1714
  101OSM    C4F10228   5.701   3.617   9.507 -0.3194  0.4012 -0.2504
  101OSM    H4F10229   5.614   3.630   9.439 -1.5313 -0.1571  1.1613
  101OSM    H4G10230   5.668   3.546   9.585 -0.4762  0.8710  0.1130
  101OSM    C5F10231   5.803   3.547   9.419  0.2090 -0.5373  0.0995
  101OSM    H5F10232   5.751   3.453   9.391 -0.5575 -0.4016  0.9901
  101OSM    H5G10233   5.888   3.525   9.488  0.2300  2.8328  1.3113
  101OSM    C6F10234   5.844   3.623   9.296 -0.5756 -0.4879  0.4405
  101OSM    H6F10235   5.923   3.559   9.251  0.1577  1.0167 -0.5110
  101OSM    H6G10236   5.899   3.718   9.314  1.2478 -0.8615 -2.3778
  101OSM    C7F10237   5.743   3.666   9.188  0.0198  0.7549 -0.5432
  101OSM    H7F10238   5.686   3.750   9.233  0.6302 -0.2941  2.3707
  101OSM    H7G10239   5.677   3.579   9.169  0.4602 -0.0571  1.3905
  101OSM    C8F10240   5.813   3.712   9.059  0.2474 -0.2188  0.0760
  101OSM    H8F10241   5.903   3.653   9.030 -0.2577 -0.6782 -0.5846
  101OSM    H8G10242   5.858   3.814   9.068  1.6244 -0.6743 -1.1052
  101OSM    C9F10243   5.706   3.733   8.954  0.0780  0.4202  0.2996
  101OSM    H9F10244   5.611   3.770   8.997  1.1270  0.8593  2.3807
  101OSM   C10F10245   5.721   3.702   8.824  0.0747  0.7554 -0.6232
  101OSM   H10F10246   5.640   3.726   8.753 -1.3282 -0.2088  0.5930
  101OSM   C11F10247   5.836   3.630   8.758 -0.6237 -0.4233 -0.2639
  101OSM   H11F10248   5.884   3.569   8.838 -0.3767 -2.7264 -2.0556
  101OSM   H11G10249   5.904   3.710   8.722  0.7890 -1.7221 -0.5703
  101OSM   C12F10250   5.810   3.538   8.641  0.3466  0.1967  0.3480
  101OSM   H12F10251   5.716   3.484   8.666  0.3944 -0.6535 -1.1825
  101OSM   H12G10252   5.888   3.464   8.611  0.0459  0.1093 -0.2266
  101OSM   C13F10253   5.785   3.612   8.504 -0.0171 -0.4365  0.0855
  101OSM   H13F10254   5.866   3.684   8.479  0.8192 -0.9820  1.1623
  101OSM   H13G10255   5.691   3.671   8.506  1.4407  2.0391 -0.7007
  101OSM   C14F10256   5.772   3.517   8.385 -0.2296 -0.2561  0.0232
  101OSM   H14F10257   5.671   3.471   8.388  0.1822 -1.2501 -0.8009
  101OSM   H14G10258   5.841   3.430   8.393 -1.0581 -0.8655  0.6240
  101OSM   C15F10259   5.794   3.593   8.253 -0.3743 -0.0304  0.0930
  101OSM   H15F10260   5.849   3.689   8.265  1.1874 -0.9966  1.0720
  101OSM   H15G10261   5.695   3.594   8.203 -1.2732 -1.3018  1.7487
  101OSM   C16F10262   5.886   3.521   8.149  0.6109 -0.3127  0.1849
  101OSM   H16F10263   5.858   3.414   8.142 -1.3138  0.2408 -1.4458
  101OSM   H16G10264   5.991   3.532   8.185  1.9768 -0.1450 -3.4207
  101OSM   C17F10265   5.884   3.585   8.016 -0.4418  0.4633  0.1915
  101OSM   H17F10266   5.921   3.688   8.033  0.8740  0.4110 -1.9629
  101OSM   H17G10267   5.779   3.582   7.979 -0.4680 -0.6897  0.3232
  101OSM   C18F10268   5.982   3.511   7.922  0.1156 -0.6933 -0.3712
  101OSM   H18F10269   6.087   3.508   7.961  1.7676 -0.0338 -4.3333
  101OSM   H18G10270   5.987   3.549   7.818  1.0813  0.8093  0.1932
  101OSM   H18H10271   5.962   3.402   7.921  6.0940 -2.1755 -0.2836
  102OSM      N10272   4.299   1.400  10.704 -0.0701  0.1438  0.9223
  102OSM    C1510273   4.386   1.301  10.776  0.6020  0.2058  0.4377
  102OSM   H15A10274   4.356   1.198  10.763  2.0771 -0.2321  0.3052
  102OSM   H15B10275   4.393   1.324  10.881  0.2112  2.3905  0.0299
  102OSM   H15C10276   4.486   1.310  10.736 -0.1062 -1.6376 -2.0156
  102OSM    C1410277   4.336   1.402  10.559 -0.5884  0.0119  0.1797
  102OSM   H14A10278   4.321   1.493  10.502  1.4487 -0.4875 -1.2775
  102OSM   H14B10279   4.282   1.330  10.500  0.9008 -1.9849  1.1420
  102OSM   H14C10280   4.441   1.376  10.564  0.5978  3.8041 -0.8166
  102OSM    C1310281   4.155   1.362  10.715 -0.0155  0.2230 -0.0031
  102OSM   H13A10282   4.116   1.348  10.815 -0.9119  0.8655 -0.2518
  102OSM   H13B10283   4.133   1.275  10.654 -2.9486  1.3639 -0.7544
  102OSM   H13C10284   4.102   1.444  10.670  0.5275  0.8317  0.4580
  102OSM    C1210285   4.317   1.531  10.774 -0.3595 -0.7847 -0.6054
  102OSM   H12A10286   4.304   1.516  10.880 -1.2056  0.9223 -0.4346
  102OSM   H12B10287   4.236   1.597  10.749  0.1144  0.7482  1.6892
  102OSM    C1110288   4.443   1.624  10.763  0.0417  1.0931  1.1434
  102OSM   H11A10289   4.536   1.570  10.791  0.5099  0.4942 -1.3252
  102OSM   H11B10290   4.422   1.707  10.834 -1.4192  1.2720  0.5375
  102OSM      P10291   4.377   1.786  10.573 -0.4961 -0.0682  0.1320
  102OSM    O1310292   4.230   1.759  10.593  1.0379  0.3323 -0.4055
  102OSM    O1410293   4.434   1.907  10.638 -0.9292 -0.1740 -0.3394
  102OSM    O1110294   4.402   1.803  10.421  0.1633 -0.1301 -0.2506
  102OSM    O1210295   4.462   1.662  10.628 -0.1739 -0.3296 -0.2095
  102OSM    C1S10296   4.464   1.698  10.346 -0.2968  1.1890 -0.4700
  102OSM    H1S10297   4.408   1.602  10.359  0.3721  0.4646 -2.4783
  102OSM    H1T10298   4.569   1.686  10.379 -0.6350 -0.2627  0.1437
  102OSM     NF10299   4.484   1.627  10.113  0.7332 -0.9435 -0.4001
  102OSM    HNF10300   4.579   1.626  10.083  0.6056 -0.4608 -0.8249
  102OSM    C2S10301   4.445   1.735  10.198  0.3284 -0.6351  0.7665
  102OSM    H2S10302   4.335   1.750  10.189  0.6378  0.1925 -4.3638
  102OSM    C3S10303   4.504   1.870  10.163 -0.4835  0.1537 -0.2289
  102OSM    H3S10304   4.607   1.856  10.202 -1.6213  0.8080  3.3896
  102OSM     O310305   4.454   1.982  10.235  0.5263  0.8276  0.7742
  102OSM    HO310306   4.417   1.944  10.315  3.3650  1.2348  2.3927
  102OSM    C4S10307   4.506   1.895  10.013 -0.6833 -0.0310  0.3585
  102OSM    H4S10308   4.598   1.859   9.964 -0.0670 -0.4404  1.7760
  102OSM    C5S10309   4.403   1.957   9.948 -0.3666 -0.3815  1.0798
  102OSM    H5S10310   4.322   1.996  10.011 -1.7088  0.5175 -1.0659
  102OSM    C6S10311   4.406   1.997   9.805  0.5812  0.1052 -0.5617
  102OSM    H6S10312   4.371   1.911   9.743  0.0643  0.8070 -1.2531
  102OSM    H6T10313   4.506   2.019   9.763 -0.0678  1.8536 -1.2867
  102OSM    C7S10314   4.316   2.112   9.755  0.2325 -0.4087  0.5035
  102OSM    H7S10315   4.359   2.210   9.785 -2.0519  1.9822 -3.2660
  102OSM    H7T10316   4.223   2.116   9.815 -0.7377  3.1254 -1.0107
  102OSM    C8S10317   4.295   2.122   9.605  0.1891 -0.1220 -0.5260
  102OSM    H8S10318   4.230   2.036   9.574  1.3251 -1.4275  0.5875
  102OSM    H8T10319   4.392   2.116   9.552 -0.1015 -0.1204 -1.0686
  102OSM    C9S10320   4.225   2.256   9.570  0.1771  0.3803  0.1165
  102OSM    H9S10321   4.280   2.337   9.623 -1.0221  0.6840  0.9277
  102OSM    H9T10322   4.120   2.244   9.604 -0.0060 -0.7906 -0.7840
  102OSM   C10S10323   4.225   2.275   9.414  0.3169  0.2431  0.0034
  102OSM   H10S10324   4.145   2.210   9.373 -0.6864  2.0498 -1.0695
  102OSM   H10T10325   4.325   2.256   9.368 -0.1085 -0.5799 -0.6049
  102OSM   C11S10326   4.188   2.424   9.376 -0.6657  0.7695 -0.7106
  102OSM   H11S10327   4.264   2.503   9.396 -2.7815  2.3970  1.5910
  102OSM   H11T10328   4.104   2.441   9.447 -1.1591  0.6997 -1.2699
  102OSM   C12S10329   4.142   2.447   9.235  0.0687 -0.7725  0.1137
  102OSM   H12S10330   4.127   2.557   9.228  0.4587 -0.7067  0.3226
  102OSM   H12T10331   4.045   2.399   9.207 -1.7183  1.9540  1.2318
  102OSM   C13S10332   4.249   2.406   9.139 -0.7838 -0.0492 -0.2987
  102OSM   H13S10333   4.251   2.295   9.141 -0.9064 -0.0503  1.4871
  102OSM   H13T10334   4.351   2.438   9.171 -0.4214 -1.1306 -0.3386
  102OSM   C14S10335   4.224   2.464   9.001  0.1458 -0.0716 -0.2484
  102OSM   H14S10336   4.236   2.574   9.002 -0.8035  0.0502 -0.5262
  102OSM   H14T10337   4.123   2.430   8.969  0.5506 -3.4905  1.6309
  102OSM   C15S10338   4.319   2.397   8.899 -0.9744  0.5073  0.0786
  102OSM   H15S10339   4.292   2.290   8.891 -1.0211  0.2249  3.0300
  102OSM   H15T10340   4.424   2.393   8.932 -0.2048 -0.4617 -2.2368
  102OSM   C16S10341   4.306   2.460   8.763  0.2480 -0.1937  0.0993
  102OSM   H16S10342   4.387   2.537   8.756 -0.0942  0.3129  1.4832
  102OSM   H16T10343   4.209   2.513   8.761 -0.4472 -1.2879  2.0885
  102OSM   C17S10344   4.305   2.360   8.651 -0.2450 -0.6594  0.0106
  102OSM   H17S10345   4.237   2.275   8.676  0.9306 -1.6842 -0.2197
  102OSM   H17T10346   4.401   2.306   8.665  0.2211  0.2886  0.5156
  102OSM   C18S10347   4.279   2.420   8.510 -0.5604 -0.3963 -0.3211
  102OSM   H18S10348   4.294   2.347   8.427 -1.9213 -0.3012 -0.6791
  102OSM   H18T10349   4.337   2.514   8.503  2.6061 -2.1573  0.5035
  102OSM   H18U10350   4.173   2.452   8.503 -0.7541 -0.5959  1.2432
  102OSM    C1F10351   4.421   1.510  10.094  0.6158  0.5884  0.1032
  102OSM     OF10352   4.330   1.467  10.172 -0.0600  0.3664  0.1800
  102OSM    C2F10353   4.474   1.429   9.978  0.1705 -0.2421 -0.1187
  102OSM    H2F10354   4.435   1.326   9.982  1.4327 -0.7009  1.0355
  102OSM    H2G10355   4.581   1.417  10.003 -0.4326 -0.2623  2.8527
  102OSM    C3F10356   4.453   1.494   9.837 -0.3828 -0.1870 -0.5663
  102OSM    H3F10357   4.501   1.594   9.835  2.5859 -1.5047 -0.4211
  102OSM    H3G10358   4.344   1.493   9.818 -0.2201  0.4620 -1.6113
  102OSM    C4F10359   4.528   1.413   9.730 -0.2407 -0.5590 -0.5130
  102OSM    H4F10360   4.500   1.306   9.740 -1.0474 -0.2943  0.1286
  102OSM    H4G10361   4.638   1.430   9.732 -0.6069  2.6593 -1.4341
  102OSM    C5F10362   4.487   1.450   9.582  0.6866 -0.5808 -0.6480
  102OSM    H5F10363   4.491   1.559   9.563 -0.4199 -0.5789 -0.9289
  102OSM    H5G10364   4.382   1.425   9.558  0.0839  2.2265 -1.2861
  102OSM    C6F10365   4.579   1.380   9.488  0.3410  0.5694  0.1942
  102OSM    H6F10366   4.674   1.360   9.544  1.3508 -0.6679 -1.8578
  102OSM    H6G10367   4.605   1.442   9.400  0.0006 -0.0408 -0.3450
  102OSM    C7F10368   4.514   1.249   9.437  0.7691 -0.0463 -0.5481
  102OSM    H7F10369   4.426   1.281   9.378  1.8423  1.0135 -1.6253
  102OSM    H7G10370   4.472   1.192   9.523 -2.1352  2.1649 -0.3619
  102OSM    C8F10371   4.613   1.163   9.358 -0.7785  0.3087  0.3175
  102OSM    H8F10372   4.686   1.111   9.425 -2.1762 -1.3293  0.6296
  102OSM    H8G10373   4.662   1.242   9.297 -2.1923  0.6318 -0.4227
  102OSM    C9F10374   4.542   1.051   9.279 -0.1980 -0.4587  0.8645
  102OSM    H9F10375   4.466   0.991   9.332 -0.0935  0.0194  1.5685
  102OSM   C10F10376   4.558   1.020   9.150  0.5415  0.0327 -0.0893
  102OSM   H10F10377   4.485   0.947   9.111 -2.2519  2.8292 -0.4789
  102OSM   C11F10378   4.654   1.076   9.042 -0.1649  0.4227 -0.7557
  102OSM   H11F10379   4.707   0.986   9.003 -0.7744  0.2635 -1.2207
  102OSM   H11G10380   4.729   1.136   9.099 -0.8175 -1.6601  2.5860
  102OSM   C12F10381   4.567   1.149   8.938  0.5468 -0.3053  0.1491
  102OSM   H12F10382   4.489   1.077   8.904  0.4507 -1.3766  2.3970
  102OSM   H12G10383   4.638   1.178   8.858  0.5347  0.7161  0.4968
  102OSM   C13F10384   4.503   1.278   9.003  0.2881 -0.3478 -0.8377
  102OSM   H13F10385   4.598   1.324   9.037  0.2076  1.1316 -2.4704
  102OSM   H13G10386   4.444   1.266   9.096  4.0756 -0.9776  1.7295
  102OSM   C14F10387   4.434   1.366   8.905 -0.1528 -0.2183 -0.0081
  102OSM   H14F10388   4.340   1.316   8.874  1.0373 -0.9238 -2.7330
  102OSM   H14G10389   4.490   1.375   8.810  0.2771  1.5657  0.3708
  102OSM   C15F10390   4.390   1.507   8.960  0.6315  0.1386 -0.4781
  102OSM   H15F10391   4.479   1.562   8.995  0.9355  0.0531 -1.1061
  102OSM   H15G10392   4.330   1.493   9.053  0.7579  0.4523 -0.3498
  102OSM   C16F10393   4.320   1.587   8.857  0.5718  0.3660 -0.3528
  102OSM   H16F10394   4.376   1.614   8.766  0.9662 -1.7133 -0.7780
  102OSM   H16G10395   4.303   1.679   8.917 -2.6386  1.1643 -2.2240
  102OSM   C17F10396   4.186   1.545   8.812  0.4914 -0.1174  0.0652
  102OSM   H17F10397   4.117   1.519   8.895  0.7763 -0.5958  0.1579
  102OSM   H17G10398   4.183   1.456   8.745  0.3883 -0.7985  0.9635
  102OSM   C18F10399   4.119   1.646   8.720  0.2778  0.2952 -0.3491
  102OSM   H18F10400   4.189   1.667   8.635 -0.4187 -1.9302 -1.5489
  102OSM   H18G10401   4.082   1.740   8.767  1.8398 -0.0482  1.6610
  102OSM   H18H10402   4.029   1.597   8.678  0.5741 -2.7378  2.2352
  103OSM      N10403   2.019   4.270  10.892  0.2722  0.2259  0.3931
  103OSM    C1510404   2.130   4.372  10.874  0.1862  0.4406 -0.5098
  103OSM   H15A10405   2.131   4.457  10.940 -1.4558 -0.2439  0.4649
  103OSM   H15B10406   2.138   4.417  10.776  1.1323 -1.6755 -1.4838
  103OSM   H15C10407   2.231   4.336  10.892  0.1098 -0.5824 -1.8969
  103OSM    C1410408   2.026   4.164  10.783 -0.3192 -0.6185  0.5834
  103OSM   H14A10409   2.040   4.213  10.687  1.3098 -0.2284  0.9951
  103OSM   H14B10410   1.944   4.096  10.767 -1.6288  1.5004 -2.8738
  103OSM   H14C10411   2.109   4.099  10.805 -1.3355 -1.2000  2.9038
  103OSM    C1310412   2.031   4.202  11.024  0.4417 -0.5195  0.4011
  103OSM   H13A10413   1.959   4.122  11.029 -0.9135  0.6732  0.7236
  103OSM   H13B10414   2.000   4.262  11.108 -0.0065 -0.5193  0.2408
  103OSM   H13C10415   2.132   4.169  11.045  0.3273 -1.6440 -0.7025
  103OSM    C1210416   1.878   4.324  10.883  0.0049  0.2009 -0.4139
  103OSM   H12A10417   1.862   4.390  10.967 -2.1664 -0.2131 -0.4576
  103OSM   H12B10418   1.820   4.233  10.889 -1.5342  0.8549 -3.1713
  103OSM    C1110419   1.835   4.400  10.754 -0.4740  0.5431 -0.0646
  103OSM   H11A10420   1.846   4.330  10.669  0.1141 -1.3733  1.5076
  103OSM   H11B10421   1.908   4.481  10.737  1.4133 -0.4888  2.5010
  103OSM      P10422   1.580   4.361  10.736 -0.0163 -0.1052  0.0720
  103OSM    O1310423   1.578   4.247  10.832 -0.8903 -0.3313 -0.3655
  103OSM    O1410424   1.454   4.434  10.711 -0.1027 -0.1907 -0.5892
  103OSM    O1110425   1.636   4.314  10.597 -0.4919 -0.0681  0.1125
  103OSM    O1210426   1.696   4.452  10.772  0.1038  0.2989  0.8114
  103OSM    C1S10427   1.641   4.422  10.498  0.2516  0.3564 -0.1746
  103OSM    H1S10428   1.747   4.455  10.502  0.4300 -0.2937  0.7685
  103OSM    H1T10429   1.573   4.506  10.522  1.3131  0.2843  3.6727
  103OSM     NF10430   1.618   4.466  10.263 -0.2416 -0.7908  0.2476
  103OSM    HNF10431   1.533   4.507  10.230  0.2597  0.1713  0.1092
  103OSM    C2S10432   1.612   4.361  10.362 -0.7466  0.4191  0.5513
  103OSM    H2S10433   1.685   4.283  10.331 -1.2600  0.5188 -0.9613
  103OSM    C3S10434   1.478   4.282  10.365 -0.0425  0.2120  0.4840
  103OSM    H3S10435   1.390   4.347  10.380  0.3321  1.6334 -2.6549
  103OSM     O310436   1.469   4.181  10.458 -0.3177  0.5669  0.4332
  103OSM    HO310437   1.550   4.195  10.507  0.1575  0.8100 -0.4147
  103OSM    C4S10438   1.449   4.228  10.224  0.1245 -0.0562  0.0556
  103OSM    H4S10439   1.392   4.303  10.167 -2.2925 -0.8915  1.2404
  103OSM    C5S10440   1.483   4.111  10.163 -0.6806  0.4276  0.2076
  103OSM    H5S10441   1.550   4.047  10.223  0.5347 -0.3988 -1.9345
  103OSM    C6S10442   1.453   4.052  10.027 -0.6956 -1.0843 -1.0570
  103OSM    H6S10443   1.417   3.948  10.041  1.2588 -2.1705 -3.3764
  103OSM    H6T10444   1.552   4.042   9.978 -0.4705  1.3906 -1.2279
  103OSM    C7S10445   1.367   4.140   9.935 -0.0715 -0.7892 -0.2142
  103OSM    H7S10446   1.423   4.233   9.914 -2.4458  0.6856 -0.4591
  103OSM    H7T10447   1.274   4.171   9.988  1.8277  2.3719  1.5420
  103OSM    C8S10448   1.356   4.072   9.798  0.1323 -1.4751  0.4129
  103OSM    H8S10449   1.302   3.975   9.796 -3.9602  0.5007  2.3332
  103OSM    H8T10450   1.455   4.069   9.748 -0.5792 -0.5308 -1.1409
  103OSM    C9S10451   1.285   4.165   9.701 -0.2532 -0.4425 -1.0942
  103OSM    H9S10452   1.346   4.257   9.696 -1.7424  0.9914  2.8609
  103OSM    H9T10453   1.184   4.192   9.741  1.1256 -1.0132  3.2908
  103OSM   C10S10454   1.281   4.111   9.558 -0.4639 -0.1490  0.4563
  103OSM   H10S10455   1.178   4.078   9.530  1.2759 -3.7472 -2.5964
  103OSM   H10T10456   1.356   4.034   9.531  0.0318  1.6429 -4.2558
  103OSM   C11S10457   1.301   4.226   9.456 -0.9744  0.4269 -0.0695
  103OSM   H11S10458   1.410   4.228   9.436 -0.7192 -1.2715  0.9148
  103OSM   H11T10459   1.278   4.324   9.503 -0.1822  0.3915  0.4051
  103OSM   C12S10460   1.232   4.208   9.320  0.5493  0.3794 -0.6766
  103OSM   H12S10461   1.122   4.205   9.338  0.5088  1.1570 -0.7907
  103OSM   H12T10462   1.264   4.111   9.276  0.9976 -0.2963  1.0417
  103OSM   C13S10463   1.262   4.322   9.229  0.2940 -0.0551  0.0610
  103OSM   H13S10464   1.372   4.339   9.241  0.4451 -1.4328  0.7716
  103OSM   H13T10465   1.203   4.411   9.260  0.4294  1.1150 -2.6653
  103OSM   C14S10466   1.222   4.303   9.080  0.1470  0.1744 -0.2483
  103OSM   H14S10467   1.283   4.221   9.035 -2.7414 -1.1209 -2.1067
  103OSM   H14T10468   1.237   4.395   9.020 -2.6363  0.6379 -0.3611
  103OSM   C15S10469   1.074   4.256   9.057 -0.6506 -0.4760 -0.3092
  103OSM   H15S10470   1.020   4.320   9.130  0.7618  0.7235 -0.2712
  103OSM   H15T10471   1.056   4.154   9.095 -1.7263  0.2252  1.1957
  103OSM   C16S10472   1.032   4.263   8.910  0.6711 -0.2548 -0.5122
  103OSM   H16S10473   1.060   4.360   8.864  0.0735  1.3904  2.3362
  103OSM   H16T10474   0.924   4.252   8.890  0.4924 -0.9608  0.7433
  103OSM   C17S10475   1.103   4.148   8.829 -0.0976  0.2023  0.1321
  103OSM   H17S10476   1.065   4.052   8.870  1.7038 -1.0782 -1.0409
  103OSM   H17T10477   1.210   4.147   8.859  0.1258 -0.5111 -0.6263
  103OSM   C18S10478   1.085   4.159   8.679 -0.8119  0.2506 -0.3774
  103OSM   H18S10479   1.084   4.262   8.636 -2.6976  0.0863 -0.8214
  103OSM   H18T10480   0.991   4.111   8.644 -1.5818  1.4356  0.0005
  103OSM   H18U10481   1.172   4.117   8.623 -0.3509  1.2690 -0.4523
  103OSM    C1F10482   1.732   4.534  10.242 -0.4389  0.2829  0.4471
  103OSM     OF10483   1.844   4.482  10.242 -0.1874 -0.3800 -0.6328
  103OSM    C2F10484   1.719   4.685  10.229 -0.4212 -0.3438  0.4094
  103OSM    H2F10485   1.782   4.730  10.309 -0.2256  0.8817 -0.4135
  103OSM    H2G10486   1.615   4.724  10.240  0.1174  1.9545 -1.8993
  103OSM    C3F10487   1.760   4.732  10.089 -0.2907  0.6955  0.0970
  103OSM    H3F10488   1.866   4.710  10.066 -0.2840  2.5219 -1.9460
  103OSM    H3G10489   1.762   4.843  10.088  1.1176  0.7051  1.1670
  103OSM    C4F10490   1.674   4.691   9.969 -0.5719 -0.6644 -0.3394
  103OSM    H4F10491   1.571   4.733   9.977 -0.0108  0.5824  0.5138
  103OSM    H4G10492   1.667   4.580   9.957  0.7569 -0.9013  0.8836
  103OSM    C5F10493   1.723   4.740   9.834  0.7870  0.8710 -0.0592
  103OSM    H5F10494   1.829   4.709   9.824  0.7539  0.1455  1.5176
  103OSM    H5G10495   1.735   4.851   9.841  2.8217  0.5779  2.6754
  103OSM    C6F10496   1.624   4.702   9.726 -0.5738  0.5298 -0.9113
  103OSM    H6F10497   1.537   4.771   9.730 -1.5360 -0.6884 -0.1134
  103OSM    H6G10498   1.594   4.596   9.739  4.0130 -0.8179  0.5941
  103OSM    C7F10499   1.684   4.717   9.587 -0.3679  0.3334 -0.5768
  103OSM    H7F10500   1.774   4.652   9.586  0.3914  1.3218  0.6629
  103OSM    H7G10501   1.726   4.818   9.569 -0.2519  0.5654  0.8946
  103OSM    C8F10502   1.592   4.692   9.468 -0.0880 -0.1246  0.3066
  103OSM    H8F10503   1.502   4.754   9.490 -0.8114 -1.7389  2.2261
  103OSM    H8G10504   1.566   4.585   9.456  0.8242 -0.1495 -1.8745
  103OSM    C9F10505   1.659   4.745   9.343 -0.0295  0.4758 -0.1226
  103OSM    H9F10506   1.767   4.764   9.351  0.6873 -3.2898  1.0666
  103OSM   C10F10507   1.603   4.764   9.218  0.6136  0.4244 -0.4540
  103OSM   H10F10508   1.664   4.811   9.139 -0.8541 -1.5346 -2.9185
  103OSM   C11F10509   1.454   4.737   9.179 -0.4237  0.1897 -0.2217
  103OSM   H11F10510   1.406   4.831   9.144  0.6339  0.5282 -0.8048
  103OSM   H11G10511   1.408   4.700   9.274  1.2019  0.3513  0.6566
  103OSM   C12F10512   1.433   4.641   9.062 -0.2535 -0.2181 -0.5800
  103OSM   H12F10513   1.340   4.582   9.076 -0.9452  1.2853  1.9064
  103OSM   H12G10514   1.514   4.566   9.054 -0.7353 -0.9205  0.8953
  103OSM   C13F10515   1.442   4.723   8.932 -0.2047  0.5300  0.0498
  103OSM   H13F10516   1.370   4.808   8.933 -0.7286  0.0915  1.4963
  103OSM   H13G10517   1.544   4.762   8.913  0.3759 -0.1477  1.6179
  103OSM   C14F10518   1.409   4.638   8.813 -0.5228 -0.0008  0.2750
  103OSM   H14F10519   1.475   4.549   8.823  1.0000  1.0696  0.0472
  103OSM   H14G10520   1.442   4.688   8.720  2.3187 -2.2540 -0.0587
  103OSM   C15F10521   1.264   4.584   8.795 -0.0611 -0.0269  0.0382
  103OSM   H15F10522   1.226   4.549   8.894  1.1337 -0.8755  0.2137
  103OSM   H15G10523   1.277   4.488   8.740 -0.8199 -0.3834  0.4621
  103OSM   C16F10524   1.164   4.675   8.721 -0.2627  0.5278  0.3039
  103OSM   H16F10525   1.221   4.725   8.639  1.2061 -1.2541  0.1670
  103OSM   H16G10526   1.136   4.761   8.785 -0.7725  0.8351 -0.3191
  103OSM   C17F10527   1.052   4.597   8.648 -0.0584 -0.2482 -0.5833
  103OSM   H17F10528   0.967   4.665   8.627 -1.2165 -0.8618  1.6997
  103OSM   H17G10529   1.021   4.520   8.722  1.4764 -0.6373 -0.3047
  103OSM   C18F10530   1.093   4.532   8.517  0.1536 -0.3230 -0.6199
  103OSM   H18F10531   1.185   4.471   8.525 -0.6603 -1.2982  2.8566
  103OSM   H18G10532   1.098   4.619   8.447  0.4564 -1.1069 -1.5942
  103OSM   H18H10533   1.013   4.457   8.503 -0.0410 -0.8485  2.5314
  104OSM      N10534   3.079   5.510  10.231 -0.1163  0.0024  0.3525
  104OSM    C1510535   3.032   5.567  10.097  0.4541  0.3626  0.5914
  104OSM   H15A10536   3.106   5.638  10.064  0.1912 -0.1441 -1.2411
  104OSM   H15B10537   2.941   5.624  10.110 -0.4782 -0.6970 -0.8468
  104OSM   H15C10538   3.019   5.486  10.026 -0.6791  0.6855  0.4026
  104OSM    C1410539   3.113   5.629  10.318 -0.2691  0.1176  0.6225
  104OSM   H14A10540   3.193   5.694  10.286 -0.1890 -0.7389 -1.0216
  104OSM   H14B10541   3.137   5.594  10.418 -1.5727  0.7990  1.2069
  104OSM   H14C10542   3.022   5.687  10.325 -0.2129  0.2022  0.6436
  104OSM    C1310543   2.963   5.431  10.279  0.4348 -0.0781 -0.0144
  104OSM   H13A10544   2.955   5.341  10.219  1.0725  0.9750 -1.7374
  104OSM   H13B10545   2.873   5.488  10.264  0.9291  1.3162  1.9172
  104OSM   H13C10546   2.977   5.405  10.383  0.4854  0.3621  0.0911
  104OSM    C1210547   3.207   5.424  10.214  0.8368  0.2618 -0.2651
  104OSM   H12A10548   3.232   5.377  10.308  1.0212  1.0425  0.0798
  104OSM   H12B10549   3.295   5.484  10.197  1.9000 -1.3465 -0.7045
  104OSM    C1110550   3.195   5.311  10.109 -0.0035 -0.0839 -0.0994
  104OSM   H11A10551   3.302   5.284  10.095 -0.2386 -0.8658 -0.3698
  104OSM   H11B10552   3.158   5.355  10.014 -0.8009  3.3620  1.6422
  104OSM      P10553   3.133   5.114  10.269 -0.0508 -0.0783 -0.1116
  104OSM    O1310554   3.229   5.174  10.366 -0.0720  0.5319 -0.0450
  104OSM    O1410555   3.006   5.090  10.331 -0.2025  0.7917  0.8278
  104OSM    O1110556   3.189   4.983  10.213  0.0041 -0.7169  0.3360
  104OSM    O1210557   3.111   5.202  10.141 -0.6396 -0.2450 -0.2804
  104OSM    C1S10558   3.131   4.911  10.102 -0.0932  0.3735 -0.4762
  104OSM    H1S10559   3.020   4.911  10.094 -0.0881  0.0103 -0.5755
  104OSM    H1T10560   3.164   4.808  10.126  0.2746  0.7681  0.7612
  104OSM     NF10561   3.130   4.871   9.844 -0.8154 -0.6625 -0.4724
  104OSM    HNF10562   3.184   4.798   9.803  2.1499  1.7627 -1.1650
  104OSM    C2S10563   3.195   4.945   9.959 -0.0148 -0.8353  0.0391
  104OSM    H2S10564   3.172   5.052   9.939 -0.5787 -0.8097  0.7976
  104OSM    C3S10565   3.349   4.937   9.950 -0.5788  0.1556 -0.7012
  104OSM    H3S10566   3.378   4.830   9.961 -0.6178 -0.1235 -2.9765
  104OSM     O310567   3.415   4.989  10.066 -0.0024  0.6486  0.0633
  104OSM    HO310568   3.347   4.984  10.134  1.0323 -4.2152  1.0924
  104OSM    C4S10569   3.405   4.986   9.823  0.0215  0.3920 -0.0894
  104OSM    H4S10570   3.430   4.904   9.754  2.2567  0.5430  0.4579
  104OSM    C5S10571   3.405   5.111   9.778 -0.5265 -0.3864 -0.2510
  104OSM    H5S10572   3.357   5.191   9.836 -0.9452 -0.6441 -0.2349
  104OSM    C6S10573   3.454   5.155   9.649 -0.4332 -0.3146  0.1622
  104OSM    H6S10574   3.540   5.225   9.656 -1.6616  1.4002 -0.8769
  104OSM    H6T10575   3.374   5.213   9.598 -1.1533 -1.1920  0.2764
  104OSM    C7S10576   3.485   5.044   9.548  0.0381 -0.1258 -0.2179
  104OSM    H7S10577   3.398   4.975   9.539 -1.2931  1.4280  0.1331
  104OSM    H7T10578   3.572   4.978   9.569  0.1149  0.0406 -0.0075
  104OSM    C8S10579   3.525   5.100   9.410  0.2269 -0.1081  0.1574
  104OSM    H8S10580   3.607   5.175   9.406  0.5400 -0.3090  2.0183
  104OSM    H8T10581   3.435   5.153   9.371 -0.8676 -1.6365  0.5104
  104OSM    C9S10582   3.560   4.986   9.323 -1.0981  0.0304  0.6662
  104OSM    H9S10583   3.472   4.919   9.317 -1.4709  0.5309  0.5243
  104OSM    H9T10584   3.644   4.932   9.371 -0.2464 -0.3544 -1.1702
  104OSM   C10S10585   3.602   5.035   9.179  0.4117  0.4440  0.7116
  104OSM   H10S10586   3.704   5.081   9.181  0.1860  1.3182 -2.3339
  104OSM   H10T10587   3.529   5.110   9.140 -1.2622 -0.8584  1.2546
  104OSM   C11S10588   3.605   4.914   9.086  0.0448  0.5759  0.4212
  104OSM   H11S10589   3.499   4.881   9.085  0.4743 -1.0095 -2.0563
  104OSM   H11T10590   3.670   4.838   9.133  2.5752  0.0999 -3.4012
  104OSM   C12S10591   3.646   4.940   8.945  0.1115 -0.7407  0.5579
  104OSM   H12S10592   3.745   4.988   8.927  0.7928 -2.2897 -0.0494
  104OSM   H12T10593   3.572   5.011   8.903 -0.6919  1.0249  4.4962
  104OSM   C13S10594   3.642   4.813   8.857  0.3112 -0.0927  0.4470
  104OSM   H13S10595   3.533   4.791   8.858  0.0494  0.8263  3.3295
  104OSM   H13T10596   3.695   4.734   8.914 -0.9862  0.5375  2.6641
  104OSM   C14S10597   3.699   4.836   8.715  0.6264  0.2700 -0.1932
  104OSM   H14S10598   3.808   4.817   8.714  0.5119 -0.3907 -1.2560
  104OSM   H14T10599   3.676   4.933   8.665  0.2425  0.3572  0.1442
  104OSM   C15S10600   3.634   4.735   8.620 -0.0933  0.8641 -0.3066
  104OSM   H15S10601   3.524   4.742   8.608 -0.2718 -1.6303 -0.6626
  104OSM   H15T10602   3.644   4.635   8.668  1.7335  1.7507  1.2785
  104OSM   C16S10603   3.708   4.714   8.487  0.1850 -0.0597  0.1549
  104OSM   H16S10604   3.813   4.695   8.519  0.2461  3.5767  2.6195
  104OSM   H16T10605   3.715   4.803   8.421  2.9188 -0.3340 -0.0532
  104OSM   C17S10606   3.646   4.603   8.396 -0.5305 -0.0794  0.0063
  104OSM   H17S10607   3.588   4.650   8.315 -3.8310  0.4981  2.4998
  104OSM   H17T10608   3.575   4.539   8.454 -1.5450 -0.5639 -1.7098
  104OSM   C18S10609   3.748   4.513   8.326  0.2173  1.0439 -0.4244
  104OSM   H18S10610   3.810   4.454   8.397  0.6489  0.2116 -1.4464
  104OSM   H18T10611   3.826   4.583   8.289 -0.4408  2.4365  0.7331
  104OSM   H18U10612   3.719   4.448   8.240  1.4904 -1.9773  1.2830
  104OSM    C1F10613   2.999   4.894   9.816 -0.2438 -0.0228 -0.2160
  104OSM     OF10614   2.938   4.987   9.860  0.0152  0.0273 -0.1438
  104OSM    C2F10615   2.933   4.783   9.753 -0.5630  1.0223  0.2177
  104OSM    H2F10616   2.852   4.730   9.807 -1.4893  0.2453 -1.7961
  104OSM    H2G10617   3.011   4.706   9.732  1.1419  2.2243  1.8248
  104OSM    C3F10618   2.876   4.825   9.620  0.1942 -0.1405 -0.3701
  104OSM    H3F10619   2.952   4.861   9.547 -1.4034 -0.7884 -2.4755
  104OSM    H3G10620   2.799   4.903   9.642 -3.9857 -3.8681 -0.3988
  104OSM    C4F10621   2.805   4.713   9.549  0.4483  0.7123  0.0580
  104OSM    H4F10622   2.711   4.693   9.606 -0.7928  1.1093 -1.7376
  104OSM    H4G10623   2.871   4.624   9.539  1.7326  1.7127 -0.5086
  104OSM    C5F10624   2.753   4.764   9.412 -0.0773  0.1331  0.0945
  104OSM    H5F10625   2.838   4.803   9.352 -1.0638 -0.7650 -1.9738
  104OSM    H5G10626   2.679   4.842   9.442  0.5793 -0.0218  2.2835
  104OSM    C6F10627   2.684   4.665   9.313  0.3512 -0.2279 -0.2244
  104OSM    H6F10628   2.623   4.730   9.247 -1.3625 -0.8751  0.6868
  104OSM    H6G10629   2.615   4.590   9.356  1.5976 -1.3426 -0.0896
  104OSM    C7F10630   2.780   4.587   9.220  0.1143  0.2056 -1.1758
  104OSM    H7F10631   2.708   4.529   9.158  0.0962 -0.6444 -0.3713
  104OSM    H7G10632   2.844   4.514   9.274  0.5824 -1.0139 -3.2336
  104OSM    C8F10633   2.854   4.666   9.125 -0.3890 -0.5652  0.4122
  104OSM    H8F10634   2.938   4.704   9.187 -1.4301 -0.1177  1.6087
  104OSM    H8G10635   2.801   4.761   9.102 -0.5832 -0.8636 -0.4057
  104OSM    C9F10636   2.901   4.604   8.998 -0.0701  0.2107  0.4570
  104OSM    H9F10637   3.009   4.583   8.997 -0.0404  0.3276  0.9568
  104OSM   C10F10638   2.829   4.573   8.885 -0.1815 -0.3562 -0.6949
  104OSM   H10F10639   2.876   4.531   8.795 -0.2904  2.9700 -2.4801
  104OSM   C11F10640   2.684   4.608   8.864  0.1121 -0.1909  0.4507
  104OSM   H11F10641   2.626   4.592   8.958  2.0860  0.6968  1.8735
  104OSM   H11G10642   2.630   4.534   8.802 -1.5569  0.7864  0.6766
  104OSM   C12F10643   2.662   4.742   8.791 -0.1559 -0.6743 -0.0456
  104OSM   H12F10644   2.728   4.818   8.838 -1.1886  0.2935 -0.1249
  104OSM   H12G10645   2.556   4.772   8.801 -1.3414 -3.1142 -3.5132
  104OSM   C13F10646   2.691   4.751   8.638 -0.5789 -0.0418  0.1766
  104OSM   H13F10647   2.799   4.735   8.618 -0.2024  1.0841  1.2647
  104OSM   H13G10648   2.673   4.852   8.596  0.8871 -0.4879 -1.6831
  104OSM   C14F10649   2.607   4.648   8.559 -0.0454 -0.0627  0.4418
  104OSM   H14F10650   2.510   4.637   8.612 -1.4581  2.0573 -1.4779
  104OSM   H14G10651   2.658   4.550   8.566 -2.0781 -1.2928 -0.9086
  104OSM   C15F10652   2.590   4.691   8.417 -0.4883 -0.6130 -0.7660
  104OSM   H15F10653   2.683   4.717   8.361  0.4442 -1.3537  0.3910
  104OSM   H15G10654   2.521   4.777   8.417 -0.8451 -0.8942 -0.5186
  104OSM   C16F10655   2.517   4.581   8.339  0.0740 -0.0279  0.3243
  104OSM   H16F10656   2.412   4.563   8.369  0.4806 -1.7870  0.8130
  104OSM   H16G10657   2.574   4.487   8.353  3.0736  1.5350 -0.4684
  104OSM   C17F10658   2.518   4.601   8.195  0.5786 -0.7041 -0.2777
  104OSM   H17F10659   2.620   4.622   8.156 -0.3242  3.2069 -1.0234
  104OSM   H17G10660   2.453   4.690   8.187 -0.7048 -1.4233  1.4659
  104OSM   C18F10661   2.456   4.483   8.129 -0.1687  0.3898  0.9089
  104OSM   H18F10662   2.520   4.392   8.121 -2.1001 -1.1389  1.9422
  104OSM   H18G10663   2.431   4.495   8.021  0.5783 -0.7656  0.5794
  104OSM   H18H10664   2.363   4.445   8.176  0.5600 -0.2195  1.9191
  105OSM      N10665   4.872   4.198  10.780 -0.3335  0.0092  0.6464
  105OSM    C1510666   4.827   4.116  10.902 -0.0908 -0.3069 -0.0642
  105OSM   H15A10667   4.885   4.132  10.991  1.2369  0.4721 -1.0303
  105OSM   H15B10668   4.830   4.010  10.882  3.1045 -0.1108 -1.1289
  105OSM   H15C10669   4.723   4.140  10.919  0.1664 -0.1418  1.3439
  105OSM    C1410670   4.807   4.330  10.786  0.1726 -0.2788 -0.5805
  105OSM   H14A10671   4.699   4.322  10.779 -0.1324  1.5960  1.1218
  105OSM   H14B10672   4.830   4.384  10.695 -0.0996 -0.6671 -0.8833
  105OSM   H14C10673   4.841   4.380  10.875 -0.2014  0.8315 -1.0449
  105OSM    C1310674   5.021   4.207  10.789  0.1112  0.2036 -0.4258
  105OSM   H13A10675   5.071   4.115  10.815 -1.5095 -0.7824 -0.6623
  105OSM   H13B10676   5.051   4.279  10.863  0.2385  0.7427 -0.9954
  105OSM   H13C10677   5.063   4.251  10.700 -0.2670  0.7747 -0.3293
  105OSM    C1210678   4.816   4.128  10.650 -0.2892  0.3380 -0.4404
  105OSM   H12A10679   4.711   4.107  10.666 -0.3438  0.6104 -0.4265
  105OSM   H12B10680   4.865   4.032  10.654  0.2020  0.6280  0.7856
  105OSM    C1110681   4.843   4.200  10.519  0.8998  0.2525  0.6024
  105OSM   H11A10682   4.800   4.302  10.526  0.8971  0.1956  1.6509
  105OSM   H11B10683   4.785   4.157  10.434 -0.0788  1.2301  0.7547
  105OSM      P10684   5.060   4.112  10.410  0.2892 -0.5936 -0.4495
  105OSM    O1310685   5.179   4.173  10.352 -0.6215  0.1069  1.1836
  105OSM    O1410686   5.090   3.992  10.491  0.0384 -0.2539 -0.4485
  105OSM    O1110687   4.953   4.068  10.294  0.3619 -0.3263 -0.0060
  105OSM    O1210688   4.977   4.220  10.495 -0.0013  0.2936 -0.4963
  105OSM    C1S10689   4.941   4.158  10.183 -0.0685  0.3368 -0.2954
  105OSM    H1S10690   5.042   4.189  10.148 -0.2806  3.7499  1.6809
  105OSM    H1T10691   4.897   4.257  10.210 -2.0845 -0.3445 -0.9013
  105OSM     NF10692   4.874   4.178   9.951  0.1926  0.3695 -0.3644
  105OSM    HNF10693   4.805   4.249   9.956  1.4373  1.5356  1.4939
  105OSM    C2S10694   4.873   4.087  10.064 -0.1869  0.2926  0.3367
  105OSM    H2S10695   4.931   3.998  10.032  1.9841  2.3407 -1.8394
  105OSM    C3S10696   4.727   4.040  10.100 -0.6548  0.2833  0.4241
  105OSM    H3S10697   4.651   4.121  10.096 -2.0322 -1.0041 -2.5852
  105OSM     O310698   4.713   3.977  10.224  0.3459 -0.2288 -0.1698
  105OSM    HO310699   4.803   3.971  10.256 -0.0437 -0.6000  0.9340
  105OSM    C4S10700   4.685   3.937   9.995 -0.2920  0.1353 -0.5145
  105OSM    H4S10701   4.770   3.891   9.942  0.0721 -1.1462  1.0966
  105OSM    C5S10702   4.555   3.915   9.964 -1.1141 -0.5302  0.1317
  105OSM    H5S10703   4.478   3.953  10.033  0.1465  0.7576  0.8948
  105OSM    C6S10704   4.508   3.835   9.842  0.2403 -0.0192 -0.2325
  105OSM    H6S10705   4.456   3.909   9.777  0.4192  2.2000  1.9954
  105OSM    H6T10706   4.419   3.788   9.889  0.5664  1.6041  2.1265
  105OSM    C7S10707   4.615   3.748   9.778 -0.2478 -0.8189 -0.3476
  105OSM    H7S10708   4.642   3.666   9.847 -4.4438 -0.5089  2.0406
  105OSM    H7T10709   4.702   3.811   9.749 -0.4167  0.2584  1.3263
  105OSM    C8S10710   4.543   3.675   9.670  0.8391 -0.0655 -0.1157
  105OSM    H8S10711   4.490   3.743   9.599 -1.4109 -2.1771 -0.5699
  105OSM    H8T10712   4.460   3.616   9.713 -0.0481  0.3325 -1.2116
  105OSM    C9S10713   4.616   3.573   9.583  0.3274 -0.8483 -0.5365
  105OSM    H9S10714   4.552   3.502   9.526  0.5034 -1.5287  0.0950
  105OSM    H9T10715   4.677   3.525   9.662 -1.0697 -2.4204 -0.3561
  105OSM   C10S10716   4.706   3.643   9.475  0.4818 -0.1986  0.2286
  105OSM   H10S10717   4.771   3.716   9.528 -0.5119 -0.0877  1.3499
  105OSM   H10T10718   4.639   3.687   9.398  0.9309 -1.6717 -1.0294
  105OSM   C11S10719   4.809   3.545   9.408  0.0438 -0.6527  0.2888
  105OSM   H11S10720   4.882   3.513   9.486 -0.8148 -1.5561  0.7470
  105OSM   H11T10721   4.863   3.592   9.323 -2.0186 -0.0675 -0.7522
  105OSM   C12S10722   4.752   3.413   9.356 -0.6125  0.0465  0.1199
  105OSM   H12S10723   4.650   3.421   9.313  0.0672 -1.2838 -1.9314
  105OSM   H12T10724   4.752   3.341   9.440 -0.1350  0.9149  0.8834
  105OSM   C13S10725   4.843   3.345   9.254  0.8291  0.5669  0.1856
  105OSM   H13S10726   4.950   3.332   9.279  0.7304 -0.4475  0.1218
  105OSM   H13T10727   4.839   3.404   9.160  1.3070  1.1389  0.5171
  105OSM   C14S10728   4.769   3.211   9.211  0.2366 -0.1404 -0.8690
  105OSM   H14S10729   4.665   3.233   9.180  0.2098 -0.1423 -0.7825
  105OSM   H14T10730   4.756   3.142   9.298  3.8924  0.3263  0.2267
  105OSM   C15S10731   4.850   3.125   9.112 -0.2295 -0.3363 -0.2224
  105OSM   H15S10732   4.815   3.020   9.118 -0.5748 -0.1615  1.2439
  105OSM   H15T10733   4.959   3.128   9.138  0.3088 -1.0386 -2.2453
  105OSM   C16S10734   4.834   3.158   8.965 -0.3016 -0.5646 -0.3557
  105OSM   H16S10735   4.897   3.096   8.899  1.1091 -0.7381  1.1049
  105OSM   H16T10736   4.867   3.263   8.948  1.1090 -0.7062  1.2114
  105OSM   C17S10737   4.681   3.138   8.922 -0.2673 -0.4243  0.9156
  105OSM   H17S10738   4.613   3.202   8.982 -1.0792 -0.1799 -0.2433
  105OSM   H17T10739   4.649   3.034   8.942 -0.5027 -0.5466 -0.0664
  105OSM   C18S10740   4.662   3.190   8.777  0.2412 -0.8554 -0.3090
  105OSM   H18S10741   4.706   3.117   8.704  0.3804 -0.8168 -0.2645
  105OSM   H18T10742   4.719   3.285   8.765 -3.6764  1.7872  0.3060
  105OSM   H18U10743   4.558   3.206   8.741  0.6701 -2.8355 -2.7547
  105OSM    C1F10744   4.978   4.183   9.872  0.0921 -0.8693  0.0678
  105OSM     OF10745   5.075   4.111   9.885  0.4416 -0.6084  0.4736
  105OSM    C2F10746   4.958   4.279   9.751  0.0263  0.4768  0.3175
  105OSM    H2F10747   5.005   4.377   9.773  1.0122  0.3931 -1.3129
  105OSM    H2G10748   4.852   4.299   9.724 -0.1244 -1.4017 -0.6565
  105OSM    C3F10749   5.012   4.208   9.627  0.0430 -0.1812 -0.0257
  105OSM    H3F10750   4.953   4.116   9.608  0.6441 -0.2356 -1.7540
  105OSM    H3G10751   5.120   4.184   9.633 -0.1325 -1.5374 -1.4629
  105OSM    C4F10752   4.998   4.297   9.500  0.0090 -0.3938 -0.4109
  105OSM    H4F10753   5.075   4.378   9.500 -0.6938  0.4814 -4.4170
  105OSM    H4G10754   4.892   4.325   9.486  0.0537  0.3663  0.6469
  105OSM    C5F10755   5.055   4.222   9.378  0.3224 -0.0042  0.0157
  105OSM    H5F10756   4.971   4.155   9.352  0.6620 -0.2746 -0.4094
  105OSM    H5G10757   5.144   4.160   9.404  1.4400  1.0017 -1.2510
  105OSM    C6F10758   5.081   4.324   9.262 -0.3373  0.2497 -0.3016
  105OSM    H6F10759   5.175   4.371   9.297 -0.3294 -0.2906  0.4281
  105OSM    H6G10760   4.994   4.393   9.263  0.6695  1.5822  2.5178
  105OSM    C7F10761   5.092   4.270   9.128  0.3444 -0.1713  0.6668
  105OSM    H7F10762   4.995   4.237   9.085 -0.1118 -0.6304  1.9978
  105OSM    H7G10763   5.146   4.176   9.152 -2.5431 -1.9908  0.5111
  105OSM    C8F10764   5.172   4.366   9.038 -0.0384 -0.5039 -0.0801
  105OSM    H8F10765   5.276   4.371   9.075 -0.2187 -1.5926  0.6098
  105OSM    H8G10766   5.123   4.466   9.040 -0.8331 -0.8548 -1.0455
  105OSM    C9F10767   5.174   4.323   8.884 -0.4805  0.4616  0.3667
  105OSM    H9F10768   5.197   4.218   8.865  0.6512  1.0944 -2.0674
  105OSM   C10F10769   5.164   4.407   8.781  0.7507 -0.5056  0.5876
  105OSM   H10F10770   5.154   4.366   8.679  1.7544 -2.0024  1.0508
  105OSM   C11F10771   5.127   4.553   8.788 -0.3311 -0.0421 -0.0021
  105OSM   H11F10772   5.211   4.609   8.835 -1.0982  0.3193  0.9751
  105OSM   H11G10773   5.043   4.568   8.860 -1.4658 -1.1058 -1.0798
  105OSM   C12F10774   5.086   4.612   8.657 -0.2074 -0.5207  0.8938
  105OSM   H12F10775   5.059   4.718   8.673  2.6416  0.4989 -0.4651
  105OSM   H12G10776   4.999   4.554   8.619  0.6003 -1.1695 -0.0198
  105OSM   C13F10777   5.189   4.596   8.546 -0.3086  0.3931  0.6965
  105OSM   H13F10778   5.222   4.495   8.515  1.0524  1.3016 -0.9486
  105OSM   H13G10779   5.276   4.648   8.591 -0.9488  1.8812  0.2497
  105OSM   C14F10780   5.157   4.690   8.433 -0.2235 -0.5227  0.5367
  105OSM   H14F10781   5.151   4.796   8.466  3.8178  0.7684 -2.1555
  105OSM   H14G10782   5.068   4.671   8.368  2.0656  0.4588 -3.2318
  105OSM   C15F10783   5.273   4.696   8.334 -0.3121 -0.7663 -0.2418
  105OSM   H15F10784   5.300   4.600   8.284 -1.4545  0.1082 -2.7369
  105OSM   H15G10785   5.357   4.739   8.392 -0.7168  1.2580 -1.0806
  105OSM   C16F10786   5.248   4.789   8.218 -0.2920 -0.8121  0.2793
  105OSM   H16F10787   5.192   4.879   8.248  0.3191  0.1449 -1.3117
  105OSM   H16G10788   5.169   4.740   8.157 -1.3520 -1.0738  1.8116
  105OSM   C17F10789   5.365   4.845   8.147  0.3239 -0.5042 -0.3462
  105OSM   H17F10790   5.417   4.911   8.220 -1.8769  2.3915 -1.1728
  105OSM   H17G10791   5.342   4.914   8.063  0.7365  1.4231  1.0272
  105OSM   C18F10792   5.461   4.740   8.087  0.0142  0.1706  0.3625
  105OSM   H18F10793   5.485   4.666   8.166 -0.8772 -0.5861 -0.0476
  105OSM   H18G10794   5.553   4.783   8.041 -0.0966 -1.0280 -1.0624
  105OSM   H18H10795   5.404   4.677   8.015 -2.2073  0.8465  1.4362
  106OSM      N10796   2.692   1.546  10.208  0.4055  0.6444 -0.0916
  106OSM    C1510797   2.662   1.410  10.161  0.1467  0.4934  0.3727
  106OSM   H15A10798   2.566   1.407  10.112  0.8996  1.4960 -1.2512
  106OSM   H15B10799   2.667   1.339  10.243 -0.4263  0.2575  0.2066
  106OSM   H15C10800   2.731   1.368  10.089 -0.8760 -2.9639  1.1838
  106OSM    C1410801   2.681   1.634  10.091 -0.1299  0.1893  0.0349
  106OSM   H14A10802   2.762   1.616  10.022 -0.3753  1.8706 -0.7462
  106OSM   H14B10803   2.687   1.739  10.113  0.0759 -0.0141  0.9788
  106OSM   H14C10804   2.584   1.618  10.045 -0.1767 -0.5673  0.3825
  106OSM    C1310805   2.579   1.577  10.307 -1.4285 -0.2174 -0.0310
  106OSM   H13A10806   2.576   1.683  10.326 -0.4826 -0.8220  4.3394
  106OSM   H13B10807   2.586   1.538  10.407  0.4990  0.6459  0.2102
  106OSM   H13C10808   2.485   1.559  10.256 -1.3078  0.5656 -0.5521
  106OSM    C1210809   2.827   1.548  10.274  0.1839 -0.3288  0.4024
  106OSM   H12A10810   2.859   1.646  10.305  0.3960 -0.3366  0.2065
  106OSM   H12B10811   2.900   1.518  10.200 -1.4163  0.4434 -1.5841
  106OSM    C1110812   2.847   1.450  10.396  0.3457  0.5490  0.2999
  106OSM   H11A10813   2.771   1.486  10.469 -1.7470 -0.0145 -1.4778
  106OSM   H11B10814   2.951   1.461  10.431  0.4072  1.2043 -0.0743
  106OSM      P10815   2.938   1.227  10.287 -0.2100  0.6315  0.1220
  106OSM    O1310816   3.061   1.215  10.373 -0.4194  0.4481 -0.0845
  106OSM    O1410817   2.867   1.102  10.244 -0.3056 -0.4629 -0.0859
  106OSM    O1110818   2.972   1.311  10.155  0.4345  0.2135  0.1996
  106OSM    O1210819   2.827   1.311  10.367  0.4154  0.1516 -0.2230
  106OSM    C1S10820   3.110   1.336  10.124 -1.2855 -0.1892 -0.0559
  106OSM    H1S10821   3.184   1.264  10.165  1.3512  1.5974 -1.4261
  106OSM    H1T10822   3.144   1.430  10.171 -0.2943 -1.6085  2.2150
  106OSM     NF10823   3.276   1.374   9.934 -0.4057 -0.1983 -0.3380
  106OSM    HNF10824   3.308   1.468   9.923  0.0370 -0.4659 -1.5390
  106OSM    C2S10825   3.136   1.344   9.975  0.1643 -1.0617 -0.0576
  106OSM    H2S10826   3.098   1.255   9.919  1.4265 -1.3544 -0.4680
  106OSM    C3S10827   3.044   1.458   9.919  0.2184 -0.2913  0.0543
  106OSM    H3S10828   3.084   1.545   9.976  0.1583 -0.7453  0.8098
  106OSM     O310829   2.907   1.460   9.951 -0.3019  0.4189 -0.0282
  106OSM    HO310830   2.907   1.386  10.013 -1.0509  1.0200  0.6985
  106OSM    C4S10831   3.068   1.490   9.775 -0.4090  0.4252 -0.6987
  106OSM    H4S10832   3.076   1.400   9.712 -0.1003 -0.1604  0.1682
  106OSM    C5S10833   3.093   1.614   9.725 -0.3813 -0.3019 -0.0434
  106OSM    H5S10834   3.106   1.700   9.794  2.2537  1.0857 -2.0834
  106OSM    C6S10835   3.127   1.648   9.586 -0.5090 -0.0312 -0.3084
  106OSM    H6S10836   3.135   1.559   9.519  1.9078  0.8564 -1.3286
  106OSM    H6T10837   3.230   1.688   9.575  0.2890 -2.2461 -1.6883
  106OSM    C7S10838   3.033   1.746   9.518 -0.4998 -0.2961  0.6925
  106OSM    H7S10839   3.038   1.842   9.575  2.5529  0.1709 -0.1635
  106OSM    H7T10840   2.929   1.710   9.504 -0.4315 -1.6029  3.0122
  106OSM    C8S10841   3.075   1.792   9.376 -0.2158 -0.8480 -0.1141
  106OSM    H8S10842   3.185   1.805   9.382 -0.3606  0.8833 -0.5874
  106OSM    H8T10843   3.037   1.894   9.352  0.0760 -0.6545  0.2381
  106OSM    C9S10844   3.021   1.694   9.267  0.0295  0.2661  0.5020
  106OSM    H9S10845   2.911   1.687   9.276  0.2819 -1.4158  3.4779
  106OSM    H9T10846   3.062   1.591   9.278 -0.7938 -0.1540 -0.1879
  106OSM   C10S10847   3.032   1.742   9.120  0.2549 -0.3317 -0.0200
  106OSM   H10S10848   3.132   1.790   9.114  0.3001 -0.5332 -1.1582
  106OSM   H10T10849   2.958   1.824   9.118 -1.0842 -1.4421  1.4607
  106OSM   C11S10850   3.002   1.625   9.028  0.1560 -0.0319  1.1442
  106OSM   H11S10851   2.909   1.575   9.062 -0.8894  2.2859  1.9131
  106OSM   H11T10852   3.087   1.554   9.032 -0.2783 -0.6759 -0.3735
  106OSM   C12S10853   3.006   1.670   8.879  0.3936 -0.0933 -0.3637
  106OSM   H12S10854   3.089   1.738   8.854 -0.2033  0.5186 -0.6997
  106OSM   H12T10855   2.911   1.726   8.864  0.0254 -0.6553 -0.2166
  106OSM   C13S10856   3.030   1.559   8.776  0.3440 -0.1612 -0.3351
  106OSM   H13S10857   2.957   1.481   8.807 -0.7939  0.9950 -0.0294
  106OSM   H13T10858   3.132   1.519   8.796  0.2962  0.6681  1.7869
  106OSM   C14S10859   3.002   1.594   8.634  0.3901 -0.2661 -0.4245
  106OSM   H14S10860   2.898   1.634   8.636  0.8374  0.9194  1.6587
  106OSM   H14T10861   3.006   1.496   8.581 -0.7828 -0.9296  0.6614
  106OSM   C15S10862   3.107   1.676   8.569 -0.4484 -0.1116 -0.5262
  106OSM   H15S10863   3.210   1.644   8.595 -0.5225  0.3755  0.3856
  106OSM   H15T10864   3.099   1.780   8.607  0.3087 -0.2230 -0.0532
  106OSM   C16S10865   3.086   1.679   8.418 -0.2820 -0.0462 -0.3122
  106OSM   H16S10866   2.987   1.724   8.394  0.7730  1.8685 -1.3485
  106OSM   H16T10867   3.092   1.575   8.380 -3.5796 -0.5187  0.1512
  106OSM   C17S10868   3.195   1.756   8.341 -0.1302 -0.6906 -0.2040
  106OSM   H17S10869   3.203   1.854   8.392 -0.0927 -0.9720  0.3294
  106OSM   H17T10870   3.159   1.774   8.237 -0.3182 -1.3217 -0.2550
  106OSM   C18S10871   3.329   1.690   8.333 -0.0501 -0.6650  0.1718
  106OSM   H18S10872   3.391   1.703   8.425  0.9337  0.8089 -0.6479
  106OSM   H18T10873   3.386   1.733   8.248 -2.0295  0.3014 -0.7193
  106OSM   H18U10874   3.322   1.582   8.311 -0.9712 -0.4180 -0.7841
  106OSM    C1F10875   3.357   1.274   9.905  0.3382 -0.5046  0.1131
  106OSM     OF10876   3.325   1.156   9.901  0.7286 -0.0558 -0.6270
  106OSM    C2F10877   3.506   1.301   9.887 -0.3995  0.1524 -0.1355
  106OSM    H2F10878   3.565   1.213   9.855  0.0743 -0.7081  2.7605
  106OSM    H2G10879   3.543   1.341   9.984  0.2500  0.7525 -0.6260
  106OSM    C3F10880   3.535   1.409   9.780 -0.0322 -0.5124 -0.2158
  106OSM    H3F10881   3.645   1.425   9.778 -0.2680  1.2991 -0.7538
  106OSM    H3G10882   3.506   1.513   9.809 -0.3875 -0.2486 -1.4444
  106OSM    C4F10883   3.483   1.370   9.641  0.1738 -0.4074 -0.5074
  106OSM    H4F10884   3.376   1.343   9.646  0.7563 -2.8505  0.8902
  106OSM    H4G10885   3.524   1.271   9.612  1.1076  0.3200 -1.7721
  106OSM    C5F10886   3.508   1.472   9.527  1.0414 -0.0123  0.2425
  106OSM    H5F10887   3.615   1.502   9.530  0.6753  1.7033 -1.6178
  106OSM    H5G10888   3.454   1.567   9.550  0.8414 -0.7221  3.1747
  106OSM    C6F10889   3.477   1.418   9.385 -0.2367  0.4440 -0.4143
  106OSM    H6F10890   3.374   1.376   9.378 -0.7723  1.0587  2.4455
  106OSM    H6G10891   3.547   1.333   9.371  0.7981  1.0751  0.7553
  106OSM    C7F10892   3.509   1.514   9.271  0.3086  0.4689  0.3510
  106OSM    H7F10893   3.536   1.611   9.317 -3.9154  1.8318  0.4009
  106OSM    H7G10894   3.411   1.525   9.219 -0.8280 -1.5851  1.9084
  106OSM    C8F10895   3.609   1.462   9.167 -0.0348 -0.2466 -0.3900
  106OSM    H8F10896   3.557   1.380   9.114 -0.5971  1.9012 -3.4126
  106OSM    H8G10897   3.690   1.415   9.226  0.5641 -1.4777 -2.1223
  106OSM    C9F10898   3.658   1.570   9.079  0.3783 -1.0746  0.4870
  106OSM    H9F10899   3.586   1.610   9.006  1.6730 -2.7730 -1.8733
  106OSM   C10F10900   3.783   1.620   9.078 -0.5243  0.9186 -0.1378
  106OSM   H10F10901   3.816   1.691   9.000  2.9003 -0.0628  0.2589
  106OSM   C11F10902   3.900   1.586   9.169  0.9512 -0.2690 -0.4758
  106OSM   H11F10903   3.996   1.592   9.114  0.4650  0.1599 -1.2909
  106OSM   H11G10904   3.891   1.476   9.176  1.1415 -0.4458 -2.5654
  106OSM   C12F10905   3.903   1.650   9.304  0.4681 -0.8155  0.2334
  106OSM   H12F10906   3.815   1.609   9.357  0.1511 -0.2343  0.1677
  106OSM   H12G10907   3.912   1.760   9.291 -0.6923 -0.8979 -1.5867
  106OSM   C13F10908   4.027   1.602   9.372 -0.0894 -0.5293  0.5667
  106OSM   H13F10909   4.116   1.641   9.319 -0.3863  3.1744  2.4642
  106OSM   H13G10910   4.025   1.491   9.380  0.1537 -0.8160 -2.3997
  106OSM   C14F10911   4.035   1.650   9.510  0.2091  0.7041 -0.0929
  106OSM   H14F10912   4.049   1.760   9.512  4.4275  0.3453  1.9555
  106OSM   H14G10913   4.117   1.604   9.569 -2.3276  1.2479  4.3281
  106OSM   C15F10914   3.914   1.628   9.597  0.6493  0.7377  0.8467
  106OSM   H15F10915   3.901   1.518   9.605  0.5874  0.5350 -1.4102
  106OSM   H15G10916   3.820   1.673   9.559 -0.0120 -0.6766  0.7361
  106OSM   C16F10917   3.908   1.689   9.741 -0.1744  0.2962 -0.5741
  106OSM   H16F10918   3.842   1.641   9.816  1.1622  2.0437  1.8642
  106OSM   H16G10919   3.864   1.789   9.722  2.7550  1.5995 -1.0949
  106OSM   C17F10920   4.046   1.705   9.811 -0.1792  0.4657  0.1653
  106OSM   H17F10921   4.120   1.742   9.737  0.9548 -0.3430  0.8688
  106OSM   H17G10922   4.067   1.596   9.823 -0.8876  0.1894 -0.9414
  106OSM   C18F10923   4.048   1.783   9.944  0.6219  0.4307  0.5460
  106OSM   H18F10924   4.010   1.886   9.928  0.7550  0.4006  0.0295
  106OSM   H18G10925   4.153   1.790   9.981  1.9002 -1.0054 -2.4812
  106OSM   H18H10926   3.983   1.748  10.027 -0.9519  3.1011  0.5704
  107OSM      N10927   5.908   4.935  10.738  0.4582  0.3077 -0.3136
  107OSM    C1510928   5.868   4.934  10.882 -0.0887  0.1911 -0.0065
  107OSM   H15A10929   5.919   4.857  10.937  0.8631 -1.0915 -2.4973
  107OSM   H15B10930   5.761   4.923  10.892  0.0682  0.3473  2.2490
  107OSM   H15C10931   5.889   5.027  10.933  2.8092 -0.6980  0.5569
  107OSM    C1410932   6.054   4.950  10.721  0.3036 -1.0741  0.8620
  107OSM   H14A10933   6.096   4.900  10.634  1.1532 -0.1939  0.7470
  107OSM   H14B10934   6.106   4.905  10.805 -0.6971 -0.8003  1.6508
  107OSM   H14C10935   6.072   5.056  10.714 -0.7336 -0.9520 -0.2238
  107OSM    C1310936   5.855   4.811  10.678  0.2434 -0.3965 -0.2049
  107OSM   H13A10937   5.880   4.809  10.573  1.3072 -0.2241  0.0317
  107OSM   H13B10938   5.747   4.810  10.679  0.1149  0.5531 -3.0176
  107OSM   H13C10939   5.908   4.725  10.715  0.2794 -0.2112  0.1828
  107OSM    C1210940   5.837   5.052  10.670 -0.0994  0.0101  0.7444
  107OSM   H12A10941   5.855   5.055  10.564  1.6953  0.5756  1.0458
  107OSM   H12B10942   5.875   5.147  10.703 -0.2578  0.2659  0.1933
  107OSM    C1110943   5.684   5.055  10.682 -0.0475  0.2636 -0.6091
  107OSM   H11A10944   5.666   5.040  10.791 -0.7835 -1.2964 -0.9166
  107OSM   H11B10945   5.621   4.974  10.638 -1.9140  1.6487 -0.6090
  107OSM      P10946   5.601   5.176  10.474 -0.2104 -0.1566  0.0382
  107OSM    O1310947   5.477   5.100  10.458  0.4805 -0.0424 -0.1253
  107OSM    O1410948   5.603   5.314  10.421  0.2253  0.6552  0.9223
  107OSM    O1110949   5.720   5.100  10.413 -0.2414  0.2775 -0.1606
  107OSM    O1210950   5.635   5.180  10.632  0.1441  0.1046  0.1270
  107OSM    C1S10951   5.718   5.000  10.316  0.1832  0.5113 -0.2205
  107OSM    H1S10952   5.635   4.930  10.341 -0.8908  1.8086 -0.0686
  107OSM    H1T10953   5.806   4.933  10.326  0.6049  1.3185  2.0004
  107OSM     NF10954   5.678   4.947  10.093  0.4449  0.2931  0.2250
  107OSM    HNF10955   5.759   4.905  10.053  1.2995  0.9061  1.2642
  107OSM    C2S10956   5.705   5.056  10.172  0.0189 -0.2969  0.4955
  107OSM    H2S10957   5.616   5.122  10.163 -0.4202 -0.9212  0.1979
  107OSM    C3S10958   5.825   5.148  10.136  0.3114 -0.1349 -0.1316
  107OSM    H3S10959   5.913   5.081  10.144  0.0821 -0.4245 -0.0140
  107OSM     O310960   5.850   5.259  10.217 -0.1901  0.4858 -0.2626
  107OSM    HO310961   5.778   5.264  10.281 -0.9384  1.3578 -1.1339
  107OSM    C4S10962   5.829   5.191   9.992  0.5265 -0.8381 -0.6103
  107OSM    H4S10963   5.837   5.105   9.924 -0.0833 -1.1120 -0.3478
  107OSM    C5S10964   5.804   5.309   9.932 -0.2291  0.8999  0.2059
  107OSM    H5S10965   5.773   5.400   9.986  1.4065  1.4399  0.2990
  107OSM    C6S10966   5.816   5.338   9.782  0.0332 -0.4241  0.2628
  107OSM    H6S10967   5.895   5.415   9.774  1.3348 -1.7746 -0.2655
  107OSM    H6T10968   5.721   5.381   9.743 -0.9292 -1.9438  0.8235
  107OSM    C7S10969   5.868   5.231   9.684 -0.3077  0.1627  0.4159
  107OSM    H7S10970   5.796   5.147   9.676  1.2945 -1.1796 -0.6753
  107OSM    H7T10971   5.968   5.204   9.724  0.2151  0.9374 -0.3153
  107OSM    C8S10972   5.873   5.291   9.541  0.9843 -1.1730 -0.2421
  107OSM    H8S10973   5.893   5.399   9.553  0.7333 -1.2913  1.5350
  107OSM    H8T10974   5.782   5.258   9.486 -1.2430 -0.4537  2.7213
  107OSM    C9S10975   5.986   5.228   9.468 -0.1858  0.3253  0.3408
  107OSM    H9S10976   5.971   5.118   9.467 -1.2176  0.4288  1.6866
  107OSM    H9T10977   6.081   5.242   9.522 -0.3774  1.2433  0.4508
  107OSM   C10S10978   6.006   5.279   9.314 -0.3641 -0.3044 -0.2531
  107OSM   H10S10979   6.012   5.390   9.314  1.0311 -0.3635  0.2263
  107OSM   H10T10980   5.914   5.244   9.263 -2.8459  2.5013  1.9507
  107OSM   C11S10981   6.134   5.228   9.245 -0.3793 -0.1591 -0.8764
  107OSM   H11S10982   6.124   5.117   9.251 -0.7106 -0.0943 -0.1721
  107OSM   H11T10983   6.224   5.239   9.308 -1.8180 -0.7273  1.4193
  107OSM   C12S10984   6.159   5.268   9.097 -0.9033 -0.2681  0.0278
  107OSM   H12S10985   6.180   5.377   9.096  0.4516 -0.5040  1.1285
  107OSM   H12T10986   6.063   5.264   9.040 -0.9252  1.4443 -0.1136
  107OSM   C13S10987   6.260   5.170   9.023 -0.0248  0.0189  0.1530
  107OSM   H13S10988   6.225   5.066   9.042  1.6094 -0.3508  1.3435
  107OSM   H13T10989   6.360   5.192   9.066  1.1447  1.4136 -2.9837
  107OSM   C14S10990   6.264   5.196   8.873 -0.4663 -0.2357 -0.0892
  107OSM   H14S10991   6.261   5.303   8.843  2.1881 -0.6029 -1.9608
  107OSM   H14T10992   6.165   5.156   8.840 -1.3179  1.1441  0.7134
  107OSM   C15S10993   6.374   5.120   8.794  0.2618 -0.1224  0.3535
  107OSM   H15S10994   6.363   5.014   8.823  0.0644  0.4069  2.3721
  107OSM   H15T10995   6.476   5.152   8.825  0.0560 -0.4959  1.4463
  107OSM   C16S10996   6.352   5.121   8.642  0.3492  0.2890  0.1042
  107OSM   H16S10997   6.396   5.219   8.612  3.0202 -0.3100  1.7029
  107OSM   H16T10998   6.244   5.125   8.615  0.3998  0.9376 -0.0102
  107OSM   C17S10999   6.440   5.016   8.577 -0.9225  0.3599 -0.2336
  107OSM   H17S11000   6.387   4.918   8.579  0.0378 -0.2072 -1.0585
  107OSM   H17T11001   6.534   5.007   8.635 -0.9245 -2.0122 -0.5019
  107OSM   C18S11002   6.474   5.048   8.429 -0.7929  0.7149 -0.8043
  107OSM   H18S11003   6.539   4.965   8.394 -0.5543 -0.3227  1.8947
  107OSM   H18T11004   6.521   5.149   8.421 -0.4308  0.8997  2.5107
  107OSM   H18U11005   6.373   5.048   8.382  0.1207 -2.2544 -3.0361
  107OSM    C1F11006   5.564   4.877  10.091 -0.5460 -0.7113  0.8596
  107OSM     OF11007   5.463   4.922  10.151  0.4233 -0.4246 -0.7467
  107OSM    C2F11008   5.556   4.756  10.003  0.3555  0.0902  0.7172
  107OSM    H2F11009   5.596   4.667  10.056 -0.7664 -0.1970  1.1117
  107OSM    H2G11010   5.628   4.766   9.920 -1.5617 -0.0505 -1.0336
  107OSM    C3F11011   5.420   4.722   9.938  0.3545  0.4994  0.1611
  107OSM    H3F11012   5.388   4.806   9.873 -1.9716  0.1386  0.7322
  107OSM    H3G11013   5.340   4.706  10.013 -0.5086  1.4687 -0.5240
  107OSM    C4F11014   5.443   4.594   9.852  0.2170 -0.7588  0.3209
  107OSM    H4F11015   5.472   4.506   9.913  2.5163 -1.9506 -2.3033
  107OSM    H4G11016   5.528   4.620   9.786  0.3823 -0.4230  0.6630
  107OSM    C5F11017   5.323   4.541   9.773 -0.4808  0.7121 -0.7088
  107OSM    H5F11018   5.226   4.586   9.804 -1.2135 -0.9205 -0.5433
  107OSM    H5G11019   5.319   4.433   9.795  1.9242  0.1952 -2.3449
  107OSM    C6F11020   5.313   4.563   9.620  0.1651 -0.3785  0.5129
  107OSM    H6F11021   5.277   4.666   9.601 -0.3503 -0.4707  0.9762
  107OSM    H6G11022   5.234   4.490   9.591 -0.6717 -0.2869  2.4006
  107OSM    C7F11023   5.443   4.560   9.531  0.0733  0.2476 -0.1436
  107OSM    H7F11024   5.492   4.461   9.528  0.2447  0.3438 -0.5078
  107OSM    H7G11025   5.514   4.633   9.574  1.3088 -1.5157  0.9479
  107OSM    C8F11026   5.427   4.585   9.380 -0.0932  0.0274  0.1086
  107OSM    H8F11027   5.374   4.683   9.370 -1.8472 -0.8590  0.3397
  107OSM    H8G11028   5.373   4.499   9.336 -1.0816  0.3588  0.6425
  107OSM    C9F11029   5.567   4.603   9.324 -0.2872 -0.6746  0.4278
  107OSM    H9F11030   5.663   4.612   9.379  0.7635  1.6336 -1.6185
  107OSM   C10F11031   5.586   4.638   9.198 -0.5676  0.3022 -0.1344
  107OSM   H10F11032   5.690   4.651   9.164 -0.3680  0.8884  0.6814
  107OSM   C11F11033   5.477   4.644   9.089 -0.1718  0.4547 -0.3618
  107OSM   H11F11034   5.453   4.752   9.079 -1.6587  0.2551  0.6344
  107OSM   H11G11035   5.381   4.597   9.122  1.0815 -2.7000 -0.8956
  107OSM   C12F11036   5.523   4.592   8.958  0.0243  0.1553  0.3188
  107OSM   H12F11037   5.614   4.651   8.933  0.1679 -0.4683 -0.6226
  107OSM   H12G11038   5.447   4.620   8.882  0.0682  0.1515  0.2739
  107OSM   C13F11039   5.561   4.443   8.957 -0.2742  0.6169 -0.0224
  107OSM   H13F11040   5.508   4.390   9.039 -0.7085  0.3503 -0.4712
  107OSM   H13G11041   5.665   4.436   8.997 -0.3595 -1.1543 -0.0351
  107OSM   C14F11042   5.541   4.378   8.817  0.9366 -0.5308 -0.7492
  107OSM   H14F11043   5.432   4.361   8.814  0.8548 -1.4499  2.8458
  107OSM   H14G11044   5.599   4.283   8.816  1.3958 -0.2540 -1.0646
  107OSM   C15F11045   5.596   4.464   8.700 -0.0145 -0.7362 -0.8279
  107OSM   H15F11046   5.706   4.470   8.716 -0.1744 -1.1098  0.5940
  107OSM   H15G11047   5.553   4.565   8.715  1.2966 -0.4535  1.5386
  107OSM   C16F11048   5.562   4.400   8.564  0.1848 -0.3846  0.2195
  107OSM   H16F11049   5.453   4.403   8.546  0.2791  0.3272 -0.3005
  107OSM   H16G11050   5.588   4.293   8.548 -0.6450 -1.5400  5.0641
  107OSM   C17F11051   5.619   4.476   8.443  0.0866 -0.5875 -0.3013
  107OSM   H17F11052   5.726   4.495   8.464 -0.2811  0.2155  0.9623
  107OSM   H17G11053   5.571   4.576   8.450  1.5186  0.0972  0.0459
  107OSM   C18F11054   5.607   4.415   8.303 -0.9579  0.4617  0.1493
  107OSM   H18F11055   5.498   4.397   8.291 -0.1929 -5.2285 -0.9931
  107OSM   H18G11056   5.646   4.311   8.302 -1.9821  0.0572 -1.6058
  107OSM   H18H11057   5.648   4.485   8.227 -2.1113  0.0330 -0.8975
  108OSM      N11058   4.616   3.535  10.249 -0.1757 -0.2358  0.0647
  108OSM    C1511059   4.647   3.386  10.263  0.3789 -0.4496 -0.0521
  108OSM   H15A11060   4.558   3.329  10.285  1.3532 -0.8763  3.4161
  108OSM   H15B11061   4.725   3.373  10.337  0.5348 -1.0832 -0.3227
  108OSM   H15C11062   4.686   3.350  10.169  0.6121  1.1132 -0.5780
  108OSM    C1411063   4.564   3.585  10.380  0.4755  0.7336 -0.0146
  108OSM   H14A11064   4.551   3.692  10.373  1.0460  0.7826 -0.3398
  108OSM   H14B11065   4.630   3.558  10.461  0.9713  1.4340 -0.1822
  108OSM   H14C11066   4.469   3.536  10.397  0.2683  1.5114  1.2293
  108OSM    C1311067   4.737   3.606  10.213  0.1031  0.4933  0.1974
  108OSM   H13A11068   4.790   3.567  10.127  3.0082  0.9489  1.6258
  108OSM   H13B11069   4.805   3.621  10.296  0.3867  0.9353 -0.1111
  108OSM   H13C11070   4.708   3.706  10.184 -1.5151  0.1617  0.5634
  108OSM    C1211071   4.516   3.540  10.138 -0.3411  0.1496 -0.2562
  108OSM   H12A11072   4.561   3.512  10.045 -0.2438 -2.6165  0.5346
  108OSM   H12B11073   4.474   3.639  10.131  0.9208  0.5741 -2.7746
  108OSM    C1111074   4.388   3.455  10.161  0.1191  1.2916  0.4894
  108OSM   H11A11075   4.402   3.349  10.191 -0.3029  0.2843 -2.4978
  108OSM   H11B11076   4.336   3.456  10.063  0.9173  1.4472  0.0571
  108OSM      P11077   4.188   3.433  10.320 -0.1120  0.1993  0.5486
  108OSM    O1311078   4.248   3.320  10.403 -0.2582  0.0414  0.6080
  108OSM    O1411079   4.105   3.530  10.395  0.2067 -0.1630  0.1483
  108OSM    O1111080   4.105   3.383  10.195  0.4437 -0.1622 -0.1549
  108OSM    O1211081   4.312   3.524  10.256  0.5086  0.6620  0.0593
  108OSM    C1S11082   4.073   3.482  10.087 -0.2006 -0.0259  0.0576
  108OSM    H1S11083   4.137   3.573  10.078 -0.8603  0.4287 -0.0789
  108OSM    H1T11084   3.977   3.528  10.116  0.3437  1.0398  0.2422
  108OSM     NF11085   3.999   3.513   9.855 -0.0300 -0.2024 -0.2717
  108OSM    HNF11086   3.918   3.483   9.807  0.6433  0.7279 -2.0990
  108OSM    C2S11087   4.053   3.419   9.950 -0.4377  0.1398 -0.2489
  108OSM    H2S11088   4.151   3.399   9.902 -0.1714 -0.9572  0.7198
  108OSM    C3S11089   3.969   3.296   9.955  0.1786  0.4057 -0.3767
  108OSM    H3S11090   3.877   3.332  10.005  0.8019  0.2134  0.9476
  108OSM     O311091   4.032   3.183  10.025  0.3581 -0.4367  0.2904
  108OSM    HO311092   4.086   3.224  10.093 -0.0235 -2.1840  1.7404
  108OSM    C4S11093   3.929   3.241   9.818  0.7864  0.7051  0.3799
  108OSM    H4S11094   4.011   3.225   9.746  0.2872 -0.6733  0.0845
  108OSM    C5S11095   3.800   3.204   9.788  0.3313  0.1083  0.4261
  108OSM    H5S11096   3.726   3.229   9.866 -1.5575  3.3027 -2.1549
  108OSM    C6S11097   3.752   3.138   9.667 -0.2453 -1.3119 -0.1970
  108OSM    H6S11098   3.648   3.102   9.682 -1.6270  1.7070 -1.5367
  108OSM    H6T11099   3.819   3.054   9.640 -0.2196 -1.1077 -0.7815
  108OSM    C7S11100   3.756   3.235   9.548  0.2241  0.2875  0.7821
  108OSM    H7S11101   3.861   3.258   9.519 -0.4076  0.8896 -1.2291
  108OSM    H7T11102   3.702   3.328   9.577  0.7370  0.0545  2.5687
  108OSM    C8S11103   3.687   3.164   9.429  0.2215  0.0355 -0.1668
  108OSM    H8S11104   3.586   3.149   9.471  1.5722 -2.6751  2.5190
  108OSM    H8T11105   3.739   3.067   9.417 -0.2346 -0.2764  0.3585
  108OSM    C9S11106   3.677   3.254   9.302 -0.4531 -0.4971 -0.0745
  108OSM    H9S11107   3.776   3.249   9.251  0.3854 -0.3120  1.4859
  108OSM    H9T11108   3.652   3.362   9.311  0.3816 -0.2452 -0.6718
  108OSM   C10S11109   3.570   3.199   9.206 -0.1689 -0.5920  0.1419
  108OSM   H10S11110   3.471   3.195   9.254 -0.9866  0.0106 -1.4166
  108OSM   H10T11111   3.604   3.095   9.188  1.2176 -0.1401 -0.0029
  108OSM   C11S11112   3.575   3.269   9.070 -0.0990 -0.1579 -0.8130
  108OSM   H11S11113   3.678   3.294   9.035  0.2117  1.0775  0.8629
  108OSM   H11T11114   3.520   3.365   9.075 -1.6133 -1.0652  1.2536
  108OSM   C12S11115   3.513   3.187   8.963 -0.1065 -0.3139 -0.2707
  108OSM   H12S11116   3.412   3.146   8.981  0.1567 -0.3688  1.1738
  108OSM   H12T11117   3.589   3.108   8.940  0.3195 -0.2755  0.9306
  108OSM   C13S11118   3.490   3.277   8.835  0.2087 -0.2783 -0.6265
  108OSM   H13S11119   3.595   3.309   8.816 -0.0380  0.8077 -0.2511
  108OSM   H13T11120   3.429   3.369   8.850 -0.0460 -0.7518  1.6003
  108OSM   C14S11121   3.444   3.201   8.710  1.0608  0.7094  0.0261
  108OSM   H14S11122   3.341   3.165   8.734  1.8903 -1.0598  1.0610
  108OSM   H14T11123   3.498   3.111   8.674  1.0222  1.4176 -1.8788
  108OSM   C15S11124   3.428   3.297   8.594  0.1695 -0.2952  0.4688
  108OSM   H15S11125   3.517   3.356   8.563 -0.9878  0.3631 -1.8359
  108OSM   H15T11126   3.351   3.377   8.602  1.3934  1.3923 -2.5994
  108OSM   C16S11127   3.386   3.207   8.473  0.1416 -0.1649  0.2541
  108OSM   H16S11128   3.302   3.139   8.497 -0.0694  0.6830  2.0544
  108OSM   H16T11129   3.472   3.141   8.447 -0.0247 -0.2348 -0.1253
  108OSM   C17S11130   3.348   3.288   8.344  1.2511 -0.5463 -0.0994
  108OSM   H17S11131   3.428   3.358   8.312  1.4809 -0.5161  0.5338
  108OSM   H17T11132   3.264   3.349   8.383  1.2709 -0.0887 -0.7558
  108OSM   C18S11133   3.314   3.203   8.224  0.7489 -0.0796  0.3062
  108OSM   H18S11134   3.265   3.265   8.146 -0.5181 -2.3135 -0.7998
  108OSM   H18T11135   3.240   3.122   8.244 -3.1706  2.9133 -0.7726
  108OSM   H18U11136   3.416   3.178   8.188  1.2497  0.4127  1.3335
  108OSM    C1F11137   4.063   3.621   9.809  0.1551  0.5605 -0.1397
  108OSM     OF11138   4.176   3.642   9.847 -0.0985  0.8747  0.1630
  108OSM    C2F11139   4.002   3.712   9.704  0.7460 -0.4830  0.5905
  108OSM    H2F11140   3.932   3.780   9.759 -0.4406 -0.5039 -0.8114
  108OSM    H2G11141   3.936   3.653   9.637  0.8761  0.4030 -0.3464
  108OSM    C3F11142   4.109   3.772   9.613 -0.4260  0.2435 -0.5568
  108OSM    H3F11143   4.161   3.691   9.556  0.9935  0.5941  0.1871
  108OSM    H3G11144   4.186   3.833   9.666 -1.5079  2.7658 -1.7205
  108OSM    C4F11145   4.030   3.866   9.522  0.3173  0.1276  0.3661
  108OSM    H4F11146   3.986   3.942   9.589 -1.6789 -0.3863 -0.2885
  108OSM    H4G11147   3.941   3.819   9.474 -0.6796  0.4869  1.8041
  108OSM    C5F11148   4.121   3.934   9.411  0.3948  0.4145  0.0657
  108OSM    H5F11149   4.154   3.848   9.351 -1.9468 -1.3520  1.1256
  108OSM    H5G11150   4.212   3.975   9.460  1.2004 -1.3876  0.1342
  108OSM    C6F11151   4.050   4.038   9.328  0.6771 -0.2300 -0.3563
  108OSM    H6F11152   4.068   4.137   9.375 -0.2071 -1.3827  2.6419
  108OSM    H6G11153   3.941   4.017   9.339  0.6877 -0.1698 -0.1220
  108OSM    C7F11154   4.098   4.037   9.185 -0.5743 -0.1835 -0.1810
  108OSM    H7F11155   4.037   4.112   9.131  1.9557  3.0687  1.1594
  108OSM    H7G11156   4.067   3.940   9.139 -1.5425 -0.0318  0.1138
  108OSM    C8F11157   4.250   4.056   9.172  0.3396 -1.1130  0.5675
  108OSM    H8F11158   4.278   4.006   9.077  1.9236  1.1762 -0.2465
  108OSM    H8G11159   4.315   3.996   9.240 -0.6392 -1.6604  1.0489
  108OSM    C9F11160   4.305   4.199   9.163  0.1541 -0.8758 -0.8009
  108OSM    H9F11161   4.270   4.266   9.242 -1.1834  0.2078 -2.2576
  108OSM   C10F11162   4.375   4.253   9.064  0.3850  0.2871 -0.2156
  108OSM   H10F11163   4.409   4.358   9.070 -1.9841  1.1340 -0.6195
  108OSM   C11F11164   4.427   4.191   8.936  0.5062 -0.7733  0.1066
  108OSM   H11F11165   4.350   4.217   8.860  1.0380 -1.5845 -0.7310
  108OSM   H11G11166   4.413   4.081   8.940 -0.9639 -0.5939  0.4612
  108OSM   C12F11167   4.565   4.208   8.882 -0.1792 -0.2956 -0.5138
  108OSM   H12F11168   4.647   4.191   8.955  0.6139  2.5689 -0.6194
  108OSM   H12G11169   4.580   4.314   8.850 -1.3983  1.4506  3.9358
  108OSM   C13F11170   4.595   4.124   8.757  0.0479 -0.7350 -0.0949
  108OSM   H13F11171   4.518   4.162   8.686  0.7254 -1.5989 -1.3250
  108OSM   H13G11172   4.574   4.016   8.772 -0.9358 -1.0298 -2.9786
  108OSM   C14F11173   4.739   4.137   8.707 -0.5149 -0.7202  0.3667
  108OSM   H14F11174   4.811   4.110   8.787 -0.4800  0.4995  0.7690
  108OSM   H14G11175   4.759   4.245   8.689  0.9928 -1.0436 -0.0062
  108OSM   C15F11176   4.766   4.064   8.568  0.9024 -0.5760 -0.3910
  108OSM   H15F11177   4.690   4.096   8.494 -0.9626  0.2786  1.7889
  108OSM   H15G11178   4.749   3.954   8.573  1.7095 -0.6678  1.4662
  108OSM   C16F11179   4.896   4.100   8.501  0.1907  0.4686 -0.6224
  108OSM   H16F11180   4.884   4.207   8.473 -0.0003  0.9452  1.1514
  108OSM   H16G11181   4.914   4.048   8.404 -1.6014  0.7231 -1.1271
  108OSM   C17F11182   5.029   4.085   8.579 -0.3560 -0.0699  0.3716
  108OSM   H17F11183   5.057   3.989   8.627 -3.7955 -1.4757 -0.1801
  108OSM   H17G11184   5.029   4.158   8.662  1.1653 -1.0596  1.2815
  108OSM   C18F11185   5.153   4.128   8.489  0.8823 -0.0391 -0.1701
  108OSM   H18F11186   5.138   4.221   8.431  0.7417 -0.3167 -0.5817
  108OSM   H18G11187   5.174   4.038   8.427 -2.2114 -1.1431  0.2292
  108OSM   H18H11188   5.235   4.134   8.564  0.8655  0.2621 -0.1748
  109OSM      N11189   3.282   4.779  10.484 -0.5858  0.4587 -0.0254
  109OSM    C1511190   3.155   4.720  10.432  0.5516  0.0325  0.1731
  109OSM   H15A11191   3.069   4.739  10.494 -0.1051 -0.0641 -0.6799
  109OSM   H15B11192   3.176   4.616  10.413  0.2107  0.2674 -1.6645
  109OSM   H15C11193   3.126   4.758  10.335 -2.0333 -3.8812 -0.8144
  109OSM    C1411194   3.251   4.910  10.554  0.0283  0.0130  0.2335
  109OSM   H14A11195   3.189   4.886  10.639 -1.4385 -1.2065 -1.1128
  109OSM   H14B11196   3.198   4.977  10.488  0.9448  0.2065 -0.3175
  109OSM   H14C11197   3.346   4.945  10.592  1.4573 -1.8089 -1.4228
  109OSM    C1311198   3.331   4.669  10.584  0.0109  0.4126 -0.2319
  109OSM   H13A11199   3.355   4.577  10.533  0.4131 -1.0703  2.4089
  109OSM   H13B11200   3.260   4.649  10.663  0.7808  1.7066  0.8298
  109OSM   H13C11201   3.420   4.696  10.639 -1.0670  0.4493  1.5786
  109OSM    C1211202   3.386   4.808  10.371 -0.7534 -0.8386  0.5794
  109OSM   H12A11203   3.468   4.864  10.414 -0.9274 -0.3890  0.3297
  109OSM   H12B11204   3.329   4.876  10.310 -1.6221 -1.0646  1.1190
  109OSM    C1111205   3.437   4.699  10.281 -0.3983  0.0913  0.4206
  109OSM   H11A11206   3.493   4.630  10.348 -0.2324 -1.0869 -0.8637
  109OSM   H11B11207   3.504   4.747  10.206 -2.3447  0.1505 -1.3659
  109OSM      P11208   3.329   4.484  10.190 -0.1725  0.1385  0.1180
  109OSM    O1311209   3.331   4.420  10.324  0.6079 -0.2728 -0.0046
  109OSM    O1411210   3.226   4.435  10.099 -0.3626  0.7197 -0.4655
  109OSM    O1111211   3.473   4.453  10.121 -0.3336  0.4256 -0.0815
  109OSM    O1211212   3.328   4.638  10.210 -0.5091  0.0029  0.2972
  109OSM    C1S11213   3.485   4.435   9.980 -0.5090 -0.4615 -0.0319
  109OSM    H1S11214   3.389   4.395   9.941 -1.3461 -0.3029  1.7457
  109OSM    H1T11215   3.568   4.362   9.969  0.0029  0.0333  0.4345
  109OSM     NF11216   3.479   4.552   9.770 -0.1417  0.5837 -0.0166
  109OSM    HNF11217   3.549   4.523   9.704  0.3522  1.1013  0.2762
  109OSM    C2S11218   3.524   4.570   9.905 -0.2215  1.0835 -0.4264
  109OSM    H2S11219   3.461   4.647   9.954 -0.5486 -0.6010  1.9367
  109OSM    C3S11220   3.673   4.602   9.922 -0.3089 -0.4216  0.3192
  109OSM    H3S11221   3.737   4.516   9.894 -0.9236 -0.4837 -0.9891
  109OSM     O311222   3.705   4.627  10.057 -0.1364  0.7768 -0.2901
  109OSM    HO311223   3.640   4.578  10.107 -0.7460  1.1171 -0.7469
  109OSM    C4S11224   3.706   4.728   9.849  0.0886  0.1822  1.0730
  109OSM    H4S11225   3.683   4.823   9.899  0.3931 -0.4871  2.5422
  109OSM    C5S11226   3.781   4.726   9.735 -0.3650 -0.3524 -0.7212
  109OSM    H5S11227   3.820   4.626   9.709 -0.2811 -1.1856  2.2389
  109OSM    C6S11228   3.841   4.850   9.673 -0.0444 -0.2855 -0.3790
  109OSM    H6S11229   3.784   4.860   9.578 -1.7710  1.4604  0.7670
  109OSM    H6T11230   3.948   4.824   9.655  0.0261  0.8319 -1.8310
  109OSM    C7S11231   3.851   4.986   9.747 -0.6181  0.0451  0.1082
  109OSM    H7S11232   3.907   4.976   9.842  3.6160  0.4606 -2.0793
  109OSM    H7T11233   3.746   5.022   9.754 -0.5402  0.3170 -0.0967
  109OSM    C8S11234   3.931   5.085   9.668  0.4215 -1.3111  0.7308
  109OSM    H8S11235   4.021   5.040   9.621  1.0326 -0.6535  1.2294
  109OSM    H8T11236   3.973   5.162   9.737 -1.5911  4.0524 -3.3161
  109OSM    C9S11237   3.861   5.190   9.586  0.0707 -0.2408  0.2217
  109OSM    H9S11238   3.783   5.239   9.648 -0.7177  4.4351 -3.8336
  109OSM    H9T11239   3.800   5.136   9.511  1.6749 -1.0348 -0.5646
  109OSM   C10S11240   3.957   5.285   9.507  0.0433  0.3900 -0.4331
  109OSM   H10S11241   4.013   5.349   9.579 -1.3008  0.7351  0.3325
  109OSM   H10T11242   3.892   5.349   9.443  0.4364  0.7732 -0.4519
  109OSM   C11S11243   4.069   5.226   9.416  0.6626  0.2884  0.9626
  109OSM   H11S11244   4.022   5.179   9.327 -0.3031  2.0558  0.4818
  109OSM   H11T11245   4.124   5.143   9.466 -1.9529 -1.0175  1.8581
  109OSM   C12S11246   4.166   5.334   9.373 -0.1042 -0.0205  0.4192
  109OSM   H12S11247   4.262   5.302   9.328  0.0832 -0.9278  1.4327
  109OSM   H12T11248   4.186   5.393   9.465  0.3393  1.0225 -0.3199
  109OSM   C13S11249   4.115   5.435   9.275  0.1733  0.1537  0.3364
  109OSM   H13S11250   4.171   5.530   9.286 -1.2454  1.1088 -0.3544
  109OSM   H13T11251   4.018   5.482   9.301  0.4084  1.0145 -0.2963
  109OSM   C14S11252   4.126   5.398   9.126 -0.5994  0.1053  0.4150
  109OSM   H14S11253   4.073   5.304   9.100  1.5196 -0.9946 -0.1280
  109OSM   H14T11254   4.234   5.394   9.101 -0.7428 -2.3536 -0.0278
  109OSM   C15S11255   4.068   5.503   9.028  0.5903 -0.1325 -0.1678
  109OSM   H15S11256   4.123   5.599   9.023 -1.6169  1.2046 -0.2651
  109OSM   H15T11257   3.962   5.518   9.060 -0.3735 -0.7715 -2.8488
  109OSM   C16S11258   4.074   5.463   8.882  0.1611  1.1395 -0.6297
  109OSM   H16S11259   4.013   5.373   8.862  0.5802 -0.0480  2.7012
  109OSM   H16T11260   4.178   5.426   8.872 -0.0593 -0.0992  1.1211
  109OSM   C17S11261   4.038   5.569   8.794 -0.4135  0.0013 -0.1249
  109OSM   H17S11262   4.105   5.656   8.813  1.0165 -1.0489 -0.2014
  109OSM   H17T11263   3.930   5.598   8.793 -0.7205 -1.1082 -0.6372
  109OSM   C18S11264   4.058   5.524   8.643  0.6279 -0.6284 -0.2612
  109OSM   H18S11265   4.153   5.466   8.642  0.1055 -1.5153 -1.9661
  109OSM   H18T11266   4.082   5.617   8.587 -0.5570 -0.6982 -0.9193
  109OSM   H18U11267   3.970   5.469   8.603  0.2976  0.1567 -0.6318
  109OSM    C1F11268   3.356   4.572   9.724 -0.0128 -0.1031 -0.5819
  109OSM     OF11269   3.273   4.637   9.786 -0.1822  0.6620 -0.5430
  109OSM    C2F11270   3.318   4.501   9.601 -0.2164  0.4448 -0.5207
  109OSM    H2F11271   3.310   4.393   9.624  1.4728  0.6455  1.2804
  109OSM    H2G11272   3.409   4.507   9.536 -0.4968  0.9540 -0.8822
  109OSM    C3F11273   3.189   4.541   9.532  0.4925  0.3134 -0.0218
  109OSM    H3F11274   3.108   4.534   9.608  2.4596 -1.3915  2.0393
  109OSM    H3G11275   3.169   4.453   9.467 -0.9089  0.7184 -0.1740
  109OSM    C4F11276   3.177   4.676   9.471  0.6856  0.2578  0.0241
  109OSM    H4F11277   3.195   4.754   9.548  3.3975  0.2663 -0.5009
  109OSM    H4G11278   3.076   4.688   9.428  0.1200 -0.8473  1.0021
  109OSM    C5F11279   3.278   4.704   9.364  0.0636 -0.0281 -0.2503
  109OSM    H5F11280   3.384   4.713   9.397 -0.9883 -0.0358  3.6815
  109OSM    H5G11281   3.251   4.805   9.327 -0.2422 -1.1655 -3.3428
  109OSM    C6F11282   3.262   4.596   9.258  0.6435 -0.6805 -0.1353
  109OSM    H6F11283   3.153   4.592   9.238  0.3319  1.7670  0.6335
  109OSM    H6G11284   3.297   4.496   9.290  1.6063 -0.0086  1.0265
  109OSM    C7F11285   3.336   4.613   9.119 -0.4960 -1.1275 -0.0891
  109OSM    H7F11286   3.446   4.610   9.135 -0.5378 -1.5447  0.1416
  109OSM    H7G11287   3.304   4.707   9.069  0.6988 -1.2663 -1.1684
  109OSM    C8F11288   3.311   4.507   9.014  0.7193 -0.0713 -0.1533
  109OSM    H8F11289   3.201   4.503   9.003  0.5946 -1.9957  1.2779
  109OSM    H8G11290   3.339   4.407   9.053 -0.8933 -1.1768 -1.6521
  109OSM    C9F11291   3.375   4.526   8.880  0.6977 -0.4299 -0.0130
  109OSM    H9F11292   3.479   4.561   8.888  1.4278 -2.5342  0.6009
  109OSM   C10F11293   3.312   4.503   8.765 -0.4142  0.3876 -0.3920
  109OSM   H10F11294   3.374   4.518   8.675 -0.9567  0.0536 -0.8265
  109OSM   C11F11295   3.176   4.458   8.741 -0.2037 -0.0022  0.0901
  109OSM   H11F11296   3.101   4.481   8.820  3.3912  5.1171  2.5380
  109OSM   H11G11297   3.183   4.349   8.721 -1.9651  0.1833 -1.9040
  109OSM   C12F11298   3.119   4.523   8.615  0.7870  0.2471 -0.7104
  109OSM   H12F11299   3.129   4.633   8.627  0.5085  0.2599 -0.5941
  109OSM   H12G11300   3.012   4.496   8.607  0.6207  0.9246 -0.7589
  109OSM   C13F11301   3.188   4.491   8.485  0.1698 -0.1017  0.6585
  109OSM   H13F11302   3.159   4.388   8.454 -1.1463  0.3838  0.1853
  109OSM   H13G11303   3.297   4.497   8.501  0.4313 -0.9992 -0.6226
  109OSM   C14F11304   3.154   4.599   8.382  0.8136  0.3284 -0.1367
  109OSM   H14F11305   3.043   4.603   8.378  0.8666  2.0039 -2.6928
  109OSM   H14G11306   3.166   4.551   8.282 -0.1286 -3.0195  1.2135
  109OSM   C15F11307   3.225   4.734   8.395 -0.3032 -0.2919  0.2648
  109OSM   H15F11308   3.334   4.724   8.373 -0.6576  0.5514 -2.2542
  109OSM   H15G11309   3.212   4.770   8.499  0.0902 -3.5820  1.5855
  109OSM   C16F11310   3.173   4.840   8.294 -0.0220  0.4139 -0.4892
  109OSM   H16F11311   3.207   4.809   8.193  0.0507 -2.0477  0.2325
  109OSM   H16G11312   3.224   4.938   8.306 -0.1273  0.4169 -0.0622
  109OSM   C17F11313   3.025   4.849   8.296  0.2907  0.3149  0.7412
  109OSM   H17F11314   2.994   4.863   8.402  1.3072 -0.0844  1.1020
  109OSM   H17G11315   2.986   4.755   8.250 -1.3125  1.8730 -1.3056
  109OSM   C18F11316   2.968   4.970   8.220 -0.2672 -0.1579 -0.2221
  109OSM   H18F11317   2.970   4.959   8.110  2.7731 -0.3064 -0.2163
  109OSM   H18G11318   3.025   5.060   8.253 -1.4931  0.6846 -0.3258
  109OSM   H18H11319   2.865   4.979   8.263  0.3467 -1.9402  1.8123
  110OSM      N11320   6.793   4.290  10.718  0.9235 -0.0120 -0.0172
  110OSM    C1511321   6.695   4.326  10.832  0.1857 -1.0118 -0.6617
  110OSM   H15A11322   6.633   4.238  10.847  0.6442 -1.1118  0.7727
  110OSM   H15B11323   6.637   4.414  10.811 -1.9917 -1.1698  3.5274
  110OSM   H15C11324   6.752   4.353  10.919 -0.6391 -1.2711 -0.0222
  110OSM    C1411325   6.864   4.420  10.687 -0.5756  0.2852  0.8882
  110OSM   H14A11326   6.896   4.469  10.778 -1.5722  1.3771  0.6637
  110OSM   H14B11327   6.794   4.474  10.625 -0.3149 -1.5098 -1.0911
  110OSM   H14C11328   6.947   4.408  10.619 -2.1232  0.3976 -1.1393
  110OSM    C1311329   6.898   4.199  10.777  0.2057  0.5524  0.5729
  110OSM   H13A11330   6.860   4.109  10.822 -1.5047  0.7776 -0.3363
  110OSM   H13B11331   6.960   4.253  10.848  2.0993 -0.3066 -0.3478
  110OSM   H13C11332   6.968   4.160  10.705  0.4203 -1.1893  1.6624
  110OSM    C1211333   6.717   4.232  10.604 -1.0564  0.1707 -0.0037
  110OSM   H12A11334   6.656   4.312  10.563 -1.4736 -0.0601  0.1561
  110OSM   H12B11335   6.649   4.154  10.635  0.5904 -1.2955  0.0430
  110OSM    C1111336   6.801   4.181  10.484  0.1173 -0.6715 -0.4817
  110OSM   H11A11337   6.864   4.263  10.443 -0.7695 -0.2557 -1.0248
  110OSM   H11B11338   6.734   4.163  10.397  0.2350 -0.8720 -0.5301
  110OSM      P11339   6.822   3.926  10.514  0.1801 -0.3113  0.2139
  110OSM    O1311340   6.903   3.825  10.578 -0.0394 -0.0419 -0.0789
  110OSM    O1411341   6.683   3.937  10.563 -0.1889  0.0379 -0.6450
  110OSM    O1111342   6.802   3.881  10.357  0.3554  0.5783  0.3926
  110OSM    O1211343   6.894   4.075  10.518 -0.7672 -0.3350  0.3672
  110OSM    C1S11344   6.893   3.935  10.256  0.1584  0.7460  0.1001
  110OSM    H1S11345   6.986   3.875  10.264  0.3194  0.9592 -0.1667
  110OSM    H1T11346   6.919   4.042  10.272  3.1272  0.3478 -1.4459
  110OSM     NF11347   6.940   3.946  10.006 -0.1592 -0.6602  0.2243
  110OSM    HNF11348   6.957   4.042   9.988 -1.0535 -0.2493  1.4248
  110OSM    C2S11349   6.835   3.930  10.110 -0.3889  0.5545  0.2426
  110OSM    H2S11350   6.793   3.828  10.092  0.8513  0.2429 -1.0623
  110OSM    C3S11351   6.729   4.039  10.109  0.3817 -0.3447  0.7116
  110OSM    H3S11352   6.783   4.134  10.128 -0.0892 -0.1601  1.1260
  110OSM     O311353   6.625   4.029  10.208 -0.3550 -0.0935 -0.1150
  110OSM    HO311354   6.656   3.953  10.259  0.1602 -0.7153 -1.3256
  110OSM    C4S11355   6.661   4.041   9.973  0.9775 -0.2337 -0.1956
  110OSM    H4S11356   6.628   3.938   9.953  0.1926 -0.0478  0.1269
  110OSM    C5S11357   6.657   4.134   9.878 -0.0848  0.7070  1.1091
  110OSM    H5S11358   6.717   4.226   9.890 -2.6569  2.7072 -0.2818
  110OSM    C6S11359   6.607   4.098   9.738 -0.2706 -0.5103  0.2254
  110OSM    H6S11360   6.555   4.188   9.700 -0.4083  0.1051  1.8272
  110OSM    H6T11361   6.544   4.006   9.742  0.1439 -0.9602 -2.1134
  110OSM    C7S11362   6.726   4.060   9.651 -0.6549 -0.9082 -0.1112
  110OSM    H7S11363   6.793   3.985   9.699  2.7376  1.4431 -0.7705
  110OSM    H7T11364   6.791   4.150   9.640 -0.0903 -1.5014 -2.0594
  110OSM    C8S11365   6.678   4.013   9.512  0.4105 -0.0368 -0.0656
  110OSM    H8S11366   6.666   4.101   9.445  0.3032  0.3126  0.4093
  110OSM    H8T11367   6.577   3.968   9.517 -0.0341  0.8953 -0.5945
  110OSM    C9S11368   6.775   3.911   9.450  0.0740 -0.3430 -0.4754
  110OSM    H9S11369   6.809   3.837   9.526 -0.7545 -0.7554 -0.4998
  110OSM    H9T11370   6.870   3.962   9.421  0.5298 -0.5746  0.5628
  110OSM   C10S11371   6.703   3.837   9.340  0.1794  0.4609 -0.6302
  110OSM   H10S11372   6.687   3.906   9.255 -0.4405 -0.1935 -1.0572
  110OSM   H10T11373   6.601   3.808   9.375  0.4586 -0.9471 -0.8943
  110OSM   C11S11374   6.775   3.714   9.301  0.3166  0.5995  0.2341
  110OSM   H11S11375   6.777   3.641   9.385 -1.9529  2.0419  1.6289
  110OSM   H11T11376   6.880   3.747   9.284 -0.5098  3.2242 -0.1582
  110OSM   C12S11377   6.703   3.659   9.186  0.1691 -0.6171 -0.5845
  110OSM   H12S11378   6.593   3.670   9.198  0.4136 -0.2089  1.8215
  110OSM   H12T11379   6.720   3.549   9.182  2.3568 -0.3172 -0.4127
  110OSM   C13S11380   6.749   3.723   9.058 -0.0008  0.0724  0.5878
  110OSM   H13S11381   6.858   3.703   9.051 -0.0190  0.1593  0.0250
  110OSM   H13T11382   6.732   3.832   9.048 -0.5799 -0.1360 -1.1331
  110OSM   C14S11383   6.689   3.639   8.950 -0.3694 -0.1392 -1.0533
  110OSM   H14S11384   6.579   3.639   8.965 -0.5638 -0.5892 -2.3040
  110OSM   H14T11385   6.720   3.533   8.947 -1.6746 -0.5890  0.4283
  110OSM   C15S11386   6.728   3.679   8.810  0.6255  0.0663  0.6537
  110OSM   H15S11387   6.839   3.694   8.809  0.7157 -0.6198 -0.1043
  110OSM   H15T11388   6.674   3.771   8.779  0.2471 -0.0319  1.0170
  110OSM   C16S11389   6.703   3.566   8.708 -0.6143  0.0776 -0.8492
  110OSM   H16S11390   6.594   3.548   8.700 -0.6167 -1.4899  1.7057
  110OSM   H16T11391   6.746   3.469   8.740  1.2289  0.9001 -0.6932
  110OSM   C17S11392   6.771   3.598   8.579  0.2580 -0.4276 -0.3780
  110OSM   H17S11393   6.776   3.708   8.566  2.3249 -0.1936  1.7302
  110OSM   H17T11394   6.720   3.551   8.492  1.4495 -0.0643 -1.3025
  110OSM   C18S11395   6.916   3.542   8.571 -0.4727 -0.2147  0.0705
  110OSM   H18S11396   6.984   3.591   8.643 -1.2684 -0.4432  0.9952
  110OSM   H18T11397   6.953   3.562   8.468  1.6215  0.7083  0.9606
  110OSM   H18U11398   6.923   3.433   8.592 -2.2494 -0.7098 -1.5505
  110OSM    C1F11399   7.025   3.853   9.970  0.1787  0.9663  0.1788
  110OSM     OF11400   7.012   3.738  10.010 -0.2368 -0.2690 -0.5293
  110OSM    C2F11401   7.131   3.885   9.874 -0.1922  0.4118 -0.3279
  110OSM    H2F11402   7.232   3.868   9.918 -0.2577 -3.5316 -1.2827
  110OSM    H2G11403   7.119   3.992   9.847 -0.0635  0.4511 -0.2339
  110OSM    C3F11404   7.127   3.795   9.748  0.1258  0.1190 -0.2391
  110OSM    H3F11405   7.026   3.792   9.701  1.0461  1.6444 -2.5121
  110OSM    H3G11406   7.161   3.694   9.777 -0.4536 -0.6298 -2.0001
  110OSM    C4F11407   7.221   3.837   9.639 -0.7991 -0.1650 -0.6667
  110OSM    H4F11408   7.328   3.844   9.667 -0.1088 -1.3109 -2.8188
  110OSM    H4G11409   7.183   3.934   9.598 -2.1905  0.8426  2.6747
  110OSM    C5F11410   7.231   3.737   9.522 -0.3528  0.2795  0.3264
  110OSM    H5F11411   7.128   3.728   9.482 -0.5867 -3.9106  1.3537
  110OSM    H5G11412   7.266   3.634   9.547  0.6982  0.9507  1.7159
  110OSM    C6F11413   7.329   3.770   9.405 -0.3388  0.4523 -0.0337
  110OSM    H6F11414   7.321   3.690   9.329  0.2411  1.8757 -1.6818
  110OSM    H6G11415   7.432   3.768   9.447  0.2254  2.4838 -1.1750
  110OSM    C7F11416   7.308   3.904   9.329  0.1783  0.5623  0.4509
  110OSM    H7F11417   7.386   3.908   9.250 -0.7043  1.9354 -0.3771
  110OSM    H7G11418   7.345   3.982   9.398  1.7820  0.2334  0.0019
  110OSM    C8F11419   7.164   3.928   9.280 -0.6468  0.1060 -0.1483
  110OSM    H8F11420   7.088   3.932   9.360  0.4716  1.9400  0.8869
  110OSM    H8G11421   7.142   3.845   9.210 -0.6569  0.0884 -0.1242
  110OSM    C9F11422   7.159   4.055   9.211 -0.4243  0.0414 -0.2338
  110OSM    H9F11423   7.197   4.143   9.266  1.6037 -0.2330 -1.1009
  110OSM   C10F11424   7.109   4.085   9.087  0.2140  0.0643 -0.2799
  110OSM   H10F11425   7.120   4.190   9.059 -0.2550  0.0844 -0.3991
  110OSM   C11F11426   7.055   3.989   8.987 -0.0432  0.3208 -0.4354
  110OSM   H11F11427   6.945   4.007   8.977 -0.1125  1.1973  1.4950
  110OSM   H11G11428   7.058   3.882   9.017  0.5601  0.6943  0.9086
  110OSM   C12F11429   7.120   4.005   8.851  0.2453  0.1053  0.5179
  110OSM   H12F11430   7.217   3.950   8.855 -0.7908 -1.7536  3.3769
  110OSM   H12G11431   7.134   4.113   8.828 -1.2097  0.0110 -0.9437
  110OSM   C13F11432   7.032   3.959   8.732 -0.4683 -0.5991  0.3617
  110OSM   H13F11433   6.933   4.005   8.749 -0.2549 -0.5811  1.6098
  110OSM   H13G11434   7.026   3.849   8.730  0.0111 -0.6241 -1.2138
  110OSM   C14F11435   7.078   4.013   8.595 -0.5508 -0.4542 -0.3483
  110OSM   H14F11436   7.187   3.994   8.581 -0.2783  0.2327  0.7362
  110OSM   H14G11437   7.048   4.120   8.585 -1.0732 -0.5664 -0.0272
  110OSM   C15F11438   7.004   3.937   8.492 -0.0243  0.2690  0.6433
  110OSM   H15F11439   6.899   3.974   8.481  0.6495  1.5760 -2.4346
  110OSM   H15G11440   7.008   3.834   8.533  0.6296  0.8487  2.1390
  110OSM   C16F11441   7.061   3.947   8.347  0.0883  0.2244 -0.1734
  110OSM   H16F11442   7.062   4.046   8.298  0.7530 -0.6092 -1.9363
  110OSM   H16G11443   6.997   3.875   8.292 -2.6575  1.2056  1.5262
  110OSM   C17F11444   7.208   3.891   8.331 -0.4467  0.4095  0.0873
  110OSM   H17F11445   7.266   3.980   8.363 -0.9705  0.2229  1.6506
  110OSM   H17G11446   7.225   3.876   8.223 -0.2579 -0.7692  0.2624
  110OSM   C18F11447   7.253   3.774   8.412  0.0004  0.0140 -0.6040
  110OSM   H18F11448   7.170   3.702   8.426 -0.5143  1.0817  2.8842
  110OSM   H18G11449   7.281   3.812   8.512  1.2493  3.3651 -2.0874
  110OSM   H18H11450   7.339   3.715   8.372  1.2245  2.2824 -1.5046
  111OSM      N11451   3.365   0.800  10.684 -0.4914  0.2680  0.4358
  111OSM    C1511452   3.288   0.737  10.797  0.0665  0.4996  0.3757
  111OSM   H15A11453   3.183   0.721  10.777  0.1291  0.0785  0.3777
  111OSM   H15B11454   3.300   0.801  10.883  1.1498 -1.5260  1.8245
  111OSM   H15C11455   3.330   0.643  10.830 -0.7007 -0.5301 -1.4229
  111OSM    C1411456   3.314   0.939  10.668 -0.2629  0.6202 -0.3634
  111OSM   H14A11457   3.339   0.992  10.759 -3.5698  0.4554  0.7423
  111OSM   H14B11458   3.208   0.932  10.653 -0.0779 -0.9984 -1.1879
  111OSM   H14C11459   3.348   0.995  10.582 -0.1821 -0.1656 -0.8512
  111OSM    C1311460   3.515   0.802  10.707  0.1837  0.8517  0.2098
  111OSM   H13A11461   3.553   0.704  10.734 -1.3573  0.0702 -0.3716
  111OSM   H13B11462   3.551   0.865  10.787  2.1098  0.9318 -0.6611
  111OSM   H13C11463   3.549   0.827  10.607  0.3795 -1.2479 -0.3119
  111OSM    C1211464   3.344   0.719  10.557 -0.0898  0.5870 -0.5283
  111OSM   H12A11465   3.238   0.713  10.541 -0.4495 -0.0706  1.7421
  111OSM   H12B11466   3.386   0.621  10.576  3.0162  1.0615 -3.8321
  111OSM    C1111467   3.417   0.778  10.425 -0.9100 -0.1286 -0.0989
  111OSM   H11A11468   3.370   0.877  10.405 -0.5335  0.0244 -0.2348
  111OSM   H11B11469   3.372   0.726  10.338  0.1835 -1.0488 -0.1356
  111OSM      P11470   3.621   0.626  10.418 -0.5461  0.2037  0.1898
  111OSM    O1311471   3.757   0.620  10.471 -0.2691  0.4308 -0.8032
  111OSM    O1411472   3.528   0.523  10.466 -0.0567 -0.3020 -0.5100
  111OSM    O1111473   3.631   0.604  10.263  0.1523 -0.0885  0.0503
  111OSM    O1211474   3.559   0.765  10.433  0.2924 -0.6596  0.3253
  111OSM    C1S11475   3.624   0.723  10.182  0.7867 -0.5991  0.7152
  111OSM    H1S11476   3.721   0.778  10.191  0.9512 -0.0474 -2.9001
  111OSM    H1T11477   3.534   0.783  10.203  0.9266 -0.8748  2.1539
  111OSM     NF11478   3.644   0.797   9.940 -0.7553 -0.3357  0.7665
  111OSM    HNF11479   3.567   0.844   9.898  0.9076  1.5473 -0.3562
  111OSM    C2S11480   3.606   0.685  10.028  0.4028 -0.6446 -0.4186
  111OSM    H2S11481   3.682   0.605  10.013 -0.3146 -1.2516 -0.8978
  111OSM    C3S11482   3.473   0.623   9.995 -0.1323 -0.3856  0.3405
  111OSM    H3S11483   3.392   0.695  10.021 -0.8664 -0.6996 -0.9930
  111OSM     O311484   3.443   0.508  10.073  0.4044  0.7273  0.0504
  111OSM    HO311485   3.525   0.509  10.124  0.4317 -1.2320  0.1178
  111OSM    C4S11486   3.460   0.569   9.856 -0.6715  0.0453  0.1078
  111OSM    H4S11487   3.547   0.511   9.821 -2.3411 -1.0202 -2.5735
  111OSM    C5S11488   3.361   0.584   9.769  0.4853  0.2520 -0.2670
  111OSM    H5S11489   3.276   0.651   9.792  0.5186  0.4042 -0.5752
  111OSM    C6S11490   3.361   0.522   9.633  0.5241 -0.0702  0.6950
  111OSM    H6S11491   3.264   0.468   9.633  0.9749 -0.8987  1.6796
  111OSM    H6T11492   3.453   0.461   9.622 -0.1603 -1.8185  3.6623
  111OSM    C7S11493   3.340   0.634   9.524  0.3434  0.2504 -0.1487
  111OSM    H7S11494   3.252   0.698   9.548 -0.2117  0.2647 -2.0393
  111OSM    H7T11495   3.307   0.581   9.433 -2.9941 -2.0010  2.1403
  111OSM    C8S11496   3.468   0.723   9.506 -0.2882  0.3745 -0.4027
  111OSM    H8S11497   3.548   0.653   9.474 -1.6642 -0.6601 -1.7239
  111OSM    H8T11498   3.489   0.770   9.604  1.8341 -0.6029 -0.3466
  111OSM    C9S11499   3.452   0.834   9.406 -0.4111  1.0421  0.0501
  111OSM    H9S11500   3.369   0.902   9.435  1.4706  3.6911 -0.4697
  111OSM    H9T11501   3.430   0.789   9.306 -2.2893  3.2902 -0.6588
  111OSM   C10S11502   3.588   0.915   9.396 -0.2815  0.0705  0.1290
  111OSM   H10S11503   3.669   0.848   9.359 -0.0250  0.0787  0.6660
  111OSM   H10T11504   3.620   0.963   9.491  2.2196 -1.8747  0.3834
  111OSM   C11S11505   3.573   1.028   9.290 -0.1098 -0.3613 -0.4060
  111OSM   H11S11506   3.662   1.094   9.290 -0.9011  0.7677  0.9791
  111OSM   H11T11507   3.491   1.100   9.310 -0.3963 -0.3791 -1.4178
  111OSM   C12S11508   3.563   0.974   9.143 -0.0330 -0.7091  0.2258
  111OSM   H12S11509   3.459   0.938   9.124  0.0719 -0.2287 -1.4174
  111OSM   H12T11510   3.633   0.888   9.131  2.1824  1.0502 -0.0459
  111OSM   C13S11511   3.598   1.082   9.032 -0.7522 -0.4741  0.4425
  111OSM   H13S11512   3.704   1.108   9.052 -0.5999  0.9611 -1.7939
  111OSM   H13T11513   3.534   1.169   9.057 -1.1720 -0.2106 -1.3670
  111OSM   C14S11514   3.574   1.032   8.886 -0.7977 -0.4088 -0.1085
  111OSM   H14S11515   3.600   1.108   8.809  3.0903  0.1725  1.5079
  111OSM   H14T11516   3.464   1.015   8.886 -0.9692  0.5723  0.3670
  111OSM   C15S11517   3.661   0.914   8.851 -0.2899  0.3880  0.4161
  111OSM   H15S11518   3.631   0.832   8.919 -3.8424  0.6571 -0.6438
  111OSM   H15T11519   3.767   0.939   8.874  0.4561 -1.7283 -0.5194
  111OSM   C16S11520   3.661   0.880   8.702 -0.1990  0.2902 -0.3413
  111OSM   H16S11521   3.696   0.971   8.649  1.5006 -1.1997 -1.9278
  111OSM   H16T11522   3.561   0.863   8.658  0.0652 -0.7725 -0.5632
  111OSM   C17S11523   3.740   0.760   8.660 -0.1156  0.8434  0.1401
  111OSM   H17S11524   3.679   0.669   8.679  1.2494 -0.0745  0.2867
  111OSM   H17T11525   3.834   0.744   8.717 -1.3105 -1.4444  1.6383
  111OSM   C18S11526   3.772   0.758   8.509 -0.2901  0.0856  0.0960
  111OSM   H18S11527   3.812   0.858   8.483  0.7850 -0.1565  0.7460
  111OSM   H18T11528   3.673   0.752   8.459 -0.3179 -0.7392  0.2361
  111OSM   H18U11529   3.838   0.673   8.481  0.0467 -0.1358  1.4810
  111OSM    C1F11530   3.767   0.834   9.906  0.2798 -0.3626 -0.1740
  111OSM     OF11531   3.857   0.760   9.932  0.0942 -0.6011  0.0483
  111OSM    C2F11532   3.783   0.967   9.847 -0.2339 -0.4685 -0.2470
  111OSM    H2F11533   3.802   1.038   9.930  0.2471 -0.0121 -0.7408
  111OSM    H2G11534   3.688   1.007   9.805 -0.3305 -0.3758  0.0622
  111OSM    C3F11535   3.897   0.969   9.746  0.4445 -0.0132  0.2429
  111OSM    H3F11536   3.883   0.887   9.672 -0.4585 -0.2388  0.6489
  111OSM    H3G11537   3.994   0.966   9.801 -0.0417  1.1170  1.2013
  111OSM    C4F11538   3.900   1.104   9.675  0.1113 -0.5376 -0.6826
  111OSM    H4F11539   3.922   1.185   9.748  1.1302 -1.4910  0.0936
  111OSM    H4G11540   3.798   1.132   9.641  1.2720  2.4917 -2.0782
  111OSM    C5F11541   4.005   1.126   9.564  0.0917  0.0806  0.0235
  111OSM    H5F11542   4.096   1.095   9.619  0.9774  1.2126 -0.7642
  111OSM    H5G11543   4.008   1.232   9.531 -3.4157  0.1631 -0.4566
  111OSM    C6F11544   3.985   1.035   9.442  0.7409  0.7359 -0.1564
  111OSM    H6F11545   3.883   1.051   9.400  0.1340  0.5326  1.1979
  111OSM    H6G11546   3.983   0.930   9.478 -2.4626 -0.3805 -3.0049
  111OSM    C7F11547   4.092   1.045   9.339 -0.6152  0.0899  0.7380
  111OSM    H7F11548   4.097   0.957   9.273 -3.2168 -0.1047  0.6946
  111OSM    H7G11549   4.188   1.053   9.394  0.6128 -0.5016 -1.2358
  111OSM    C8F11550   4.089   1.168   9.246  0.2253  0.1777 -0.0838
  111OSM    H8F11551   4.191   1.178   9.203 -0.0570  0.8412 -0.6188
  111OSM    H8G11552   4.068   1.256   9.310  0.6294 -1.3086  2.2230
  111OSM    C9F11553   3.982   1.166   9.139  0.1575  0.3466  0.2952
  111OSM    H9F11554   3.877   1.192   9.158 -0.1433  0.1551 -1.0012
  111OSM   C10F11555   4.013   1.143   9.007  0.0499 -0.5662 -0.8944
  111OSM   H10F11556   3.934   1.141   8.930 -0.9218  0.6267  0.0331
  111OSM   C11F11557   4.150   1.113   8.953 -0.0598  0.0464 -0.0910
  111OSM   H11F11558   4.174   1.009   8.984  1.8980  0.1892 -0.9703
  111OSM   H11G11559   4.227   1.188   8.982 -0.0677 -0.1008  0.3238
  111OSM   C12F11560   4.156   1.120   8.796  0.9781 -0.4358 -0.3122
  111OSM   H12F11561   4.261   1.098   8.767  0.7666 -1.4023 -0.4136
  111OSM   H12G11562   4.117   1.218   8.762 -0.6347 -0.5665  1.0443
  111OSM   C13F11563   4.090   1.005   8.714 -0.4784  0.4232 -0.0530
  111OSM   H13F11564   3.981   1.022   8.696 -0.6761  1.0193  1.5515
  111OSM   H13G11565   4.113   0.912   8.770  2.1344 -0.1381 -1.9168
  111OSM   C14F11566   4.149   0.991   8.568  0.3697 -0.6135  0.1644
  111OSM   H14F11567   4.258   1.012   8.565  0.5568 -1.5906 -2.4290
  111OSM   H14G11568   4.090   1.065   8.509 -0.3211 -1.2795 -0.0018
  111OSM   C15F11569   4.133   0.849   8.507  0.5770 -0.4490 -0.4286
  111OSM   H15F11570   4.026   0.823   8.497  0.0804  1.7625 -1.7926
  111OSM   H15G11571   4.181   0.780   8.579  0.5564  1.6862  1.7681
  111OSM   C16F11572   4.193   0.832   8.363  0.7706 -0.2000  0.0763
  111OSM   H16F11573   4.271   0.908   8.338  0.3038  1.5889  3.5134
  111OSM   H16G11574   4.114   0.874   8.297  0.6017 -1.6356 -0.6666
  111OSM   C17F11575   4.238   0.689   8.316 -0.2739  0.4657  0.1551
  111OSM   H17F11576   4.229   0.684   8.205 -1.0122  0.0597  0.2226
  111OSM   H17G11577   4.156   0.622   8.350  1.8026 -2.1734  0.3782
  111OSM   C18F11578   4.372   0.641   8.371 -0.0211  0.5062 -0.2841
  111OSM   H18F11579   4.369   0.601   8.474  0.2452  0.7981 -0.1619
  111OSM   H18G11580   4.453   0.717   8.363  1.5500 -1.1380 -0.5680
  111OSM   H18H11581   4.410   0.562   8.303 -1.7171  1.2128 -2.1615
  112OSM      N11582   4.203   6.231  10.549  0.1764 -0.4154 -0.5028
  112OSM    C1511583   4.090   6.306  10.618  0.3425 -1.0527 -0.6800
  112OSM   H15A11584   4.000   6.246  10.622  0.1934 -0.7698  1.1631
  112OSM   H15B11585   4.051   6.392  10.564 -1.2254 -1.3876 -0.1468
  112OSM   H15C11586   4.113   6.348  10.715  0.9717 -3.0379  0.0670
  112OSM    C1411587   4.316   6.323  10.523 -0.6930 -0.4727  0.0288
  112OSM   H14A11588   4.398   6.268  10.478  1.1281  3.0000 -1.2384
  112OSM   H14B11589   4.360   6.368  10.611  1.4733 -0.6804 -0.8832
  112OSM   H14C11590   4.296   6.415  10.472  1.0289  0.4675  0.9536
  112OSM    C1311591   4.250   6.124  10.644  0.5087  0.1311 -0.3208
  112OSM   H13A11592   4.311   6.161  10.726  1.4000  0.5863 -1.1645
  112OSM   H13B11593   4.318   6.064  10.586 -0.6570 -0.2379 -1.3410
  112OSM   H13C11594   4.173   6.057  10.680 -0.1356  0.4665 -1.0510
  112OSM    C1211595   4.161   6.157  10.422 -0.6183 -0.0100  0.3335
  112OSM   H12A11596   4.112   6.224  10.353 -2.5326 -0.7193  0.9313
  112OSM   H12B11597   4.089   6.078  10.436  0.8084 -1.7853 -1.7101
  112OSM    C1111598   4.275   6.091  10.346  0.0069 -0.2057  0.0175
  112OSM   H11A11599   4.371   6.147  10.340  2.0448 -3.4875 -0.5937
  112OSM   H11B11600   4.246   6.079  10.239  0.0701 -0.2790  0.0088
  112OSM      P11601   4.225   5.846  10.385  0.1648  0.1744  0.3408
  112OSM    O1311602   4.233   5.747  10.495  0.2540  0.2738  0.3224
  112OSM    O1411603   4.088   5.897  10.365  0.1873 -0.1294  0.5032
  112OSM    O1111604   4.266   5.793  10.246 -0.2266 -0.1878 -0.1691
  112OSM    O1211605   4.319   5.970  10.415 -0.0176  0.3714 -0.5039
  112OSM    C1S11606   4.407   5.777  10.207  0.1705  0.0996 -0.2113
  112OSM    H1S11607   4.467   5.720  10.282  1.1949  0.7209 -0.5314
  112OSM    H1T11608   4.462   5.873  10.194 -0.2682  0.8304  2.6675
  112OSM     NF11609   4.559   5.646  10.063 -0.4955  0.0026  0.5333
  112OSM    HNF11610   4.627   5.704  10.018  1.2977 -0.1585  2.8537
  112OSM    C2S11611   4.423   5.702  10.064  0.0334 -0.2991 -0.6820
  112OSM    H2S11612   4.342   5.627  10.052 -3.3027  3.1352 -1.5402
  112OSM    C3S11613   4.389   5.802   9.953  0.0036 -0.2906  0.5304
  112OSM    H3S11614   4.459   5.889   9.960 -1.0679  0.9104 -2.2417
  112OSM     O311615   4.259   5.852   9.947  0.5804  0.4408 -0.1960
  112OSM    HO311616   4.221   5.836  10.033 -2.1259  0.1982 -1.3211
  112OSM    C4S11617   4.395   5.746   9.813  0.2272  0.5898 -0.1581
  112OSM    H4S11618   4.302   5.696   9.782  0.1710  0.6895 -0.1523
  112OSM    C5S11619   4.501   5.747   9.730  0.0233  0.2394 -1.1224
  112OSM    H5S11620   4.592   5.803   9.759  0.2281  0.0113 -1.3234
  112OSM    C6S11621   4.514   5.689   9.592 -0.0713  0.7941 -0.5625
  112OSM    H6S11622   4.591   5.610   9.592 -0.6760  0.1949 -0.9143
  112OSM    H6T11623   4.550   5.768   9.522 -0.0275  0.8314 -0.4980
  112OSM    C7S11624   4.400   5.615   9.524 -0.3033 -0.2015 -0.7159
  112OSM    H7S11625   4.307   5.674   9.509  1.1238  2.2045 -0.8290
  112OSM    H7T11626   4.371   5.533   9.592 -2.0579  1.7432  1.0364
  112OSM    C8S11627   4.450   5.552   9.393  0.6817  0.0558  0.0746
  112OSM    H8S11628   4.382   5.467   9.373  0.1952  0.7657 -1.4470
  112OSM    H8T11629   4.551   5.509   9.412 -0.5032 -2.3018  1.5130
  112OSM    C9S11630   4.455   5.649   9.278  0.4671 -0.5233  0.7219
  112OSM    H9S11631   4.535   5.725   9.286 -1.7728  1.9753  0.4923
  112OSM    H9T11632   4.361   5.707   9.269  0.4679 -0.4935  0.8945
  112OSM   C10S11633   4.479   5.572   9.141 -0.6730  0.1167 -0.1821
  112OSM   H10S11634   4.408   5.489   9.119  1.9918 -2.0875 -1.1100
  112OSM   H10T11635   4.583   5.533   9.142 -0.5399  0.4564  0.6653
  112OSM   C11S11636   4.472   5.666   9.022  0.0301 -0.1983  0.3285
  112OSM   H11S11637   4.563   5.729   9.025  0.8190 -0.9575 -3.1253
  112OSM   H11T11638   4.377   5.723   9.033 -0.0745 -0.5765  1.5092
  112OSM   C12S11639   4.469   5.596   8.890  0.1029  0.6462 -0.7369
  112OSM   H12S11640   4.394   5.515   8.884  0.4683  0.0340  1.8867
  112OSM   H12T11641   4.565   5.544   8.870 -0.4428 -0.1526 -1.3295
  112OSM   C13S11642   4.446   5.699   8.783 -0.0763 -0.3720  0.0556
  112OSM   H13S11643   4.516   5.783   8.803 -0.4059  0.1050 -0.7482
  112OSM   H13T11644   4.344   5.739   8.803 -0.5253 -0.6406 -1.5297
  112OSM   C14S11645   4.469   5.643   8.637 -0.7169 -0.0611  0.4049
  112OSM   H14S11646   4.411   5.549   8.623  1.5142 -1.3254 -0.9523
  112OSM   H14T11647   4.578   5.625   8.630 -0.8475 -0.2677 -1.3280
  112OSM   C15S11648   4.421   5.744   8.531  0.2525 -0.0280  0.2440
  112OSM   H15S11649   4.491   5.830   8.521  0.7507 -0.6814 -2.8259
  112OSM   H15T11650   4.319   5.782   8.555 -0.3486 -1.0314 -0.6337
  112OSM   C16S11651   4.403   5.679   8.393  0.0244  0.1932 -0.3796
  112OSM   H16S11652   4.358   5.745   8.316 -0.6296 -1.6474 -1.6381
  112OSM   H16T11653   4.324   5.601   8.404  0.7754 -0.7109 -1.2991
  112OSM   C17S11654   4.524   5.608   8.332  0.2757 -0.7279 -0.2937
  112OSM   H17S11655   4.592   5.561   8.407  1.7921 -0.6255 -1.5462
  112OSM   H17T11656   4.584   5.682   8.274 -1.6341  0.4612 -0.8308
  112OSM   C18S11657   4.489   5.508   8.227 -0.2309 -0.4429 -0.5743
  112OSM   H18S11658   4.578   5.451   8.194 -1.7919 -2.1870 -2.0490
  112OSM   H18T11659   4.431   5.554   8.144  0.4212  0.2770 -0.6464
  112OSM   H18U11660   4.423   5.431   8.272 -0.9670  0.0376 -0.7960
  112OSM    C1F11661   4.588   5.539  10.135 -0.4527  0.5062 -0.5977
  112OSM     OF11662   4.499   5.465  10.179 -0.4120 -0.0538 -0.1062
  112OSM    C2F11663   4.738   5.514  10.155  0.1400  0.3079  0.1260
  112OSM    H2F11664   4.745   5.471  10.257 -0.7322  1.1611  0.5628
  112OSM    H2G11665   4.793   5.609  10.144  0.6591 -0.1105 -1.1206
  112OSM    C3F11666   4.814   5.414  10.058  1.2734 -0.6894 -0.4790
  112OSM    H3F11667   4.738   5.333  10.053 -2.7387  2.4596  2.0009
  112OSM    H3G11668   4.902   5.376  10.114  1.7424 -1.3814 -1.6489
  112OSM    C4F11669   4.837   5.470   9.915 -0.3853  0.3558  0.0045
  112OSM    H4F11670   4.892   5.566   9.911  1.5370 -0.6297  1.0565
  112OSM    H4G11671   4.735   5.496   9.882 -1.3776 -0.3602  2.3126
  112OSM    C5F11672   4.888   5.372   9.811  0.2694  0.0646  0.8059
  112OSM    H5F11673   4.812   5.291   9.810  0.4000 -0.0689  1.3855
  112OSM    H5G11674   4.973   5.321   9.860  0.7603 -1.3531 -1.3850
  112OSM    C6F11675   4.921   5.438   9.680  0.4088 -0.2964 -0.6616
  112OSM    H6F11676   5.001   5.512   9.703 -0.7775  1.8267 -2.9030
  112OSM    H6G11677   4.832   5.491   9.640  2.4342  1.8365 -2.6336
  112OSM    C7F11678   4.973   5.341   9.573  0.7035  0.8480 -0.5165
  112OSM    H7F11679   4.890   5.268   9.558  0.8861  0.7938 -1.3036
  112OSM    H7G11680   5.054   5.284   9.622 -0.0432  1.5734  1.6943
  112OSM    C8F11681   5.029   5.405   9.446 -0.6417  0.1739 -0.1740
  112OSM    H8F11682   5.097   5.492   9.461 -1.3511  0.4532  1.6567
  112OSM    H8G11683   4.943   5.435   9.382 -2.4211 -2.0809  1.0397
  112OSM    C9F11684   5.101   5.307   9.359  0.2232  0.4605 -0.4417
  112OSM    H9F11685   5.198   5.277   9.403  0.5279  0.0116 -1.3914
  112OSM   C10F11686   5.066   5.261   9.233  0.2379  0.3833  0.6601
  112OSM   H10F11687   5.128   5.190   9.176 -2.1233  0.3381 -2.0636
  112OSM   C11F11688   4.945   5.295   9.146  1.0652 -0.0562  0.2197
  112OSM   H11F11689   4.884   5.378   9.189 -0.5347  0.0556 -2.0709
  112OSM   H11G11690   4.871   5.213   9.135  0.5453  0.5502 -1.0482
  112OSM   C12F11691   4.973   5.338   8.998  0.6007 -0.2764  0.0873
  112OSM   H12F11692   5.059   5.283   8.955  0.2375  0.9871 -2.4042
  112OSM   H12G11693   5.007   5.443   9.009 -0.0109 -0.3003  3.2838
  112OSM   C13F11694   4.845   5.309   8.921  0.0834  0.2885  0.6007
  112OSM   H13F11695   4.759   5.369   8.956  0.1474  0.5083  0.3808
  112OSM   H13G11696   4.817   5.202   8.933 -1.6532  0.7381  0.7817
  112OSM   C14F11697   4.865   5.340   8.768 -0.3620 -0.1154  0.0263
  112OSM   H14F11698   4.965   5.298   8.747 -1.1713 -3.1557  1.6243
  112OSM   H14G11699   4.869   5.449   8.749 -0.3052 -0.1095  0.0728
  112OSM   C15F11700   4.764   5.263   8.676 -0.6834  0.0674  0.0488
  112OSM   H15F11701   4.664   5.278   8.722 -0.2537  0.2700  0.9218
  112OSM   H15G11702   4.780   5.153   8.685  2.4965  0.3406 -0.8600
  112OSM   C16F11703   4.784   5.315   8.530 -0.6525  0.0419 -0.4010
  112OSM   H16F11704   4.884   5.284   8.495  0.1960  2.0362  0.0706
  112OSM   H16G11705   4.778   5.426   8.538 -2.6424 -0.0965  0.9506
  112OSM   C17F11706   4.679   5.271   8.427 -0.7613  0.5294 -0.2800
  112OSM   H17F11707   4.720   5.327   8.341  1.4832  0.4549  0.6705
  112OSM   H17G11708   4.578   5.310   8.448 -1.5415 -1.6756  0.3257
  112OSM   C18F11709   4.658   5.114   8.408  0.1820 -0.0600  0.1874
  112OSM   H18F11710   4.745   5.060   8.366 -1.9059 -2.3140 -1.5090
  112OSM   H18G11711   4.573   5.090   8.341  0.5497 -0.3569 -0.1764
  112OSM   H18H11712   4.637   5.077   8.511  1.4592 -0.7454  0.2193
  113OSM      N11713   2.912   2.213  10.507 -0.2636 -0.2538 -0.6124
  113OSM    C1511714   3.034   2.236  10.606 -0.2277  0.6237  0.0034
  113OSM   H15A11715   3.127   2.261  10.558  0.2843 -0.3278  0.4763
  113OSM   H15B11716   3.048   2.149  10.669  1.1563  0.2966 -0.7278
  113OSM   H15C11717   3.023   2.321  10.671 -0.4253  0.9301 -0.4251
  113OSM    C1411718   2.797   2.166  10.583 -0.0032  0.6153  0.0038
  113OSM   H14A11719   2.711   2.169  10.518  1.2760  1.8455 -1.7338
  113OSM   H14B11720   2.763   2.232  10.661  0.9145 -0.6144  1.5124
  113OSM   H14C11721   2.811   2.071  10.634  0.2341 -0.0530 -1.2768
  113OSM    C1311722   2.882   2.353  10.461 -0.0501  0.3555 -0.0129
  113OSM   H13A11723   2.883   2.421  10.545  0.6531  1.4809 -0.8989
  113OSM   H13B11724   2.791   2.365  10.404 -2.0254  0.4979  2.9307
  113OSM   H13C11725   2.963   2.388  10.398  0.7413  0.1683  0.8835
  113OSM    C1211726   2.949   2.126  10.387  0.1159  0.3319 -0.4870
  113OSM   H12A11727   3.028   2.172  10.330  1.5915  0.5092  1.5926
  113OSM   H12B11728   2.863   2.106  10.324 -0.1647 -1.9408  0.5240
  113OSM    C1111729   2.998   1.983  10.422  0.2045 -0.4823  0.2436
  113OSM   H11A11730   2.964   1.924  10.334 -1.8846  2.2654 -0.9660
  113OSM   H11B11731   2.929   1.942  10.498 -0.4368 -1.0050 -0.5941
  113OSM      P11732   3.234   2.033  10.357 -0.0124  0.3890 -0.2148
  113OSM    O1311733   3.223   2.182  10.354 -0.1026  0.3257  0.2885
  113OSM    O1411734   3.367   1.977  10.378 -0.3281 -0.1549  0.2038
  113OSM    O1111735   3.172   1.973  10.221 -0.3836 -0.3329 -0.2781
  113OSM    O1211736   3.135   1.979  10.456  0.3729 -0.2598 -0.1787
  113OSM    C1S11737   3.237   2.003  10.094  0.3443  0.9193  0.2076
  113OSM    H1S11738   3.335   1.951  10.092 -2.1039 -4.3227 -2.3458
  113OSM    H1T11739   3.255   2.113  10.087 -1.4321  1.4496  2.5648
  113OSM     NF11740   3.207   1.978   9.846  0.3771  0.0747  0.0848
  113OSM    HNF11741   3.193   2.053   9.783  0.8038 -1.1346 -1.5353
  113OSM    C2S11742   3.141   1.978   9.974 -0.1653  0.4164  0.4651
  113OSM    H2S11743   3.105   1.873   9.979 -0.2493  0.4100 -0.1218
  113OSM    C3S11744   3.011   2.061   9.981 -0.1561  0.0741  0.5481
  113OSM    H3S11745   3.048   2.162   9.954 -0.9295 -0.2665 -2.0662
  113OSM     O311746   2.950   2.068  10.108 -0.5395 -0.4555  0.0233
  113OSM    HO311747   3.028   2.048  10.160 -0.1429  0.9111 -0.0038
  113OSM    C4S11748   2.919   2.016   9.873 -0.3011 -0.2363  0.2497
  113OSM    H4S11749   2.953   2.044   9.773 -2.7122  0.7945 -0.3466
  113OSM    C5S11750   2.818   1.927   9.878  0.6022  0.0704 -0.6105
  113OSM    H5S11751   2.799   1.883   9.977  1.6185  1.7287  0.3617
  113OSM    C6S11752   2.727   1.895   9.761 -0.0979 -0.7181 -0.0435
  113OSM    H6S11753   2.619   1.887   9.784 -0.3042 -2.4635 -1.3698
  113OSM    H6T11754   2.751   1.790   9.731  0.8781 -0.2335 -1.0421
  113OSM    C7S11755   2.742   1.975   9.626  0.0740 -0.0289 -0.3255
  113OSM    H7S11756   2.850   1.985   9.601  0.0063  2.1175  0.0260
  113OSM    H7T11757   2.706   2.079   9.642 -0.1713 -0.1401 -0.1550
  113OSM    C8S11758   2.669   1.912   9.509  0.0004 -0.0680  0.0738
  113OSM    H8S11759   2.559   1.902   9.526  0.1925 -1.2634  0.7922
  113OSM    H8T11760   2.697   1.805   9.521 -1.1342 -0.1909  2.0515
  113OSM    C9S11761   2.706   1.978   9.374  0.2810 -0.6772  0.0816
  113OSM    H9S11762   2.815   1.993   9.366  0.0816  1.5419  1.0057
  113OSM    H9T11763   2.661   2.079   9.366  0.0077 -0.9242 -2.1253
  113OSM   C10S11764   2.663   1.886   9.259 -0.0973 -0.1123 -0.5202
  113OSM   H10S11765   2.557   1.860   9.281  0.2651 -1.1784  0.0543
  113OSM   H10T11766   2.722   1.792   9.256 -3.0675 -2.1123 -1.7956
  113OSM   C11S11767   2.685   1.964   9.127  0.4930  0.1647  0.1831
  113OSM   H11S11768   2.793   1.980   9.110  0.0241 -0.6685 -5.4019
  113OSM   H11T11769   2.647   2.069   9.134  0.6567  0.5179 -2.9734
  113OSM   C12S11770   2.642   1.897   8.993 -0.2185 -0.0701 -0.4551
  113OSM   H12S11771   2.532   1.896   8.980 -0.5753 -0.6962  2.2012
  113OSM   H12T11772   2.671   1.790   8.989 -0.7163 -0.2467  0.6065
  113OSM   C13S11773   2.703   1.976   8.882 -0.1627  0.5921 -0.7820
  113OSM   H13S11774   2.814   1.976   8.884 -0.0578  3.1633  2.4006
  113OSM   H13T11775   2.673   2.083   8.887 -1.4263  0.2073  0.8211
  113OSM   C14S11776   2.663   1.915   8.751 -0.0976  0.5799  0.9319
  113OSM   H14S11777   2.553   1.900   8.748  0.1087 -0.9866  0.0369
  113OSM   H14T11778   2.701   1.811   8.758  0.0180  0.5517  0.0527
  113OSM   C15S11779   2.705   1.988   8.627 -0.0644 -0.2457  0.1107
  113OSM   H15S11780   2.708   2.097   8.645 -1.1165 -0.5081  2.0378
  113OSM   H15T11781   2.632   1.965   8.547  0.1230  0.0265 -0.1435
  113OSM   C16S11782   2.852   1.948   8.586 -0.5395  1.0843 -0.4033
  113OSM   H16S11783   2.861   1.838   8.580 -2.2429  0.9592 -0.8952
  113OSM   H16T11784   2.913   1.963   8.678 -2.6444  1.3868  1.0101
  113OSM   C17S11785   2.882   2.030   8.463 -0.7281  0.0899 -0.4234
  113OSM   H17S11786   2.808   2.016   8.381 -0.7059 -1.3036 -0.2389
  113OSM   H17T11787   2.972   1.982   8.419 -1.1319 -1.3308  0.2106
  113OSM   C18S11788   2.919   2.173   8.485  0.4037 -0.2037 -0.2924
  113OSM   H18S11789   2.919   2.229   8.389 -1.1283 -1.0906 -0.8258
  113OSM   H18T11790   3.018   2.186   8.535  0.6978 -0.4955 -0.7816
  113OSM   H18U11791   2.853   2.222   8.560  2.7736 -0.2261  1.9684
  113OSM    C1F11792   3.315   1.906   9.816 -0.4586 -0.7194 -0.0744
  113OSM     OF11793   3.351   1.811   9.889 -0.0147  0.3446  0.1646
  113OSM    C2F11794   3.399   1.948   9.696  0.4146 -0.0048 -0.6575
  113OSM    H2F11795   3.457   2.041   9.719 -0.2495  0.2339  0.0856
  113OSM    H2G11796   3.337   1.959   9.604  1.1828  0.9521 -1.0938
  113OSM    C3F11797   3.512   1.850   9.662 -0.7930 -0.2641  0.1558
  113OSM    H3F11798   3.471   1.746   9.665 -0.9285 -0.1914  1.1034
  113OSM    H3G11799   3.591   1.852   9.741 -0.7397 -1.7685  0.1713
  113OSM    C4F11800   3.568   1.885   9.519 -0.1715  0.0254 -0.0195
  113OSM    H4F11801   3.653   1.815   9.505 -0.2798  0.0007 -0.5570
  113OSM    H4G11802   3.617   1.984   9.517  0.8521 -0.4568  0.3717
  113OSM    C5F11803   3.466   1.866   9.406  0.4179  0.5598 -0.0486
  113OSM    H5F11804   3.366   1.912   9.419  0.9406  1.1268  2.5147
  113OSM    H5G11805   3.438   1.758   9.399 -0.4053  0.8498 -1.8005
  113OSM    C6F11806   3.527   1.884   9.264  0.6743  0.2241 -0.4595
  113OSM    H6F11807   3.604   1.808   9.241 -1.1549 -1.8240 -0.1366
  113OSM    H6G11808   3.558   1.991   9.265 -1.6176  0.9433  0.3310
  113OSM    C7F11809   3.423   1.868   9.155 -0.2071 -0.7612 -0.7341
  113OSM    H7F11810   3.326   1.920   9.168 -1.8939 -2.8585 -3.7295
  113OSM    H7G11811   3.406   1.758   9.148  3.1421 -1.4018 -0.6352
  113OSM    C8F11812   3.492   1.909   9.022  0.5844  0.3634 -0.1146
  113OSM    H8F11813   3.594   1.866   9.026  1.0885  1.6031  1.6455
  113OSM    H8G11814   3.507   2.019   9.021  0.5852  0.3776  0.7895
  113OSM    C9F11815   3.419   1.850   8.900 -0.3279  0.6934  0.5863
  113OSM    H9F11816   3.435   1.742   8.882 -1.5101  0.2228  2.0989
  113OSM   C10F11817   3.332   1.904   8.815  0.3503 -0.3311 -0.0768
  113OSM   H10F11818   3.308   1.851   8.721 -0.9926 -0.7490  0.4795
  113OSM   C11F11819   3.264   2.037   8.811  0.4271 -0.7214 -0.5734
  113OSM   H11F11820   3.266   2.081   8.913  2.6218 -1.4513 -0.2588
  113OSM   H11G11821   3.158   2.024   8.780  1.1853  0.6747 -4.1956
  113OSM   C12F11822   3.330   2.148   8.727  0.6261  0.0137 -0.3040
  113OSM   H12F11823   3.426   2.179   8.774  0.3711 -0.9935  0.9698
  113OSM   H12G11824   3.268   2.240   8.727  0.4029 -0.1035  1.1563
  113OSM   C13F11825   3.348   2.113   8.581  0.0440  0.8292 -0.0989
  113OSM   H13F11826   3.248   2.073   8.552  0.5911 -0.3299 -0.4428
  113OSM   H13G11827   3.423   2.031   8.591 -0.6144  0.4286  2.3395
  113OSM   C14F11828   3.384   2.235   8.498  0.0890  0.8196 -0.0324
  113OSM   H14F11829   3.467   2.294   8.544 -0.2780  0.3242  1.3364
  113OSM   H14G11830   3.297   2.304   8.496 -1.9016 -1.5458  0.5322
  113OSM   C15F11831   3.409   2.196   8.352 -0.5841  0.3254  0.0294
  113OSM   H15F11832   3.310   2.175   8.307 -0.4024  1.3642 -0.8898
  113OSM   H15G11833   3.478   2.110   8.342  0.8990  1.4495  0.2443
  113OSM   C16F11834   3.486   2.310   8.272 -0.0081 -0.3043  0.2194
  113OSM   H16F11835   3.551   2.366   8.343  1.3359 -1.3297 -0.1603
  113OSM   H16G11836   3.409   2.369   8.219  1.4818  1.2544 -0.2865
  113OSM   C17F11837   3.591   2.251   8.174 -0.0623  0.6716  0.3059
  113OSM   H17F11838   3.553   2.163   8.118  0.0692  0.5803  0.3611
  113OSM   H17G11839   3.664   2.203   8.242 -0.7364  0.8382  1.1689
  113OSM   C18F11840   3.652   2.348   8.075 -0.5719  0.6530  0.8301
  113OSM   H18F11841   3.579   2.421   8.035  0.2832  1.1668  0.1628
  113OSM   H18G11842   3.708   2.293   7.995  0.7355  1.2563  1.2982
  113OSM   H18H11843   3.734   2.389   8.138  2.4457 -1.2082 -1.5843
  114OSM      N11844   5.409   3.244  10.185 -0.1936 -0.1022 -0.6214
  114OSM    C1511845   5.359   3.181  10.055 -0.3649  0.0600  0.1055
  114OSM   H15A11846   5.431   3.206   9.978  0.8270  0.4413  1.3011
  114OSM   H15B11847   5.259   3.218  10.036 -0.3997  0.8631  1.6734
  114OSM   H15C11848   5.342   3.077  10.075 -2.1208  0.1090 -0.9126
  114OSM    C1411849   5.490   3.151  10.266 -0.1658 -0.4274 -0.0024
  114OSM   H14A11850   5.556   3.103  10.195 -1.5786 -0.2861 -1.4870
  114OSM   H14B11851   5.428   3.071  10.305 -1.5468 -0.5191 -2.2176
  114OSM   H14C11852   5.552   3.199  10.340 -1.4367  2.0095 -0.4002
  114OSM    C1311853   5.489   3.366  10.147 -0.1948 -0.1472  0.2077
  114OSM   H13A11854   5.476   3.442  10.223  0.4521  1.2695 -1.0443
  114OSM   H13B11855   5.460   3.401  10.049  3.0245 -0.4794 -0.9859
  114OSM   H13C11856   5.597   3.357  10.139  0.0578  1.1284  1.7060
  114OSM    C1211857   5.293   3.296  10.274 -0.3474  0.6091  0.4420
  114OSM   H12A11858   5.332   3.348  10.360 -1.2709  0.0234  1.2496
  114OSM   H12B11859   5.238   3.210  10.309  1.5159 -0.8714 -0.0759
  114OSM    C1111860   5.201   3.384  10.192 -0.3736 -0.4705 -0.7056
  114OSM   H11A11861   5.152   3.320  10.115  1.5938 -0.3465 -2.1353
  114OSM   H11B11862   5.254   3.464  10.135  2.2722 -0.3120  1.7893
  114OSM      P11863   5.093   3.596  10.306  0.2948 -0.0112  0.0506
  114OSM    O1311864   4.971   3.636  10.376 -0.2189 -0.0942  0.1984
  114OSM    O1411865   5.221   3.631  10.378  0.3360 -0.1043  0.0257
  114OSM    O1111866   5.081   3.661  10.157 -0.7535 -0.8150  0.0297
  114OSM    O1211867   5.105   3.437  10.283  0.2943 -0.0984  0.0218
  114OSM    C1S11868   5.143   3.784  10.117 -0.4826  0.4791 -0.4158
  114OSM    H1S11869   5.224   3.811  10.189 -0.0040  0.8059 -1.0607
  114OSM    H1T11870   5.060   3.857  10.121 -1.2906 -0.3768 -1.2045
  114OSM     NF11871   5.254   3.927   9.957  0.7375 -0.7390  0.0566
  114OSM    HNF11872   5.195   3.997   9.916  0.6768 -1.1518 -0.5787
  114OSM    C2S11873   5.198   3.789   9.973  0.1019  0.1569 -0.8099
  114OSM    H2S11874   5.276   3.710   9.965  0.7919  0.9120 -1.8595
  114OSM    C3S11875   5.088   3.759   9.862 -0.6026  0.3318 -0.5812
  114OSM    H3S11876   5.007   3.831   9.886 -0.3815  0.0963  0.9876
  114OSM     O311877   5.016   3.636   9.876 -0.1484 -0.4029 -0.1954
  114OSM    HO311878   5.029   3.639   9.971 -0.7417 -1.4803 -0.0660
  114OSM    C4S11879   5.133   3.772   9.718 -0.6639  0.0111  0.5420
  114OSM    H4S11880   5.240   3.751   9.699 -0.3170  0.6130  1.7392
  114OSM    C5S11881   5.057   3.816   9.617  0.0672 -0.0799 -0.0307
  114OSM    H5S11882   4.954   3.852   9.630  0.0833 -0.3006  0.7967
  114OSM    C6S11883   5.103   3.816   9.470  0.8970 -0.1681 -0.7997
  114OSM    H6S11884   5.096   3.923   9.441 -3.2393 -0.3126 -0.9165
  114OSM    H6T11885   5.020   3.760   9.421 -0.1475 -0.6089  1.3466
  114OSM    C7S11886   5.243   3.763   9.452 -0.3996  0.2657  0.2949
  114OSM    H7S11887   5.251   3.655   9.476 -1.4959 -0.5151 -2.5032
  114OSM    H7T11888   5.310   3.831   9.509  0.2198 -0.3475  0.3104
  114OSM    C8S11889   5.275   3.784   9.306 -0.1113 -0.6478 -0.1640
  114OSM    H8S11890   5.172   3.776   9.267 -1.1961  2.0789  1.8691
  114OSM    H8T11891   5.349   3.709   9.268  0.7489 -0.2166  0.6031
  114OSM    C9S11892   5.340   3.922   9.287 -0.1541  0.3523 -0.7289
  114OSM    H9S11893   5.409   3.943   9.371  1.1599  0.3397 -1.7735
  114OSM    H9T11894   5.269   4.007   9.283  1.5286  1.8270 -0.3253
  114OSM   C10S11895   5.425   3.934   9.157 -0.8054 -0.3093  0.3321
  114OSM   H10S11896   5.508   3.860   9.155 -0.0299  0.5491 -1.4320
  114OSM   H10T11897   5.463   4.039   9.160 -0.3636 -0.4638  0.2188
  114OSM   C11S11898   5.346   3.929   9.022  0.6630  0.0236 -0.1475
  114OSM   H11S11899   5.260   3.998   9.015 -0.2050 -1.2195 -3.9241
  114OSM   H11T11900   5.303   3.828   9.005  0.6556 -0.2075  1.1633
  114OSM   C12S11901   5.436   3.974   8.906 -0.1417 -0.3048 -0.5480
  114OSM   H12S11902   5.540   3.947   8.934  0.0854  0.1277 -0.9595
  114OSM   H12T11903   5.440   4.085   8.903  3.3333 -0.2381  1.4867
  114OSM   C13S11904   5.410   3.908   8.770  0.1765 -0.4816  0.1922
  114OSM   H13S11905   5.304   3.926   8.743  0.6975  2.0683 -0.3435
  114OSM   H13T11906   5.437   3.800   8.771  1.8803 -0.0842  0.4430
  114OSM   C14S11907   5.495   3.981   8.668 -0.0380  0.1789  0.5656
  114OSM   H14S11908   5.602   3.971   8.697  0.4310  1.7334 -0.4693
  114OSM   H14T11909   5.462   4.086   8.678 -2.2681 -0.4384  0.1065
  114OSM   C15S11910   5.471   3.930   8.526 -0.1590  0.3250 -0.1397
  114OSM   H15S11911   5.370   3.964   8.494 -0.0550  0.5501 -0.2307
  114OSM   H15T11912   5.478   3.819   8.528 -0.9243  0.2796  1.7205
  114OSM   C16S11913   5.570   4.002   8.434 -0.4049  0.5577 -0.1713
  114OSM   H16S11914   5.676   3.971   8.450 -0.7748  0.1066  1.6573
  114OSM   H16T11915   5.577   4.110   8.459 -0.6472  0.9134 -1.5403
  114OSM   C17S11916   5.549   3.973   8.281 -0.0337 -0.4986  0.2171
  114OSM   H17S11917   5.439   3.969   8.262 -0.0318 -2.3796  0.4843
  114OSM   H17T11918   5.590   3.875   8.249 -1.4820 -0.9684 -0.2767
  114OSM   C18S11919   5.611   4.075   8.184 -0.2238 -0.0161 -0.8446
  114OSM   H18S11920   5.603   4.048   8.077 -1.8182  4.0085 -1.9393
  114OSM   H18T11921   5.716   4.091   8.214 -1.3817  1.1893  3.2305
  114OSM   H18U11922   5.565   4.175   8.196 -0.2404 -0.0745 -0.3790
  114OSM    C1F11923   5.359   3.975  10.023  0.8150  0.0014 -1.1197
  114OSM     OF11924   5.417   3.903  10.099  0.1961  0.0296 -0.3295
  114OSM    C2F11925   5.387   4.122  10.018  0.1173  0.0720 -0.2632
  114OSM    H2F11926   5.435   4.144  10.116  1.0130  2.1041 -1.1041
  114OSM    H2G11927   5.294   4.182  10.022 -0.0957 -0.2805  3.6452
  114OSM    C3F11928   5.477   4.161   9.899 -0.4646  0.3878 -0.5586
  114OSM    H3F11929   5.581   4.124   9.913 -0.1933  0.6482 -1.7646
  114OSM    H3G11930   5.495   4.268   9.920  2.0731 -0.1299  0.1910
  114OSM    C4F11931   5.408   4.142   9.764 -0.0670 -0.0994  0.2488
  114OSM    H4F11932   5.300   4.167   9.769  0.2644  1.7361 -0.7544
  114OSM    H4G11933   5.402   4.033   9.743 -2.0574  0.1970 -0.9660
  114OSM    C5F11934   5.480   4.213   9.647 -0.0129  0.1085 -0.3652
  114OSM    H5F11935   5.514   4.312   9.684 -1.8186 -0.1638  2.3446
  114OSM    H5G11936   5.400   4.245   9.576  0.2561 -0.9970 -1.2057
  114OSM    C6F11937   5.596   4.133   9.584  0.0152  0.8397 -0.4528
  114OSM    H6F11938   5.558   4.066   9.504 -2.3042  1.6673 -0.1369
  114OSM    H6G11939   5.659   4.075   9.655 -1.0383  0.5541  0.2691
  114OSM    C7F11940   5.701   4.222   9.512  0.4256  0.4564 -0.0579
  114OSM    H7F11941   5.748   4.284   9.591 -0.4168 -0.2461  1.0296
  114OSM    H7G11942   5.650   4.296   9.446  1.0172 -0.4829 -1.6022
  114OSM    C8F11943   5.806   4.153   9.435  0.4739  0.1698 -0.2465
  114OSM    H8F11944   5.857   4.092   9.512 -0.3601  1.8679  1.7623
  114OSM    H8G11945   5.884   4.223   9.397  0.5822  0.3923  0.3639
  114OSM    C9F11946   5.759   4.076   9.316  0.1189 -0.5970 -0.5972
  114OSM    H9F11947   5.681   4.004   9.346  1.1380 -1.1103  0.9288
  114OSM   C10F11948   5.803   4.086   9.188  0.1469 -0.5773 -0.0331
  114OSM   H10F11949   5.760   4.019   9.112  0.0561  0.0577 -0.5400
  114OSM   C11F11950   5.906   4.184   9.138  1.1329  0.0061 -0.3754
  114OSM   H11F11951   5.986   4.189   9.215 -0.5336  2.3081  1.3768
  114OSM   H11G11952   5.849   4.278   9.120 -0.2827 -1.0611 -1.6618
  114OSM   C12F11953   5.959   4.153   9.000 -0.3320  0.1064  0.4968
  114OSM   H12F11954   5.987   4.045   8.995 -0.7707  0.0246 -0.4512
  114OSM   H12G11955   6.056   4.206   8.998 -0.1340  0.2229  4.3803
  114OSM   C13F11956   5.878   4.191   8.876  0.1253  0.6167  0.3412
  114OSM   H13F11957   5.842   4.295   8.889 -1.7166  0.0582  0.0617
  114OSM   H13G11958   5.784   4.134   8.894  0.6113  0.5139  2.9444
  114OSM   C14F11959   5.953   4.167   8.750 -0.3292  0.0895 -0.5999
  114OSM   H14F11960   5.991   4.063   8.759 -0.4170  0.1324  0.3391
  114OSM   H14G11961   6.048   4.224   8.749  0.1891 -0.6960  0.7332
  114OSM   C15F11962   5.886   4.188   8.614  1.1180 -0.3210 -0.0304
  114OSM   H15F11963   5.842   4.289   8.618  1.2089 -0.3173  2.5721
  114OSM   H15G11964   5.803   4.115   8.606  1.8518 -1.2065  0.1807
  114OSM   C16F11965   5.968   4.196   8.485 -0.6066  0.1456 -0.7756
  114OSM   H16F11966   6.046   4.275   8.492  0.9383 -1.1244 -2.7748
  114OSM   H16G11967   5.901   4.229   8.403 -0.4307  0.8363 -0.6508
  114OSM   C17F11968   6.042   4.060   8.440  0.3391 -0.6862  0.3525
  114OSM   H17F11969   6.108   4.034   8.525 -1.1006 -2.2103  1.0770
  114OSM   H17G11970   6.106   4.076   8.350 -0.8630  1.0666 -0.2494
  114OSM   C18F11971   5.945   3.943   8.405  0.3265 -0.0396 -0.0816
  114OSM   H18F11972   6.011   3.853   8.396  0.6352  0.1677  0.0936
  114OSM   H18G11973   5.893   3.961   8.308  0.3290  0.9516  0.0930
  114OSM   H18H11974   5.888   3.924   8.498  1.5554 -0.8567  0.5396
  115OSM      N11975   1.915   1.890  10.832 -0.0568  0.4495 -0.3167
  115OSM    C1511976   2.029   1.982  10.811  0.1821 -0.8596  0.3225
  115OSM   H15A11977   2.097   1.933  10.744  0.7595 -0.4108  0.5725
  115OSM   H15B11978   2.074   2.007  10.906 -2.0824 -1.1920  1.5718
  115OSM   H15C11979   1.996   2.075  10.768 -1.2922 -0.6255  1.8052
  115OSM    C1411980   1.935   1.777  10.927 -0.3010  0.3764  0.0671
  115OSM   H14A11981   1.840   1.726  10.930 -0.0296 -0.4169 -2.4348
  115OSM   H14B11982   1.963   1.807  11.027  0.5124  1.1928 -0.3934
  115OSM   H14C11983   2.015   1.712  10.896  0.6199  0.2835  2.4206
  115OSM    C1311984   1.791   1.960  10.898  0.2226  0.1962  0.2806
  115OSM   H13A11985   1.706   1.895  10.892  1.6445 -1.7177 -0.2622
  115OSM   H13B11986   1.771   2.057  10.854  0.1842  0.4404  0.8285
  115OSM   H13C11987   1.811   1.974  11.003 -2.3051  0.3797  0.7841
  115OSM    C1211988   1.862   1.838  10.698  0.0502 -0.4819 -0.3599
  115OSM   H12A11989   1.806   1.912  10.643  1.4291  0.5129 -0.4950
  115OSM   H12B11990   1.791   1.761  10.723 -1.3086  0.0301 -2.3858
  115OSM    C1111991   1.973   1.763  10.619  0.1999 -0.0700  0.2801
  115OSM   H11A11992   1.940   1.712  10.525 -2.2402 -0.2980  1.1803
  115OSM   H11B11993   2.002   1.680  10.687 -2.4463 -0.9474  0.4536
  115OSM      P11994   2.216   1.768  10.525 -0.1507  0.3174 -0.2997
  115OSM    O1311995   2.332   1.810  10.610 -0.1326 -0.2385  0.4794
  115OSM    O1411996   2.190   1.622  10.528  0.3844 -0.2948 -0.5026
  115OSM    O1111997   2.240   1.818  10.382 -0.1304 -0.2058 -0.0987
  115OSM    O1211998   2.086   1.844  10.580  0.0477  0.9973  0.1009
  115OSM    C1S11999   2.132   1.875  10.306  0.5407 -0.8856  0.3248
  115OSM    H1S12000   2.109   1.977  10.345  1.2849 -0.4431 -0.3526
  115OSM    H1T12001   2.039   1.816  10.316  1.4139 -2.4701 -0.5930
  115OSM     NF12002   2.084   2.001  10.093  0.7502 -0.0403 -0.1749
  115OSM    HNF12003   2.000   1.976  10.046  0.2879  1.3382 -0.1352
  115OSM    C2S12004   2.173   1.902  10.157 -0.0413  0.2576 -0.3647
  115OSM    H2S12005   2.276   1.943  10.145 -1.0888  2.5697 -2.1707
  115OSM    C3S12006   2.180   1.767  10.091  0.1004  1.1881  0.5638
  115OSM    H3S12007   2.082   1.715  10.098  0.4965  0.2628 -0.4654
  115OSM     O312008   2.268   1.673  10.163  0.0715  0.1302 -0.0744
  115OSM    HO312009   2.281   1.719  10.246  1.4595  1.7392 -1.1143
  115OSM    C4S12010   2.216   1.769   9.949  0.2131  0.1128  0.4539
  115OSM    H4S12011   2.120   1.774   9.895 -0.6061  2.3720  1.9535
  115OSM    C5S12012   2.338   1.753   9.896 -0.3912  0.0128  0.5704
  115OSM    H5S12013   2.418   1.723   9.965 -0.2841 -2.3085 -0.4921
  115OSM    C6S12014   2.371   1.718   9.752  1.0417  0.1858  0.2775
  115OSM    H6S12015   2.460   1.656   9.729  0.4409 -0.2017 -1.1122
  115OSM    H6T12016   2.381   1.816   9.699  1.2846  0.0830  0.1333
  115OSM    C7S12017   2.256   1.656   9.678 -0.2012 -0.6026  0.2035
  115OSM    H7S12018   2.171   1.728   9.671  0.2282 -0.1591 -0.6790
  115OSM    H7T12019   2.224   1.561   9.725  0.9073 -1.0817  0.0068
  115OSM    C8S12020   2.289   1.629   9.531  0.0371  0.2196 -0.6358
  115OSM    H8S12021   2.383   1.570   9.526  1.0131  1.7354 -0.6097
  115OSM    H8T12022   2.300   1.734   9.497  0.8852  1.1046  2.1519
  115OSM    C9S12023   2.174   1.561   9.460  0.0179  0.0819 -0.2684
  115OSM    H9S12024   2.079   1.619   9.459  1.6845  3.0216  1.0089
  115OSM    H9T12025   2.143   1.478   9.527  0.6764 -0.4983 -0.6663
  115OSM   C10S12026   2.207   1.521   9.320  0.2024 -0.5466  0.1327
  115OSM   H10S12027   2.120   1.470   9.274  0.2407  0.0959 -0.6917
  115OSM   H10T12028   2.286   1.442   9.312  1.1257  0.4856 -1.7126
  115OSM   C11S12029   2.262   1.627   9.229 -0.8248  0.0695 -0.4913
  115OSM   H11S12030   2.302   1.577   9.139  1.7311  1.6615 -0.3478
  115OSM   H11T12031   2.342   1.681   9.284  0.5715 -1.6798 -0.7216
  115OSM   C12S12032   2.146   1.722   9.187  0.2368 -0.1518 -0.3931
  115OSM   H12S12033   2.126   1.779   9.281  1.0234  2.1784 -1.5762
  115OSM   H12T12034   2.054   1.662   9.171 -0.0202  0.3745 -0.9188
  115OSM   C13S12035   2.158   1.809   9.069 -0.0731 -0.5437  0.1120
  115OSM   H13S12036   2.245   1.877   9.072 -0.4863 -0.0265  0.7130
  115OSM   H13T12037   2.070   1.873   9.048 -1.7748 -2.4084  1.1587
  115OSM   C14S12038   2.177   1.734   8.941  0.6870  0.2956  0.0400
  115OSM   H14S12039   2.099   1.657   8.932  0.1462  0.2955  3.2804
  115OSM   H14T12040   2.272   1.677   8.935  1.3353  1.3381  0.0074
  115OSM   C15S12041   2.177   1.822   8.817 -0.0478  0.2845 -0.5363
  115OSM   H15S12042   2.266   1.887   8.813 -1.1416  1.8500 -0.3396
  115OSM   H15T12043   2.075   1.863   8.800 -0.2918 -0.9315 -2.2776
  115OSM   C16S12044   2.170   1.724   8.697  0.3846  0.3133 -0.1260
  115OSM   H16S12045   2.091   1.646   8.710  1.6968 -1.1827 -0.8026
  115OSM   H16T12046   2.262   1.662   8.685  0.3010 -0.2271  1.7067
  115OSM   C17S12047   2.150   1.805   8.565  0.2442  0.4336  0.1168
  115OSM   H17S12048   2.235   1.875   8.553 -0.4769  1.1928 -0.6568
  115OSM   H17T12049   2.060   1.868   8.583 -0.8524 -1.6658  2.8361
  115OSM   C18S12050   2.140   1.723   8.442 -0.3864  0.0246  0.3777
  115OSM   H18S12051   2.039   1.676   8.436  0.1356 -1.1851  0.6871
  115OSM   H18T12052   2.219   1.645   8.439  0.5911  1.0107 -0.4415
  115OSM   H18U12053   2.148   1.791   8.355  2.4121  0.1031  0.6226
  115OSM    C1F12054   2.093   2.131  10.119 -0.7886  0.1114 -0.1037
  115OSM     OF12055   2.186   2.178  10.189 -0.0321 -0.6527 -0.6893
  115OSM    C2F12056   1.989   2.215  10.055  0.3925 -0.3199 -0.0471
  115OSM    H2F12057   1.957   2.290  10.131  1.1262 -0.2705  0.2224
  115OSM    H2G12058   1.899   2.159  10.022  0.3089 -0.2389  0.0376
  115OSM    C3F12059   2.044   2.288   9.929  0.1943  0.3994 -0.0287
  115OSM    H3F12060   2.132   2.356   9.937 -0.2795  1.2747 -1.7338
  115OSM    H3G12061   1.965   2.353   9.886 -0.1372 -1.6846 -2.8999
  115OSM    C4F12062   2.077   2.184   9.819  0.6867 -0.4203  0.0906
  115OSM    H4F12063   2.002   2.102   9.809  2.2905 -2.4187  3.0392
  115OSM    H4G12064   2.174   2.133   9.831  0.2571 -1.3236 -0.1853
  115OSM    C5F12065   2.069   2.257   9.681  0.1756 -0.0736 -0.1741
  115OSM    H5F12066   2.140   2.343   9.683  0.7200 -0.5247  1.3272
  115OSM    H5G12067   1.970   2.305   9.667  0.6513  0.7845 -0.6524
  115OSM    C6F12068   2.110   2.164   9.560 -0.3640 -0.2689  0.2198
  115OSM    H6F12069   2.049   2.071   9.569 -1.6137  0.4270 -0.7706
  115OSM    H6G12070   2.218   2.144   9.577  0.8391  4.2642 -0.8120
  115OSM    C7F12071   2.092   2.223   9.417 -0.8587 -0.5170  0.1835
  115OSM    H7F12072   2.164   2.307   9.409 -0.7888 -0.6998 -1.1812
  115OSM    H7G12073   1.989   2.264   9.412  0.0554  2.2097  1.7780
  115OSM    C8F12074   2.112   2.118   9.303 -0.4580  0.0958  0.6272
  115OSM    H8F12075   2.085   2.165   9.206 -0.1081  1.1495  1.0337
  115OSM    H8G12076   2.044   2.029   9.301 -1.2876  0.7305 -0.8718
  115OSM    C9F12077   2.254   2.077   9.306 -0.7882  0.1654  0.2606
  115OSM    H9F12078   2.282   2.015   9.393  2.1181  1.0166  0.0293
  115OSM   C10F12079   2.359   2.121   9.234 -0.4690  0.0165  0.2462
  115OSM   H10F12080   2.460   2.085   9.259 -0.5838  0.5569  1.5544
  115OSM   C11F12081   2.346   2.223   9.122 -0.5032  0.3191 -0.0105
  115OSM   H11F12082   2.417   2.305   9.147  0.1790 -0.1125 -0.4928
  115OSM   H11G12083   2.246   2.271   9.115 -0.3836  0.5272 -0.3090
  115OSM   C12F12084   2.381   2.171   8.983 -0.0203  0.4568 -0.4609
  115OSM   H12F12085   2.311   2.087   8.962 -0.8776  1.4140 -1.5545
  115OSM   H12G12086   2.480   2.122   8.967 -0.4058 -1.8526  3.0253
  115OSM   C13F12087   2.365   2.274   8.867  0.2683 -0.2401 -0.0835
  115OSM   H13F12088   2.455   2.339   8.861  0.1732  0.2717  2.5815
  115OSM   H13G12089   2.274   2.335   8.884  0.2256 -0.9616  2.9936
  115OSM   C14F12090   2.363   2.206   8.727 -0.2112  0.5067  0.4901
  115OSM   H14F12091   2.259   2.169   8.713  0.1773 -1.0602  1.5489
  115OSM   H14G12092   2.427   2.116   8.722  2.6077  2.3446  1.3800
  115OSM   C15F12093   2.405   2.310   8.622 -0.2397 -0.5378 -0.8826
  115OSM   H15F12094   2.499   2.364   8.646 -1.1475  2.1834 -2.9580
  115OSM   H15G12095   2.325   2.387   8.627  1.3543  1.3519 -2.5853
  115OSM   C16F12096   2.409   2.254   8.479 -0.0052 -0.2274  0.0306
  115OSM   H16F12097   2.468   2.161   8.494 -1.5368 -1.1601  0.3972
  115OSM   H16G12098   2.469   2.314   8.407 -2.1035 -0.0997 -1.7240
  115OSM   C17F12099   2.271   2.223   8.422  0.2395 -0.1887 -1.0217
  115OSM   H17F12100   2.203   2.311   8.413 -0.9731 -1.0343 -0.4508
  115OSM   H17G12101   2.225   2.163   8.503  3.2160 -0.8522  0.3147
  115OSM   C18F12102   2.278   2.136   8.297 -0.4471  0.5523  0.1899
  115OSM   H18F12103   2.328   2.038   8.308  0.1784  0.9672  1.1838
  115OSM   H18G12104   2.318   2.186   8.206 -0.5183  2.0443  0.9424
  115OSM   H18H12105   2.172   2.114   8.272 -1.0874 -0.5029  3.4036
  116OSM      N12106   3.470   6.503  10.309 -0.5078  0.4064  0.5220
  116OSM    C1512107   3.490   6.404  10.193  0.3873  0.4634 -0.0967
  116OSM   H15A12108   3.421   6.425  10.113  1.3829  1.2170 -0.7926
  116OSM   H15B12109   3.473   6.303  10.226  1.4103  0.1549 -0.4759
  116OSM   H15C12110   3.590   6.405  10.151  0.9009 -1.6732  0.9564
  116OSM    C1412111   3.340   6.480  10.367 -0.6311  0.5466  0.2537
  116OSM   H14A12112   3.328   6.374  10.380 -0.2111  0.5052  0.3262
  116OSM   H14B12113   3.263   6.532  10.312 -1.2485  1.3256  1.7685
  116OSM   H14C12114   3.337   6.518  10.469 -1.6811 -1.3240  0.9555
  116OSM    C1312115   3.571   6.478  10.411  0.1418  0.4742  0.6488
  116OSM   H13A12116   3.585   6.383  10.459  3.4715 -0.6027 -2.0491
  116OSM   H13B12117   3.556   6.547  10.493  0.5583  0.5168  0.6921
  116OSM   H13C12118   3.666   6.498  10.363 -0.4741  1.3662 -0.2554
  116OSM    C1212119   3.485   6.643  10.258  0.1047  0.0406  0.2887
  116OSM   H12A12120   3.487   6.699  10.350  0.3864 -1.3343  1.1551
  116OSM   H12B12121   3.392   6.667  10.209 -0.5119 -2.3955  0.1155
  116OSM    C1112122   3.606   6.685  10.182 -0.2809 -0.8585 -0.0978
  116OSM   H11A12123   3.578   6.781  10.132  3.6437  0.5119 -0.0015
  116OSM   H11B12124   3.624   6.612  10.100  0.5050  0.6799 -1.3401
  116OSM      P12125   3.741   6.832  10.346 -0.3921  0.1768 -0.0427
  116OSM    O1312126   3.621   6.858  10.421 -0.0839 -0.8923  0.0154
  116OSM    O1412127   3.859   6.826  10.429 -0.6064 -0.0723 -0.3599
  116OSM    O1112128   3.754   6.940  10.231 -0.2461  0.3575 -0.3473
  116OSM    O1212129   3.725   6.697  10.264 -0.1766 -0.7486  0.0513
  116OSM    C1S12130   3.850   6.919  10.120  0.5369 -0.4910  0.1685
  116OSM    H1S12131   3.853   6.813  10.086 -1.4342 -0.1319 -1.3374
  116OSM    H1T12132   3.953   6.941  10.156  0.3707 -2.2692  1.8812
  116OSM     NF12133   3.896   6.950   9.876 -0.0682  0.1971  0.5877
  116OSM    HNF12134   3.985   6.993   9.863 -0.0216 -0.3111 -0.9576
  116OSM    C2S12135   3.820   7.003   9.990  1.6265  0.3534 -0.2291
  116OSM    H2S12136   3.716   6.978   9.957  1.4770  2.7558 -1.8136
  116OSM    C3S12137   3.825   7.155  10.012  0.8152 -0.5113 -0.6050
  116OSM    H3S12138   3.930   7.172  10.043 -0.8780  3.0673  4.6255
  116OSM     O312139   3.737   7.217  10.113  0.1860  0.0732  0.4929
  116OSM    HO312140   3.708   7.138  10.159  0.0652 -0.1522  0.0397
  116OSM    C4S12141   3.805   7.232   9.877 -0.3191  0.2986 -0.0907
  116OSM    H4S12142   3.710   7.228   9.822 -0.1429  2.5785 -0.6682
  116OSM    C5S12143   3.889   7.314   9.814  0.5787  0.1086  0.1393
  116OSM    H5S12144   3.979   7.352   9.865 -0.4460  1.2609  1.1668
  116OSM    C6S12145   3.836   7.402   9.703  0.9717 -0.3709 -0.2428
  116OSM    H6S12146   3.800   7.498   9.745 -0.2081 -1.4557  1.3737
  116OSM    H6T12147   3.745   7.359   9.656  0.0504 -0.3080  1.4126
  116OSM    C7S12148   3.950   7.413   9.596  0.0481  0.0871  0.8477
  116OSM    H7S12149   3.973   7.308   9.569  1.5784  0.3245  1.1319
  116OSM    H7T12150   4.044   7.461   9.629  0.3277  0.7227 -0.7898
  116OSM    C8S12151   3.900   7.477   9.462  0.0915 -0.5560 -0.1989
  116OSM    H8S12152   3.991   7.490   9.401 -0.0410 -0.4729 -0.3807
  116OSM    H8T12153   3.864   7.581   9.476  0.1215 -0.1239 -2.8995
  116OSM    C9S12154   3.799   7.390   9.378  0.3393  0.6392 -0.5201
  116OSM    H9S12155   3.699   7.377   9.425 -0.5553  0.9628 -2.2434
  116OSM    H9T12156   3.848   7.292   9.361 -1.2934 -0.6775  1.8199
  116OSM   C10S12157   3.768   7.463   9.244  0.0388 -0.5614  0.1121
  116OSM   H10S12158   3.863   7.496   9.198 -0.8908  1.6475 -0.3676
  116OSM   H10T12159   3.700   7.546   9.273 -2.1723 -2.1273 -0.3600
  116OSM   C11S12160   3.680   7.383   9.144  0.5202 -0.5763 -0.2629
  116OSM   H11S12161   3.591   7.345   9.198  0.3553 -0.8765 -0.7360
  116OSM   H11T12162   3.737   7.296   9.104 -0.9028 -1.6488 -0.0474
  116OSM   C12S12163   3.621   7.473   9.035  0.8659 -0.0757  0.1748
  116OSM   H12S12164   3.700   7.542   8.998 -1.8196  3.3459  0.3504
  116OSM   H12T12165   3.551   7.543   9.085  0.4209  1.3221 -2.2460
  116OSM   C13S12166   3.543   7.396   8.928 -0.5429 -0.0499  0.7000
  116OSM   H13S12167   3.489   7.467   8.862 -1.0103 -0.5570  0.5283
  116OSM   H13T12168   3.452   7.341   8.961 -0.4623 -1.7734 -1.7630
  116OSM   C14S12169   3.632   7.303   8.854 -0.3666  0.1819  0.5410
  116OSM   H14S12170   3.668   7.219   8.916  2.0763  0.9950  0.3536
  116OSM   H14T12171   3.720   7.358   8.812 -2.6620  2.4821 -1.6436
  116OSM   C15S12172   3.553   7.235   8.738  0.1195  0.0096 -0.2691
  116OSM   H15S12173   3.462   7.194   8.786  0.4496  0.9037  1.1920
  116OSM   H15T12174   3.616   7.152   8.700 -1.5389 -2.3370  1.7905
  116OSM   C16S12175   3.517   7.326   8.621  0.0685  0.1123 -0.3304
  116OSM   H16S12176   3.603   7.394   8.608 -2.7265  3.8569 -0.9648
  116OSM   H16T12177   3.429   7.387   8.651  0.0888 -0.1270  0.2308
  116OSM   C17S12178   3.476   7.259   8.491  0.6876 -0.5532  0.5007
  116OSM   H17S12179   3.560   7.196   8.453  2.3049  2.0140 -0.4058
  116OSM   H17T12180   3.471   7.337   8.412 -1.1563  0.8824  1.9538
  116OSM   C18S12181   3.348   7.177   8.511  0.0539 -0.4687  0.3112
  116OSM   H18S12182   3.255   7.227   8.546  0.8683  0.8449  0.6789
  116OSM   H18T12183   3.359   7.085   8.573  1.4783  0.3551  1.3400
  116OSM   H18U12184   3.326   7.139   8.409 -0.2091 -1.3445  0.6841
  116OSM    C1F12185   3.882   6.825   9.825  0.1941  0.4407 -0.3088
  116OSM     OF12186   3.781   6.761   9.845  0.7834 -0.2923 -0.1183
  116OSM    C2F12187   3.998   6.770   9.752  0.6398 -0.8391 -0.3892
  116OSM    H2F12188   4.052   6.712   9.829 -0.0640 -1.1763 -0.1373
  116OSM    H2G12189   4.067   6.852   9.723 -0.2527  0.9284  2.0539
  116OSM    C3F12190   3.966   6.675   9.640 -0.6510  0.0017 -0.1759
  116OSM    H3F12191   3.920   6.580   9.674  0.9557 -0.7004  0.1236
  116OSM    H3G12192   4.063   6.635   9.601  0.7320  1.0244  2.0421
  116OSM    C4F12193   3.889   6.741   9.521 -0.0889  0.1894 -0.1188
  116OSM    H4F12194   3.940   6.834   9.488  1.3751 -0.4376  0.2652
  116OSM    H4G12195   3.785   6.762   9.553 -0.2288 -0.3429 -0.2114
  116OSM    C5F12196   3.889   6.649   9.396 -0.0069 -0.8640 -0.1043
  116OSM    H5F12197   3.866   6.543   9.423  0.1455 -0.8633  0.0321
  116OSM    H5G12198   3.990   6.646   9.349 -0.1215 -0.5547 -0.3641
  116OSM    C6F12199   3.788   6.696   9.289 -0.3990 -0.4024 -0.3928
  116OSM    H6F12200   3.836   6.775   9.228  0.9492 -1.0554 -0.2274
  116OSM    H6G12201   3.703   6.741   9.344  0.6027 -0.3178  1.1514
  116OSM    C7F12202   3.742   6.573   9.200  0.4554  0.1027  0.4594
  116OSM    H7F12203   3.705   6.499   9.273 -1.9273 -0.1864 -0.9384
  116OSM    H7G12204   3.826   6.541   9.135  0.4459  0.2795  0.3581
  116OSM    C8F12205   3.626   6.608   9.101  0.0057  0.0338 -0.0624
  116OSM    H8F12206   3.674   6.673   9.024 -1.0727 -1.2579 -1.9015
  116OSM    H8G12207   3.544   6.660   9.154  0.9918  1.4777  0.0978
  116OSM    C9F12208   3.571   6.481   9.034 -0.2889 -0.1307  0.3703
  116OSM    H9F12209   3.507   6.429   9.106  0.6608 -0.7486  0.7957
  116OSM   C10F12210   3.619   6.422   8.916 -0.3665 -0.5137 -0.1195
  116OSM   H10F12211   3.574   6.331   8.874  0.1278  0.5737 -3.2495
  116OSM   C11F12212   3.725   6.477   8.827 -0.3281 -0.0890  0.6311
  116OSM   H11F12213   3.808   6.404   8.822  0.8095  1.1510  0.7745
  116OSM   H11G12214   3.773   6.570   8.865 -2.0401  2.2206 -2.4351
  116OSM   C12F12215   3.680   6.483   8.676 -0.0808 -0.2397 -0.4385
  116OSM   H12F12216   3.759   6.521   8.609  0.2913 -1.7531 -0.8988
  116OSM   H12G12217   3.585   6.542   8.675  0.6361  1.0080  0.7541
  116OSM   C13F12218   3.644   6.349   8.613 -0.8267  0.6698 -0.3218
  116OSM   H13F12219   3.550   6.310   8.656  0.2763 -1.8650 -0.0313
  116OSM   H13G12220   3.717   6.280   8.661 -1.1531  1.8505  2.0399
  116OSM   C14F12221   3.649   6.356   8.462 -0.1374  0.8590  0.4881
  116OSM   H14F12222   3.751   6.373   8.420 -0.3227 -1.7158 -1.1935
  116OSM   H14G12223   3.582   6.429   8.413 -0.7324  1.2356  1.8215
  116OSM   C15F12224   3.609   6.216   8.395 -0.6512  0.0950  0.0798
  116OSM   H15F12225   3.501   6.193   8.392 -0.2675 -2.0184 -2.8015
  116OSM   H15G12226   3.647   6.138   8.465 -2.8165  0.0839  1.3153
  116OSM   C16F12227   3.655   6.196   8.252  0.8047 -0.3426  0.5530
  116OSM   H16F12228   3.681   6.090   8.232  0.1239 -0.3309 -0.4930
  116OSM   H16G12229   3.754   6.242   8.232  0.9522 -0.9402 -0.1215
  116OSM   C17F12230   3.558   6.244   8.142 -0.2058 -1.0878 -0.5902
  116OSM   H17F12231   3.466   6.184   8.157  0.8541 -1.8903  4.0019
  116OSM   H17G12232   3.599   6.211   8.044  1.8407 -3.0652  0.8451
  116OSM   C18F12233   3.527   6.389   8.136  0.5010  0.4200 -0.7047
  116OSM   H18F12234   3.477   6.427   8.044 -1.7870  0.5931  0.5406
  116OSM   H18G12235   3.622   6.448   8.138 -0.6146  2.2645  0.9777
  116OSM   H18H12236   3.465   6.418   8.223  1.7937 -0.8512  0.7108
  117OSM      N12237   6.816   6.403  10.592 -0.1451  0.2195  0.0753
  117OSM    C1512238   6.835   6.258  10.585  0.5762  0.5273  0.3232
  117OSM   H15A12239   6.908   6.244  10.507 -0.5694 -0.2893 -0.6235
  117OSM   H15B12240   6.750   6.202  10.550  2.5311 -2.4030 -0.0349
  117OSM   H15C12241   6.877   6.215  10.675  2.7049  1.5790 -0.1038
  117OSM    C1412242   6.715   6.423  10.700 -0.9684 -0.1148 -0.4038
  117OSM   H14A12243   6.668   6.520  10.702 -0.4675  0.1456 -0.7359
  117OSM   H14B12244   6.752   6.392  10.797  2.2604  2.7194 -0.5460
  117OSM   H14C12245   6.634   6.355  10.678 -2.2536  1.5171 -0.9824
  117OSM    C1312246   6.943   6.476  10.612  0.6291  0.1405  0.0784
  117OSM   H13A12247   6.999   6.482  10.520  1.1428 -1.0517  0.3017
  117OSM   H13B12248   7.005   6.433  10.689  0.3573  0.6858  0.6166
  117OSM   H13C12249   6.920   6.578  10.640 -0.1023 -0.2583  0.9787
  117OSM    C1212250   6.751   6.447  10.458  0.0729  0.1921  0.0306
  117OSM   H12A12251   6.830   6.429  10.386 -0.1300  2.5070 -0.8775
  117OSM   H12B12252   6.739   6.555  10.459  1.1502  0.3491 -1.3381
  117OSM    C1112253   6.612   6.384  10.413 -0.2427  0.3690 -0.0636
  117OSM   H11A12254   6.626   6.275  10.395  1.6018  0.3329  1.3061
  117OSM   H11B12255   6.581   6.441  10.323 -1.5459  0.3317  0.3329
  117OSM      P12256   6.387   6.324  10.525  0.2564  0.0363 -0.0288
  117OSM    O1312257   6.413   6.182  10.497 -0.1530 -0.3148 -0.9592
  117OSM    O1412258   6.313   6.367  10.650  0.3332  0.4430 -0.6813
  117OSM    O1112259   6.292   6.381  10.414  0.1684  0.3798 -1.1143
  117OSM    O1212260   6.515   6.410  10.517 -0.4371  0.2722 -0.3178
  117OSM    C1S12261   6.280   6.518  10.393 -0.2926 -0.5113 -0.0218
  117OSM    H1S12262   6.367   6.582  10.421 -1.7659  1.6790 -0.1667
  117OSM    H1T12263   6.191   6.545  10.454 -0.2279 -0.3442 -0.0017
  117OSM     NF12264   6.256   6.682  10.212 -0.4722 -0.7965 -0.0398
  117OSM    HNF12265   6.172   6.730  10.191  0.5687  0.5491 -1.2827
  117OSM    C2S12266   6.250   6.545  10.243  0.9624  0.5492  0.0598
  117OSM    H2S12267   6.326   6.501  10.175  1.1536 -0.0318  0.6440
  117OSM    C3S12268   6.111   6.489  10.206  0.1372  0.4030 -0.0291
  117OSM    H3S12269   6.028   6.531  10.266  0.2671 -0.2800  0.6525
  117OSM     O312270   6.090   6.350  10.234 -0.0129  0.1062 -0.0150
  117OSM    HO312271   6.172   6.322  10.276  0.4904 -0.8551 -1.5411
  117OSM    C4S12272   6.063   6.519  10.062 -0.7579  0.4155  0.0995
  117OSM    H4S12273   5.973   6.583  10.060 -0.3971  0.9470  0.5444
  117OSM    C5S12274   6.091   6.449   9.951  0.1575  0.1066 -0.2494
  117OSM    H5S12275   6.154   6.359   9.959 -2.0670 -1.4700  0.5246
  117OSM    C6S12276   6.027   6.459   9.818 -0.4303 -0.2204  0.3676
  117OSM    H6S12277   5.931   6.516   9.818  0.2539  0.9765  0.5586
  117OSM    H6T12278   6.002   6.352   9.799  2.7238 -1.0296  0.2167
  117OSM    C7S12279   6.121   6.494   9.696  0.3963  0.3029  0.1933
  117OSM    H7S12280   6.208   6.427   9.714  0.5835  0.4569 -0.1176
  117OSM    H7T12281   6.163   6.597   9.698 -0.0536  0.6056 -2.3422
  117OSM    C8S12282   6.053   6.482   9.555 -0.5534 -0.6662 -0.7836
  117OSM    H8S12283   5.999   6.385   9.559 -0.5161 -0.6818  2.4237
  117OSM    H8T12284   6.134   6.479   9.480 -0.9061 -2.1384 -1.1241
  117OSM    C9S12285   5.943   6.584   9.519  0.4922  0.1059 -0.1935
  117OSM    H9S12286   5.971   6.682   9.562 -0.0255  0.9869 -1.7647
  117OSM    H9T12287   5.851   6.552   9.571 -1.1454  2.8195 -1.2227
  117OSM   C10S12288   5.926   6.572   9.372 -0.6347 -1.5303  0.5495
  117OSM   H10S12289   5.906   6.470   9.332 -2.6835 -0.1148 -2.4718
  117OSM   H10T12290   6.027   6.587   9.330  0.1055 -1.0903  2.4034
  117OSM   C11S12291   5.835   6.670   9.301  0.3609 -0.3646  0.0044
  117OSM   H11S12292   5.885   6.769   9.291 -1.2072  0.4608  0.0000
  117OSM   H11T12293   5.748   6.695   9.365 -0.1189  0.3411 -0.8992
  117OSM   C12S12294   5.803   6.618   9.162 -0.1726 -0.1114 -0.5124
  117OSM   H12S12295   5.747   6.525   9.180  0.4283 -0.3458  0.2010
  117OSM   H12T12296   5.906   6.587   9.132 -0.2969  0.4197 -1.5468
  117OSM   C13S12297   5.742   6.713   9.063  0.7400  0.4724  0.3000
  117OSM   H13S12298   5.793   6.811   9.070 -0.9500  1.2770  2.8059
  117OSM   H13T12299   5.639   6.742   9.094  1.7202  3.4182  1.0988
  117OSM   C14S12300   5.735   6.652   8.922 -0.0698 -0.1153  0.0804
  117OSM   H14S12301   5.680   6.556   8.936  0.4442 -0.7756 -2.1424
  117OSM   H14T12302   5.840   6.627   8.896  0.1637 -1.5618  2.1342
  117OSM   C15S12303   5.669   6.739   8.816  0.3127  0.5185  0.0521
  117OSM   H15S12304   5.721   6.837   8.809  0.5210  0.2592 -4.1021
  117OSM   H15T12305   5.562   6.757   8.839  0.0691 -1.9695  1.2353
  117OSM   C16S12306   5.674   6.679   8.681 -0.1250  0.5658  0.3189
  117OSM   H16S12307   5.587   6.610   8.678 -1.4448  2.0095  2.3150
  117OSM   H16T12308   5.768   6.625   8.657 -1.1056 -0.7230 -0.7372
  117OSM   C17S12309   5.651   6.772   8.563  0.2639  0.0602 -0.1251
  117OSM   H17S12310   5.731   6.849   8.559 -1.3514  1.8452  0.4257
  117OSM   H17T12311   5.558   6.828   8.585 -0.1798 -0.7033 -0.0160
  117OSM   C18S12312   5.646   6.703   8.428 -0.1935 -0.1850 -0.5357
  117OSM   H18S12313   5.647   6.784   8.351 -1.1501  0.2264 -0.1379
  117OSM   H18T12314   5.558   6.637   8.417 -0.6953  0.0994  1.4428
  117OSM   H18U12315   5.736   6.641   8.410  0.0514 -0.7733  2.2239
  117OSM    C1F12316   6.367   6.759  10.205 -0.1407  0.5324  0.1867
  117OSM     OF12317   6.473   6.711  10.239 -0.8433  0.7152 -0.2189
  117OSM    C2F12318   6.356   6.897  10.153  0.2461  0.2557  0.1441
  117OSM    H2F12319   6.398   6.969  10.227  2.4372  0.1142 -0.8844
  117OSM    H2G12320   6.250   6.918  10.131  0.2405 -1.5813 -1.9387
  117OSM    C3F12321   6.443   6.913  10.030 -0.3443 -0.0750 -0.1763
  117OSM    H3F12322   6.550   6.890  10.048 -0.4168  0.4049  0.9558
  117OSM    H3G12323   6.431   7.018   9.998 -2.3677  0.1377  1.0903
  117OSM    C4F12324   6.404   6.819   9.913 -0.1778 -0.1807  0.4085
  117OSM    H4F12325   6.305   6.857   9.878 -0.4428 -1.1215  0.1082
  117OSM    H4G12326   6.396   6.711   9.935 -1.0488 -0.1175  0.4731
  117OSM    C5F12327   6.493   6.846   9.793 -0.3282  0.1192  0.4803
  117OSM    H5F12328   6.596   6.812   9.820 -0.5866 -1.4574 -0.4013
  117OSM    H5G12329   6.495   6.957   9.782 -2.8474  0.4279  2.3756
  117OSM    C6F12330   6.445   6.780   9.667 -0.3357  0.0448  0.0332
  117OSM    H6F12331   6.359   6.834   9.622 -0.2468  2.3720  2.3776
  117OSM    H6G12332   6.404   6.683   9.702 -2.7093  1.5629  1.7401
  117OSM    C7F12333   6.556   6.764   9.572 -0.0425  0.3315  0.2672
  117OSM    H7F12334   6.639   6.718   9.629  0.2714  1.4804  0.7831
  117OSM    H7G12335   6.600   6.863   9.546 -1.8845  1.7147  2.0563
  117OSM    C8F12336   6.541   6.679   9.450 -0.7246 -0.0843  0.9578
  117OSM    H8F12337   6.515   6.574   9.475  1.2641 -1.0266 -0.6343
  117OSM    H8G12338   6.639   6.672   9.398 -1.2659 -0.1174 -0.0949
  117OSM    C9F12339   6.438   6.734   9.355 -0.4525 -0.4908 -0.5566
  117OSM    H9F12340   6.354   6.791   9.398  0.6151  0.2910  0.5847
  117OSM   C10F12341   6.434   6.705   9.224  0.4871  0.6327 -0.1238
  117OSM   H10F12342   6.355   6.756   9.167 -2.9875 -1.6043  2.2952
  117OSM   C11F12343   6.524   6.608   9.144 -0.7037 -0.7071  0.0635
  117OSM   H11F12344   6.588   6.554   9.217  1.3191  1.2255 -0.1747
  117OSM   H11G12345   6.594   6.672   9.087 -0.8115  0.2921  1.0136
  117OSM   C12F12346   6.452   6.508   9.048  0.2753 -0.0304  0.8211
  117OSM   H12F12347   6.388   6.432   9.098 -0.7151  0.0463 -0.2733
  117OSM   H12G12348   6.534   6.461   8.990 -0.4309 -1.1451  0.7037
  117OSM   C13F12349   6.356   6.570   8.951  0.0991 -0.6987  0.0275
  117OSM   H13F12350   6.412   6.654   8.907  1.1585 -1.8786 -0.9633
  117OSM   H13G12351   6.263   6.612   8.996 -1.0879 -1.4360 -1.6373
  117OSM   C14F12352   6.311   6.473   8.837 -0.1151 -0.2161  0.3345
  117OSM   H14F12353   6.267   6.385   8.889  1.8774 -2.1400 -1.0591
  117OSM   H14G12354   6.402   6.442   8.780 -1.1551  1.1486 -2.2412
  117OSM   C15F12355   6.220   6.539   8.730  0.3459  0.5110 -0.1206
  117OSM   H15F12356   6.267   6.634   8.697  0.2233  1.0340  1.1332
  117OSM   H15G12357   6.125   6.561   8.784  0.3205  0.3868 -0.1150
  117OSM   C16F12358   6.189   6.456   8.605  0.4036 -0.0643 -0.2257
  117OSM   H16F12359   6.282   6.447   8.546  0.7561  0.7342  0.1875
  117OSM   H16G12360   6.114   6.517   8.550  1.1306  1.1889  0.1245
  117OSM   C17F12361   6.126   6.321   8.642  0.6806 -0.4083 -0.9044
  117OSM   H17F12362   6.204   6.269   8.702  0.4963  0.2074 -0.1140
  117OSM   H17G12363   6.100   6.275   8.544  0.7266  2.9485 -2.6356
  117OSM   C18F12364   5.993   6.333   8.712 -0.8789 -0.1954 -0.7967
  117OSM   H18F12365   5.944   6.233   8.706 -1.5738  0.0010  1.0851
  117OSM   H18G12366   5.916   6.406   8.677 -0.6509  0.2152 -0.4400
  117OSM   H18H12367   6.007   6.345   8.821 -0.9251 -0.4485 -0.7618
  118OSM      N12368   2.006   1.026  10.439  0.4896  1.4115 -0.1715
  118OSM    C1512369   1.922   1.153  10.439  0.7372  0.5944 -0.5519
  118OSM   H15A12370   1.878   1.168  10.537  1.1351  0.9495 -0.4249
  118OSM   H15B12371   1.839   1.133  10.374  0.0960  0.7873  0.1880
  118OSM   H15C12372   1.981   1.238  10.408  0.9834  0.4475 -0.4934
  118OSM    C1412373   2.126   1.045  10.522 -0.2988 -0.5604 -0.1677
  118OSM   H14A12374   2.199   1.113  10.479  1.4715 -2.0389  0.3776
  118OSM   H14B12375   2.176   0.954  10.552 -0.9084 -1.4555 -1.7334
  118OSM   H14C12376   2.091   1.096  10.610  0.7056  0.9730 -0.6158
  118OSM    C1312377   1.919   0.925  10.504  0.4470 -0.0782  0.4923
  118OSM   H13A12378   1.931   0.934  10.611  0.0055 -0.8662  0.6137
  118OSM   H13B12379   1.953   0.828  10.471 -0.5827 -0.5956  0.9009
  118OSM   H13C12380   1.814   0.938  10.484  0.7958 -0.4578 -1.8503
  118OSM    C1212381   2.029   0.984  10.293 -1.1680  0.7003 -0.3679
  118OSM   H12A12382   1.935   0.985  10.240 -0.0126  3.7560 -2.6675
  118OSM   H12B12383   2.069   0.884  10.285  0.2563  1.1995  0.1544
  118OSM    C1112384   2.122   1.077  10.211  0.3347  0.1111 -0.2741
  118OSM   H11A12385   2.065   1.172  10.209  0.4167  0.1653  0.0931
  118OSM   H11B12386   2.129   1.043  10.105  0.8147 -0.3489 -0.1023
  118OSM      P12387   2.341   1.209  10.243  0.1560 -0.0356  0.0439
  118OSM    O1312388   2.270   1.330  10.290 -0.0960  0.4706 -0.3033
  118OSM    O1412389   2.475   1.173  10.295 -0.2020 -0.4225  1.0941
  118OSM    O1112390   2.340   1.217  10.089 -0.4361  0.6605  0.1041
  118OSM    O1212391   2.250   1.088  10.269  0.2847  0.6000  0.1900
  118OSM    C1S12392   2.410   1.116  10.012 -0.1960  0.1085  0.7670
  118OSM    H1S12393   2.357   1.019  10.003  0.1804  0.0242 -0.8800
  118OSM    H1T12394   2.506   1.076  10.050 -1.1838 -2.8714  0.3995
  118OSM     NF12395   2.513   1.065   9.795  0.2549  0.0751 -0.7693
  118OSM    HNF12396   2.612   1.077   9.798  0.3687  0.0526 -2.8731
  118OSM    C2S12397   2.441   1.164   9.864  0.8976  0.3172 -0.7725
  118OSM    H2S12398   2.346   1.178   9.809 -0.1764 -0.9265  0.6773
  118OSM    C3S12399   2.523   1.299   9.873 -0.2636  0.0079 -0.2158
  118OSM    H3S12400   2.615   1.277   9.931 -0.4985 -1.2308 -0.2864
  118OSM     O312401   2.457   1.416   9.929  0.2998 -0.1844  0.3120
  118OSM    HO312402   2.369   1.398   9.963 -0.7352  0.6298 -1.7658
  118OSM    C4S12403   2.571   1.338   9.735 -0.7594 -0.7021  0.4391
  118OSM    H4S12404   2.496   1.336   9.654 -0.7207 -0.1840  0.3855
  118OSM    C5S12405   2.701   1.367   9.695  0.5357 -0.0993  0.4829
  118OSM    H5S12406   2.795   1.361   9.750  1.6161  0.8096 -1.1585
  118OSM    C6S12407   2.740   1.404   9.549 -0.1091 -0.2091 -0.2542
  118OSM    H6S12408   2.823   1.336   9.521  0.3912 -0.1464  1.0086
  118OSM    H6T12409   2.785   1.505   9.546 -2.1453  0.7283 -2.4436
  118OSM    C7S12410   2.635   1.375   9.450 -0.4024 -0.5361 -0.4365
  118OSM    H7S12411   2.547   1.442   9.459 -0.4343 -0.6473  0.0898
  118OSM    H7T12412   2.605   1.269   9.444  2.4930 -1.6004  1.7391
  118OSM    C8S12413   2.680   1.422   9.310 -0.2049  0.0098  1.0742
  118OSM    H8S12414   2.773   1.364   9.294 -0.6876 -0.9167  1.5683
  118OSM    H8T12415   2.692   1.532   9.294 -0.2127 -0.3715 -2.2607
  118OSM    C9S12416   2.576   1.386   9.200 -0.1091  0.1830 -0.0368
  118OSM    H9S12417   2.483   1.442   9.219  0.9191  2.0677 -0.3263
  118OSM    H9T12418   2.561   1.276   9.207  0.4176  0.0381 -0.9648
  118OSM   C10S12419   2.620   1.416   9.058 -0.0670  0.0262  0.6943
  118OSM   H10S12420   2.700   1.347   9.022  3.1235  2.6469  2.1375
  118OSM   H10T12421   2.673   1.514   9.066  2.3038 -1.0529 -0.6691
  118OSM   C11S12422   2.501   1.426   8.956 -0.3414 -0.3228 -0.2865
  118OSM   H11S12423   2.444   1.519   8.980 -0.9587 -0.5645 -0.7956
  118OSM   H11T12424   2.428   1.348   8.988  1.2968 -0.7576  2.7829
  118OSM   C12S12425   2.532   1.397   8.809 -0.1864  0.2111  0.1478
  118OSM   H12S12426   2.436   1.381   8.755 -0.3889  0.9536  0.2880
  118OSM   H12T12427   2.585   1.299   8.800  1.5494  1.1029  0.2338
  118OSM   C13S12428   2.620   1.495   8.735 -0.2906  0.3806  0.8181
  118OSM   H13S12429   2.707   1.526   8.796 -0.9163  1.3198  1.2638
  118OSM   H13T12430   2.565   1.592   8.730  1.8046  1.6617  1.3165
  118OSM   C14S12431   2.655   1.440   8.586  0.5206  0.2863 -0.1552
  118OSM   H14S12432   2.671   1.331   8.598 -0.5820  0.1966  0.6769
  118OSM   H14T12433   2.748   1.489   8.549  2.3200 -1.9851  1.1271
  118OSM   C15S12434   2.547   1.465   8.476  0.4073 -1.0464 -0.6356
  118OSM   H15S12435   2.521   1.573   8.473 -0.7712 -1.1838  2.1095
  118OSM   H15T12436   2.458   1.403   8.499 -1.2250  1.0323 -1.1124
  118OSM   C16S12437   2.599   1.433   8.339 -0.0320  0.2489  0.9755
  118OSM   H16S12438   2.622   1.324   8.339  1.9071  0.5474 -2.2340
  118OSM   H16T12439   2.696   1.483   8.322 -0.9441  1.9038  0.3495
  118OSM   C17S12440   2.520   1.465   8.211  0.0984 -0.2807 -0.1869
  118OSM   H17S12441   2.586   1.447   8.124  0.0072  0.4758 -0.4189
  118OSM   H17T12442   2.482   1.569   8.206  0.7938  0.2904  3.4809
  118OSM   C18S12443   2.394   1.376   8.187  0.1112  0.1700  0.4713
  118OSM   H18S12444   2.367   1.383   8.080 -0.0997 -0.2419  0.5001
  118OSM   H18T12445   2.302   1.398   8.245 -0.5881  0.3892 -0.7028
  118OSM   H18U12446   2.418   1.269   8.203  0.7225 -0.3906 -3.2841
  118OSM    C1F12447   2.462   0.940   9.764 -0.5820 -0.1540 -0.2402
  118OSM     OF12448   2.339   0.924   9.760  0.2527  0.2355  0.0186
  118OSM    C2F12449   2.556   0.824   9.744  0.2011  0.3773  0.0211
  118OSM    H2F12450   2.511   0.731   9.785  0.2409  0.2044 -0.3198
  118OSM    H2G12451   2.649   0.841   9.803  0.4779 -0.9417 -0.0020
  118OSM    C3F12452   2.578   0.782   9.591  0.3522  0.3002 -0.2724
  118OSM    H3F12453   2.477   0.750   9.556 -0.9354 -0.1461  3.4460
  118OSM    H3G12454   2.638   0.688   9.590 -0.1859 -0.0448 -0.5553
  118OSM    C4F12455   2.655   0.879   9.509  0.5377 -0.1697  0.0899
  118OSM    H4F12456   2.751   0.905   9.558  1.0997  0.2054 -1.1559
  118OSM    H4G12457   2.601   0.974   9.491 -0.6444 -1.1322 -1.7570
  118OSM    C5F12458   2.694   0.816   9.369  0.8499 -0.2376  0.6524
  118OSM    H5F12459   2.615   0.746   9.334  0.1914  0.6663  0.3123
  118OSM    H5G12460   2.779   0.744   9.370 -0.9855 -2.5763 -1.0602
  118OSM    C6F12461   2.738   0.912   9.261 -0.0901 -0.7815 -0.1167
  118OSM    H6F12462   2.843   0.934   9.287  0.0340 -0.0128 -1.1719
  118OSM    H6G12463   2.686   1.010   9.267 -1.6081 -1.5116 -0.6186
  118OSM    C7F12464   2.709   0.865   9.120  0.5851 -0.5680  0.0677
  118OSM    H7F12465   2.601   0.883   9.100  0.9346  1.9030  0.0941
  118OSM    H7G12466   2.720   0.754   9.120 -0.0348 -0.6318  0.1562
  118OSM    C8F12467   2.793   0.944   9.018  0.2227 -0.6088  0.2410
  118OSM    H8F12468   2.897   0.949   9.055 -0.5935 -0.1228  2.6891
  118OSM    H8G12469   2.763   1.050   9.009  1.4712 -0.2320  0.3274
  118OSM    C9F12470   2.792   0.868   8.882 -0.4240 -0.4676 -0.0919
  118OSM    H9F12471   2.745   0.768   8.882 -0.5940 -0.3898  0.0303
  118OSM   C10F12472   2.825   0.913   8.761 -0.9511 -0.6253 -0.7709
  118OSM   H10F12473   2.814   0.838   8.681 -0.1684 -0.0003 -1.4856
  118OSM   C11F12474   2.883   1.050   8.739 -0.4326  0.9065  0.1334
  118OSM   H11F12475   2.961   1.060   8.817  2.5214 -0.9387 -2.3864
  118OSM   H11G12476   2.815   1.136   8.759 -1.9531 -0.7186  2.5105
  118OSM   C12F12477   2.956   1.057   8.604  0.0931  0.0229  0.8097
  118OSM   H12F12478   2.882   1.037   8.524  0.9614 -2.7812  0.6059
  118OSM   H12G12479   3.028   0.974   8.591 -0.8508 -0.8863  1.1779
  118OSM   C13F12480   3.011   1.197   8.583 -0.3539 -0.4434 -0.3569
  118OSM   H13F12481   3.067   1.230   8.673  1.0577 -2.8309 -0.2689
  118OSM   H13G12482   2.932   1.271   8.560  0.2690 -0.1875 -1.8217
  118OSM   C14F12483   3.116   1.206   8.466  0.0689  0.0920 -0.5882
  118OSM   H14F12484   3.181   1.116   8.456 -0.0326  0.0876 -1.2128
  118OSM   H14G12485   3.187   1.286   8.496 -1.0117  1.7007 -2.1500
  118OSM   C15F12486   3.056   1.243   8.332  0.2941 -0.1273  0.3654
  118OSM   H15F12487   2.963   1.304   8.338 -0.8297 -1.4917 -1.8555
  118OSM   H15G12488   2.999   1.156   8.293 -0.3284  0.4696 -0.0881
  118OSM   C16F12489   3.147   1.295   8.222  0.1359 -0.4342  0.7596
  118OSM   H16F12490   3.218   1.214   8.194  0.5409  0.6222 -1.5096
  118OSM   H16G12491   3.199   1.388   8.252  2.3063 -1.2632 -0.1675
  118OSM   C17F12492   3.084   1.315   8.086 -0.1004  0.1082 -0.0696
  118OSM   H17F12493   3.007   1.396   8.088  0.3243  0.4959  0.6458
  118OSM   H17G12494   3.019   1.227   8.065 -4.1053  2.3492  1.6892
  118OSM   C18F12495   3.183   1.331   7.977 -0.3008  0.4889 -0.0465
  118OSM   H18F12496   3.265   1.402   8.000 -0.9889  1.6733 -1.1677
  118OSM   H18G12497   3.124   1.369   7.891 -1.3804  2.4239  1.4887
  118OSM   H18H12498   3.234   1.234   7.956  0.2880  0.5899  0.8764
  119OSM      N12499   2.472   2.825  10.607 -0.0674  0.1237  0.2635
  119OSM    C1512500   2.576   2.922  10.577 -0.7247 -0.8744 -0.1698
  119OSM   H15A12501   2.665   2.880  10.532  0.3247  0.0817  0.9559
  119OSM   H15B12502   2.607   2.977  10.665 -2.5520  1.4760 -0.8887
  119OSM   H15C12503   2.540   3.003  10.516 -0.9203 -1.0867 -0.3394
  119OSM    C1412504   2.372   2.880  10.703 -0.1409  0.3982 -0.3931
  119OSM   H14A12505   2.416   2.898  10.801  0.1430 -0.3964 -0.3717
  119OSM   H14B12506   2.294   2.807  10.715  0.8428 -0.7826 -1.0462
  119OSM   H14C12507   2.336   2.975  10.665  2.1466  1.2863 -0.5148
  119OSM    C1312508   2.398   2.784  10.484 -0.9928 -0.0033 -0.5732
  119OSM   H13A12509   2.465   2.718  10.432 -0.6728  0.6554 -0.9991
  119OSM   H13B12510   2.377   2.878  10.436  0.7340  2.5414  3.1225
  119OSM   H13C12511   2.310   2.724  10.505 -2.0489  1.2997 -1.1308
  119OSM    C1212512   2.533   2.706  10.682 -0.3558  0.1900 -0.0962
  119OSM   H12A12513   2.454   2.650  10.729 -0.2598  0.4337  0.3655
  119OSM   H12B12514   2.583   2.750  10.767 -2.2705  2.4180 -0.0335
  119OSM    C1112515   2.638   2.620  10.614 -0.3074 -0.1646  0.0917
  119OSM   H11A12516   2.732   2.678  10.624 -1.2606  1.5079 -0.3897
  119OSM   H11B12517   2.615   2.607  10.506  1.5723  1.6491 -0.5793
  119OSM      P12518   2.538   2.382  10.661 -0.2213 -0.0291 -0.3079
  119OSM    O1312519   2.578   2.267  10.747 -0.2473 -0.1563 -0.3352
  119OSM    O1412520   2.403   2.442  10.692  0.2191 -0.1116 -0.3781
  119OSM    O1112521   2.542   2.340  10.511 -0.1037  0.1916  0.4344
  119OSM    O1212522   2.648   2.490  10.672 -0.2381 -0.1095 -0.7151
  119OSM    C1S12523   2.426   2.349  10.425 -0.1245 -0.4972  0.4477
  119OSM    H1S12524   2.374   2.443  10.453  1.0614  1.3061 -2.8362
  119OSM    H1T12525   2.361   2.262  10.447 -0.2500 -0.0175  2.0640
  119OSM     NF12526   2.324   2.408  10.214 -0.0393 -0.7056 -0.5003
  119OSM    HNF12527   2.271   2.330  10.180 -0.9130 -0.1780 -0.3663
  119OSM    C2S12528   2.454   2.365  10.268  0.1460  0.0725  0.3178
  119OSM    H2S12529   2.524   2.450  10.251 -0.1611  0.5827  1.5275
  119OSM    C3S12530   2.513   2.222  10.210  0.0668 -0.3779 -0.0524
  119OSM    H3S12531   2.448   2.138  10.244  2.0462 -2.4044 -1.0011
  119OSM     O312532   2.639   2.184  10.271  0.2675 -0.6584  0.0966
  119OSM    HO312533   2.655   2.252  10.337  2.0733 -1.9459  1.0455
  119OSM    C4S12534   2.522   2.233  10.059 -0.1541 -0.3616 -0.5131
  119OSM    H4S12535   2.591   2.312  10.024  1.0333 -1.2375 -0.2365
  119OSM    C5S12536   2.450   2.157   9.972 -0.4080  0.1898  0.2167
  119OSM    H5S12537   2.378   2.084  10.012 -3.2192  3.1707  1.0315
  119OSM    C6S12538   2.462   2.161   9.818  0.1547  0.2304 -0.1234
  119OSM    H6S12539   2.372   2.172   9.753  0.6534 -2.2439 -1.3674
  119OSM    H6T12540   2.515   2.069   9.785 -1.5698 -0.6982 -0.4230
  119OSM    C7S12541   2.544   2.279   9.759 -0.2578  0.1273 -0.1081
  119OSM    H7S12542   2.575   2.248   9.657  0.9087  1.5425 -0.2075
  119OSM    H7T12543   2.634   2.312   9.814 -0.1348 -0.4306  0.0326
  119OSM    C8S12544   2.451   2.399   9.741 -0.1804  0.3010  0.3336
  119OSM    H8S12545   2.442   2.455   9.837  0.5432 -0.9670  1.1694
  119OSM    H8T12546   2.348   2.363   9.719 -0.6980  2.1096 -0.3532
  119OSM    C9S12547   2.504   2.498   9.639 -0.5397 -0.2286  0.3491
  119OSM    H9S12548   2.615   2.488   9.645 -0.6653 -0.9832  1.7333
  119OSM    H9T12549   2.467   2.600   9.659 -2.0805 -0.9309  1.2140
  119OSM   C10S12550   2.459   2.480   9.494 -0.1806 -0.6645  0.3597
  119OSM   H10S12551   2.349   2.467   9.500 -0.0577 -2.4548 -0.5630
  119OSM   H10T12552   2.496   2.386   9.447  1.1226  0.6581 -1.4000
  119OSM   C11S12553   2.493   2.604   9.412 -0.1276  0.4176 -0.2423
  119OSM   H11S12554   2.601   2.627   9.420  0.7694 -2.9047 -1.2057
  119OSM   H11T12555   2.426   2.683   9.453  0.0856  0.8961 -0.8023
  119OSM   C12S12556   2.468   2.568   9.267 -0.3445 -0.6242  0.4269
  119OSM   H12S12557   2.367   2.522   9.261 -0.6683  0.2486 -1.2636
  119OSM   H12T12558   2.538   2.487   9.239  1.0588  1.4060 -2.3523
  119OSM   C13S12559   2.490   2.683   9.177 -0.0337 -0.7271  0.1136
  119OSM   H13S12560   2.589   2.725   9.204 -1.1289  1.6593  0.7162
  119OSM   H13T12561   2.417   2.760   9.210 -0.8394 -0.0131 -3.0395
  119OSM   C14S12562   2.469   2.667   9.025  0.7449  0.2190 -0.1898
  119OSM   H14S12563   2.367   2.665   8.982  0.9913 -0.1363 -0.7708
  119OSM   H14T12564   2.504   2.564   9.000 -2.2614 -1.0823  0.5436
  119OSM   C15S12565   2.530   2.788   8.950  0.1991 -0.0753  1.2223
  119OSM   H15S12566   2.637   2.758   8.948  0.6710  1.4397  1.7544
  119OSM   H15T12567   2.517   2.879   9.013 -2.0183 -0.6222  1.6592
  119OSM   C16S12568   2.476   2.814   8.806 -0.0288  0.5189 -0.2094
  119OSM   H16S12569   2.372   2.853   8.810 -0.2601 -0.1429  0.4549
  119OSM   H16T12570   2.476   2.716   8.754 -0.9184 -0.7565  2.0217
  119OSM   C17S12571   2.566   2.913   8.734  0.1660 -0.3909 -0.4691
  119OSM   H17S12572   2.668   2.871   8.714 -0.1237 -0.0786 -2.9500
  119OSM   H17T12573   2.581   2.999   8.802  0.6982 -0.1839 -0.8424
  119OSM   C18S12574   2.507   2.952   8.606 -0.0222  0.6460 -0.1315
  119OSM   H18S12575   2.521   2.866   8.536  1.2155  1.3813 -0.8219
  119OSM   H18T12576   2.551   3.044   8.563  1.7027  0.1705  0.5122
  119OSM   H18U12577   2.398   2.972   8.603  0.1322  1.4244 -0.9586
  119OSM    C1F12578   2.272   2.530  10.219  0.2900  0.0871  0.8188
  119OSM     OF12579   2.344   2.618  10.246  0.2324 -0.4262  0.2323
  119OSM    C2F12580   2.125   2.539  10.187  0.1133  0.2051  0.8815
  119OSM    H2F12581   2.064   2.561  10.277 -2.3457 -1.5529 -0.2565
  119OSM    H2G12582   2.089   2.443  10.144 -1.6240  1.1975  0.0266
  119OSM    C3F12583   2.077   2.647  10.089 -0.5687  0.3980  0.3913
  119OSM    H3F12584   2.084   2.751  10.126 -1.4689  0.1638  1.2540
  119OSM    H3G12585   1.970   2.629  10.067 -0.9344  1.0655  1.5461
  119OSM    C4F12586   2.157   2.639   9.953 -0.0734  0.1687 -0.3832
  119OSM    H4F12587   2.158   2.532   9.926 -1.1015 -0.6531  2.4917
  119OSM    H4G12588   2.259   2.683   9.960 -0.6667  1.4014  0.8560
  119OSM    C5F12589   2.098   2.713   9.834  0.8218  0.3536  0.1744
  119OSM    H5F12590   2.092   2.822   9.853  0.3379 -0.1327  3.2513
  119OSM    H5G12591   1.993   2.691   9.802  0.6567  3.4817 -1.9488
  119OSM    C6F12592   2.176   2.698   9.700 -0.1613 -0.0806 -0.1157
  119OSM    H6F12593   2.186   2.592   9.668  1.7252  0.0886 -0.1977
  119OSM    H6G12594   2.280   2.736   9.714  0.5902 -1.8536 -0.5393
  119OSM    C7F12595   2.123   2.779   9.586 -0.3283  0.5369  0.2613
  119OSM    H7F12596   2.204   2.812   9.517 -0.6245 -0.8579 -0.8153
  119OSM    H7G12597   2.063   2.859   9.634  0.1368  0.4223  1.0460
  119OSM    C8F12598   2.016   2.696   9.501 -0.3617 -1.0402 -0.5728
  119OSM    H8F12599   1.962   2.772   9.442  1.1714 -0.4522 -1.2653
  119OSM    H8G12600   1.934   2.656   9.564 -3.0501  0.3578 -2.9525
  119OSM    C9F12601   2.085   2.592   9.416 -0.2715 -0.1711 -0.2094
  119OSM    H9F12602   2.173   2.542   9.461  0.4682  1.0648 -0.2464
  119OSM   C10F12603   2.067   2.575   9.282  0.2998  0.4585 -0.4807
  119OSM   H10F12604   2.130   2.502   9.231  1.7260  2.0358 -1.0690
  119OSM   C11F12605   1.971   2.655   9.195  0.2311  0.2037 -0.2508
  119OSM   H11F12606   1.954   2.757   9.236  0.4079 -0.7117  2.2332
  119OSM   H11G12607   1.871   2.608   9.178  0.6759  0.0700 -2.9669
  119OSM   C12F12608   2.047   2.662   9.064 -0.4169  0.2639  0.0633
  119OSM   H12F12609   2.155   2.685   9.072 -0.5542  1.8861 -1.8380
  119OSM   H12G12610   2.007   2.747   9.005  0.1308  0.2233 -0.3653
  119OSM   C13F12611   2.024   2.539   8.974  0.4025 -0.0561 -0.1780
  119OSM   H13F12612   1.917   2.520   8.952 -0.3779  2.0939  1.3455
  119OSM   H13G12613   2.064   2.450   9.026  3.3724  0.9589 -0.5565
  119OSM   C14F12614   2.101   2.545   8.849 -0.5380 -0.0736  0.4835
  119OSM   H14F12615   2.078   2.450   8.795  1.0802 -0.4496  0.4210
  119OSM   H14G12616   2.211   2.542   8.858 -0.4619 -2.9195 -0.3505
  119OSM   C15F12617   2.084   2.664   8.754  0.2880  0.6638 -0.0049
  119OSM   H15F12618   2.123   2.750   8.812  1.0133 -0.1385  0.7266
  119OSM   H15G12619   1.975   2.671   8.735  0.3150  1.7032  0.1779
  119OSM   C16F12620   2.157   2.643   8.621  0.3137  0.9974  0.4112
  119OSM   H16F12621   2.121   2.540   8.597  1.6611  0.1337  1.9139
  119OSM   H16G12622   2.266   2.638   8.639 -0.0097 -0.2181  2.4547
  119OSM   C17F12623   2.111   2.750   8.515 -0.0644 -0.4341 -0.3279
  119OSM   H17F12624   2.152   2.853   8.531  1.1221 -0.5934 -2.0658
  119OSM   H17G12625   2.001   2.764   8.521  0.1610  3.2549 -1.8623
  119OSM   C18F12626   2.160   2.727   8.377  1.1091 -0.4552  0.2664
  119OSM   H18F12627   2.116   2.638   8.326 -1.0080  1.0531 -0.6945
  119OSM   H18G12628   2.267   2.702   8.388  0.6705 -2.4811  0.3107
  119OSM   H18H12629   2.148   2.811   8.305  0.2233 -1.3373 -0.6522
  120OSM      N12630   1.742   5.117  10.848  0.1210  0.8274  1.1442
  120OSM    C1512631   1.805   5.136  10.986  0.4643 -0.1021  0.2764
  120OSM   H15A12632   1.757   5.084  11.067 -1.1240  2.7894  1.3193
  120OSM   H15B12633   1.786   5.239  11.009  0.0723  0.2528 -1.4857
  120OSM   H15C12634   1.913   5.134  10.978  0.5236 -1.9128  1.0166
  120OSM    C1412635   1.792   4.988  10.791  0.1255 -0.2024 -0.0831
  120OSM   H14A12636   1.739   4.909  10.841 -1.6021  1.9631  1.6992
  120OSM   H14B12637   1.899   4.980  10.809  0.0506 -1.8487 -0.2375
  120OSM   H14C12638   1.769   4.980  10.685 -1.4560 -0.0578  0.2262
  120OSM    C1312639   1.594   5.116  10.859 -0.0033 -0.0193  0.7436
  120OSM   H13A12640   1.543   5.110  10.765 -0.7607  0.2887  1.1317
  120OSM   H13B12641   1.557   5.205  10.909 -2.8914  0.0325 -1.2666
  120OSM   H13C12642   1.567   5.031  10.920 -0.1695 -0.5688 -0.0816
  120OSM    C1212643   1.790   5.225  10.747 -0.2725 -0.1752  0.0948
  120OSM   H12A12644   1.898   5.230  10.740 -0.2296  0.7137  1.0161
  120OSM   H12B12645   1.767   5.324  10.785  1.0214 -0.4499  1.6868
  120OSM    C1112646   1.738   5.212  10.602 -0.8359 -0.4674  0.4813
  120OSM   H11A12647   1.765   5.109  10.571 -0.3880  0.5053 -2.7404
  120OSM   H11B12648   1.800   5.283  10.543 -0.9719 -2.3234 -2.0651
  120OSM      P12649   1.559   5.392  10.563 -0.1622 -0.2573  0.2090
  120OSM    O1312650   1.416   5.396  10.558 -0.0104  0.8784  1.1649
  120OSM    O1412651   1.636   5.492  10.640  0.6320  0.5344 -0.0758
  120OSM    O1112652   1.602   5.403  10.410 -0.2135  0.3702 -0.2760
  120OSM    O1212653   1.600   5.240  10.600  0.4688  0.6087 -0.3869
  120OSM    C1S12654   1.602   5.295  10.322 -0.1291  0.5969 -0.4273
  120OSM    H1S12655   1.515   5.230  10.342  1.3933 -1.2249  0.6235
  120OSM    H1T12656   1.681   5.224  10.353 -0.3813  0.8851  0.9534
  120OSM     NF12657   1.578   5.242  10.079 -0.1649  0.4072 -0.3545
  120OSM    HNF12658   1.655   5.212  10.022  1.4271 -2.0600  2.7910
  120OSM    C2S12659   1.601   5.352  10.174 -0.1607 -0.2208  0.9481
  120OSM    H2S12660   1.513   5.418  10.162 -1.0611 -1.4821  0.3872
  120OSM    C3S12661   1.730   5.438  10.142 -0.0501  0.3569 -0.0988
  120OSM    H3S12662   1.809   5.361  10.124 -0.7410  0.2839 -3.4466
  120OSM     O312663   1.757   5.531  10.246  0.4642  0.0245 -0.0967
  120OSM    HO312664   1.697   5.509  10.319 -1.5194  2.7041 -0.7200
  120OSM    C4S12665   1.724   5.499   9.997  0.0076  0.0542 -0.8391
  120OSM    H4S12666   1.752   5.434   9.913 -1.2648 -0.8449 -0.5953
  120OSM    C5S12667   1.674   5.626   9.968 -0.0794 -0.3700 -0.3237
  120OSM    H5S12668   1.627   5.678  10.053 -0.0759  1.0276 -1.1593
  120OSM    C6S12669   1.653   5.695   9.836 -0.8101 -0.0373  0.3710
  120OSM    H6S12670   1.725   5.777   9.816  0.6116 -0.5518  2.8799
  120OSM    H6T12671   1.561   5.757   9.844 -1.2521 -0.7323  0.7227
  120OSM    C7S12672   1.654   5.606   9.714 -0.0706 -0.5965 -0.0759
  120OSM    H7S12673   1.573   5.530   9.721  0.1630 -0.8490 -0.0418
  120OSM    H7T12674   1.747   5.545   9.722  2.0983  2.1101 -2.6461
  120OSM    C8S12675   1.651   5.678   9.578  0.3659 -0.1115 -0.3310
  120OSM    H8S12676   1.703   5.775   9.596 -2.4706  1.9371 -2.1818
  120OSM    H8T12677   1.550   5.715   9.548  1.1066  3.5381  1.1180
  120OSM    C9S12678   1.711   5.604   9.459 -0.1015  0.0362 -0.0242
  120OSM    H9S12679   1.682   5.497   9.468  1.1419 -0.3654 -0.5081
  120OSM    H9T12680   1.822   5.618   9.461 -0.2397  1.2980 -0.7297
  120OSM   C10S12681   1.660   5.651   9.319  0.2923 -0.0603  0.1433
  120OSM   H10S12682   1.681   5.759   9.307  1.8734 -0.4218 -0.6366
  120OSM   H10T12683   1.551   5.626   9.310 -0.4261  3.0552 -0.8921
  120OSM   C11S12684   1.738   5.589   9.207 -0.3481  0.1687 -0.1011
  120OSM   H11S12685   1.718   5.480   9.220 -3.5659  0.5865 -0.5770
  120OSM   H11T12686   1.844   5.620   9.212 -0.0138 -1.0872  2.2797
  120OSM   C12S12687   1.687   5.632   9.068 -1.0771 -0.6353  0.0206
  120OSM   H12S12688   1.721   5.738   9.058 -1.4348 -0.5783 -0.6990
  120OSM   H12T12689   1.577   5.636   9.057 -1.1390  1.1186  0.8764
  120OSM   C13S12690   1.737   5.541   8.948 -0.1889 -0.8227  0.3488
  120OSM   H13S12691   1.676   5.449   8.940  0.4168 -1.1652 -0.5042
  120OSM   H13T12692   1.838   5.517   8.988 -0.1064  0.6484  1.1298
  120OSM   C14S12693   1.732   5.616   8.814  0.7567  0.2661 -0.3311
  120OSM   H14S12694   1.798   5.705   8.820  2.4852 -0.8632 -1.7787
  120OSM   H14T12695   1.624   5.632   8.797 -0.2701 -3.5105  1.6031
  120OSM   C15S12696   1.779   5.532   8.695  0.2492  0.1960 -0.1477
  120OSM   H15S12697   1.744   5.560   8.593  1.6961 -2.3592 -1.4478
  120OSM   H15T12698   1.739   5.430   8.711  0.6169  0.3014  1.6289
  120OSM   C16S12699   1.931   5.526   8.679  0.6810 -0.7979 -0.6064
  120OSM   H16S12700   1.980   5.517   8.778 -0.7852  4.2845  0.8830
  120OSM   H16T12701   1.966   5.625   8.643 -0.5437  0.0432  0.4096
  120OSM   C17S12702   1.999   5.428   8.590  0.3699  0.3234 -1.5175
  120OSM   H17S12703   1.979   5.463   8.486 -2.8952 -0.1605 -1.1383
  120OSM   H17T12704   1.955   5.327   8.601  1.2937  0.1071  0.7038
  120OSM   C18S12705   2.150   5.419   8.625  0.1816 -0.1420  0.3935
  120OSM   H18S12706   2.160   5.390   8.732 -0.8351  2.3973  1.2651
  120OSM   H18T12707   2.212   5.511   8.621  1.4923 -1.0082  0.1228
  120OSM   H18U12708   2.207   5.352   8.558 -0.5205 -0.9937  0.6242
  120OSM    C1F12709   1.474   5.163  10.076 -0.2888  0.5825 -0.2572
  120OSM     OF12710   1.374   5.178  10.149  0.2166  0.5871 -0.0114
  120OSM    C2F12711   1.490   5.033   9.998  0.0726  0.5476 -0.5432
  120OSM    H2F12712   1.439   4.953  10.056  0.6445  2.1798  2.4247
  120OSM    H2G12713   1.600   5.015   9.991  0.2231  0.8925  0.6819
  120OSM    C3F12714   1.428   5.048   9.860 -0.1912  0.3965 -0.7182
  120OSM    H3F12715   1.319   5.069   9.864 -0.2324  0.4302 -1.6882
  120OSM    H3G12716   1.443   4.950   9.811 -2.0489  0.0417 -0.6395
  120OSM    C4F12717   1.493   5.150   9.769 -0.2895  0.3759 -0.5322
  120OSM    H4F12718   1.602   5.135   9.785 -0.6033 -0.0811  1.5504
  120OSM    H4G12719   1.473   5.254   9.804  0.4289  0.5683 -0.6739
  120OSM    C5F12720   1.440   5.148   9.620 -0.1849 -0.6192 -0.5856
  120OSM    H5F12721   1.332   5.172   9.628 -0.0030  0.0745 -0.1571
  120OSM    H5G12722   1.450   5.049   9.570  1.4105 -0.4433 -0.6654
  120OSM    C6F12723   1.501   5.260   9.543  0.2825 -0.1420  0.2094
  120OSM    H6F12724   1.585   5.210   9.489 -1.1579 -1.5347 -0.8664
  120OSM    H6G12725   1.537   5.339   9.611  0.1002  1.1223 -1.1112
  120OSM    C7F12726   1.401   5.331   9.440 -0.6316 -0.4803 -0.3561
  120OSM    H7F12727   1.450   5.420   9.393 -1.1533 -0.6046 -1.1474
  120OSM    H7G12728   1.305   5.361   9.487 -1.0562 -1.8418 -0.3379
  120OSM    C8F12729   1.359   5.234   9.320  0.3275 -0.2493 -0.2933
  120OSM    H8F12730   1.268   5.275   9.271 -0.5927 -2.5957 -0.6978
  120OSM    H8G12731   1.301   5.153   9.369 -1.3775  1.8049  1.2551
  120OSM    C9F12732   1.462   5.162   9.238  0.4342  0.2633  0.2265
  120OSM    H9F12733   1.547   5.113   9.289 -0.1241 -1.6869 -0.5949
  120OSM   C10F12734   1.477   5.168   9.101 -0.4889 -0.9073  0.5436
  120OSM   H10F12735   1.551   5.103   9.052 -1.0848 -1.2390  0.0629
  120OSM   C11F12736   1.405   5.259   9.007  0.8184  0.0266  0.7915
  120OSM   H11F12737   1.474   5.345   8.992 -0.0027  0.4146 -1.0450
  120OSM   H11G12738   1.307   5.302   9.038  1.2039 -0.8085  3.4289
  120OSM   C12F12739   1.391   5.192   8.871  0.0558 -0.4943  0.2395
  120OSM   H12F12740   1.346   5.091   8.885 -0.0750 -0.2991  1.3132
  120OSM   H12G12741   1.492   5.166   8.833 -0.0838 -0.7128  0.0097
  120OSM   C13F12742   1.314   5.262   8.753  0.1655 -0.2992  0.0787
  120OSM   H13F12743   1.206   5.272   8.778  0.1904  0.7289 -0.1572
  120OSM   H13G12744   1.313   5.183   8.676 -0.3374 -2.7428  2.4446
  120OSM   C14F12745   1.370   5.392   8.702 -0.7973  0.1493  0.5040
  120OSM   H14F12746   1.472   5.376   8.661 -1.8854  1.3093 -2.9657
  120OSM   H14G12747   1.378   5.462   8.788 -2.0466  0.1142  0.6616
  120OSM   C15F12748   1.280   5.472   8.596 -0.6354  1.1297  0.3075
  120OSM   H15F12749   1.188   5.486   8.657  0.0225 -2.8563  2.5874
  120OSM   H15G12750   1.257   5.397   8.518  1.4584 -0.6641  1.2959
  120OSM   C16F12751   1.330   5.603   8.534  0.1490 -0.0428 -0.0493
  120OSM   H16F12752   1.343   5.680   8.613 -1.2725  0.6308 -0.4341
  120OSM   H16G12753   1.263   5.650   8.458 -1.2830 -1.3285  0.3604
  120OSM   C17F12754   1.458   5.571   8.452  0.5298 -0.7191  0.2741
  120OSM   H17F12755   1.429   5.513   8.362  0.9796 -0.2096 -0.2049
  120OSM   H17G12756   1.521   5.498   8.506 -0.9664 -1.5841  0.9087
  120OSM   C18F12757   1.540   5.689   8.396  0.0318 -0.1709  0.5028
  120OSM   H18F12758   1.583   5.749   8.480  1.5094 -0.9085  0.2935
  120OSM   H18G12759   1.479   5.764   8.342 -0.2808 -0.8826 -0.1392
  120OSM   H18H12760   1.626   5.654   8.336 -1.7664 -1.3850 -1.5081
  121OSM      N12761   0.622   1.599  10.594  0.0310  0.0819  0.2263
  121OSM    C1512762   0.530   1.694  10.656 -0.5620  0.7994 -0.2620
  121OSM   H15A12763   0.582   1.787  10.675  0.7545 -0.0779  0.5327
  121OSM   H15B12764   0.492   1.655  10.749  1.5863  0.7974  0.6638
  121OSM   H15C12765   0.449   1.709  10.585  0.4573 -1.3644 -1.9816
  121OSM    C1412766   0.754   1.596  10.673  0.3874  0.3887  0.3067
  121OSM   H14A12767   0.827   1.547  10.611 -1.6750 -0.8118 -1.2800
  121OSM   H14B12768   0.740   1.554  10.772  0.5726 -0.4635 -0.0222
  121OSM   H14C12769   0.790   1.694  10.700 -0.1537  0.4430  0.8595
  121OSM    C1312770   0.563   1.468  10.585 -0.2660  0.1146 -0.7184
  121OSM   H13A12771   0.465   1.466  10.540 -1.7252 -0.3017  2.2263
  121OSM   H13B12772   0.543   1.431  10.684  1.1198  2.2935  0.4357
  121OSM   H13C12773   0.617   1.391  10.532  1.7776  0.9304  0.0906
  121OSM    C1212774   0.660   1.644  10.453 -0.1656 -0.2077  0.2110
  121OSM   H12A12775   0.709   1.741  10.458  1.5227 -1.0764  3.4043
  121OSM   H12B12776   0.568   1.642  10.397 -0.4618 -2.2799  0.6832
  121OSM    C1112777   0.761   1.569  10.359 -0.1948 -0.5450 -0.4915
  121OSM   H11A12778   0.773   1.622  10.263  1.8317 -2.1896 -1.2292
  121OSM   H11B12779   0.713   1.470  10.343 -1.0154 -0.1303 -0.6510
  121OSM      P12780   0.963   1.410  10.402  0.2255  0.1350  0.3341
  121OSM    O1312781   1.110   1.442  10.390  0.0521  0.6124  0.7647
  121OSM    O1412782   0.913   1.325  10.510  0.9009  0.6136  0.0534
  121OSM    O1112783   0.913   1.338  10.267 -0.0605 -0.0680 -0.0794
  121OSM    O1212784   0.892   1.554  10.415  0.5994  0.2075  0.0175
  121OSM    C1S12785   0.948   1.409  10.154 -0.5083 -0.4891 -0.9050
  121OSM    H1S12786   1.059   1.407  10.144 -0.2504  1.3052  0.8397
  121OSM    H1T12787   0.904   1.510  10.138 -0.7704 -0.0003  2.2986
  121OSM     NF12788   0.964   1.398   9.904  0.2629 -0.2126  0.4093
  121OSM    HNF12789   0.900   1.419   9.831  0.9832 -0.1705 -0.2168
  121OSM    C2S12790   0.912   1.328  10.025  0.6124 -1.0650 -0.4627
  121OSM    H2S12791   0.969   1.232  10.025  1.1784 -0.7413  0.5564
  121OSM    C3S12792   0.766   1.289  10.016  0.8621  1.2590  0.0176
  121OSM    H3S12793   0.721   1.377   9.966  2.1691  1.4663 -0.8232
  121OSM     O312794   0.688   1.265  10.135 -0.5834 -0.1334 -0.0941
  121OSM    HO312795   0.751   1.295  10.201 -1.0560  1.9614 -0.5150
  121OSM    C4S12796   0.750   1.180   9.912  0.0073  1.1407  0.6966
  121OSM    H4S12797   0.751   1.208   9.806  1.3775 -3.3238 -0.6742
  121OSM    C5S12798   0.760   1.046   9.934 -0.2888 -0.4252  0.4865
  121OSM    H5S12799   0.778   1.008  10.036  0.0662  2.0629  1.4325
  121OSM    C6S12800   0.726   0.932   9.844 -0.1489 -0.1052  0.5736
  121OSM    H6S12801   0.629   0.881   9.864 -1.0548  0.3032 -2.3570
  121OSM    H6T12802   0.802   0.852   9.860 -0.1390  0.1522  1.9919
  121OSM    C7S12803   0.731   0.967   9.692 -0.0192  0.0093  0.0232
  121OSM    H7S12804   0.825   1.016   9.658  0.6379  0.2607  2.1019
  121OSM    H7T12805   0.642   1.032   9.674 -1.4807 -1.7297  0.6167
  121OSM    C8S12806   0.720   0.837   9.606 -0.3107  0.5958 -0.0153
  121OSM    H8S12807   0.633   0.775   9.634 -0.9916  1.4835 -0.1214
  121OSM    H8T12808   0.817   0.786   9.624  1.2348  3.2509 -0.1737
  121OSM    C9S12809   0.711   0.884   9.459 -0.4718 -0.0915  0.6524
  121OSM    H9S12810   0.802   0.940   9.427 -0.7811 -0.9407 -1.9992
  121OSM    H9T12811   0.625   0.953   9.446  0.1492  0.8218  1.2577
  121OSM   C10S12812   0.700   0.771   9.362 -0.7423 -0.0030  0.6020
  121OSM   H10S12813   0.604   0.717   9.376 -0.1961 -1.1999 -0.1507
  121OSM   H10T12814   0.780   0.696   9.376 -1.5441 -0.6737  1.7226
  121OSM   C11S12815   0.705   0.816   9.210  0.4125 -0.1219  0.5625
  121OSM   H11S12816   0.782   0.895   9.195 -0.2119  0.2858 -0.6127
  121OSM   H11T12817   0.611   0.865   9.179  1.2405  1.4242  0.3698
  121OSM   C12S12818   0.736   0.700   9.121  1.2210 -0.2159  0.1525
  121OSM   H12S12819   0.678   0.608   9.140  2.1013 -0.6561  0.7717
  121OSM   H12T12820   0.836   0.660   9.145  0.9199  0.7299  3.4150
  121OSM   C13S12821   0.729   0.746   8.976  0.0895 -0.2268  0.1338
  121OSM   H13S12822   0.810   0.816   8.948 -0.9409  1.6266  1.5149
  121OSM   H13T12823   0.640   0.813   8.977  1.3259  1.5823 -2.4460
  121OSM   C14S12824   0.697   0.637   8.873 -0.0867  0.0264 -0.0302
  121OSM   H14S12825   0.600   0.599   8.910 -1.0216  0.6387 -1.7081
  121OSM   H14T12826   0.772   0.556   8.865  1.3487  1.2585  0.4729
  121OSM   C15S12827   0.657   0.690   8.731 -0.3296  0.7677 -0.5693
  121OSM   H15S12828   0.735   0.759   8.693  0.8565  0.8446  1.7691
  121OSM   H15T12829   0.578   0.765   8.754 -0.1160  0.2012  2.5780
  121OSM   C16S12830   0.622   0.593   8.624  0.0883  0.0231 -0.0020
  121OSM   H16S12831   0.525   0.542   8.643  1.2917 -1.2546  3.3363
  121OSM   H16T12832   0.702   0.518   8.604 -0.8383 -0.9967  0.0307
  121OSM   C17S12833   0.596   0.675   8.491 -0.3266 -0.4130 -0.2973
  121OSM   H17S12834   0.701   0.696   8.460 -0.2579 -0.7309 -0.2846
  121OSM   H17T12835   0.558   0.772   8.528  0.6745 -0.7272  1.7221
  121OSM   C18S12836   0.526   0.600   8.385  0.4808  0.9292  0.4602
  121OSM   H18S12837   0.588   0.525   8.332 -0.0652  1.4846 -1.0121
  121OSM   H18T12838   0.495   0.668   8.303  0.8350 -0.5500 -0.9634
  121OSM   H18U12839   0.438   0.547   8.426  1.4616 -1.1406  0.0048
  121OSM    C1F12840   1.089   1.425   9.878 -0.2468  0.3703 -0.2015
  121OSM     OF12841   1.182   1.382   9.946 -0.0972 -0.2070  0.4665
  121OSM    C2F12842   1.115   1.506   9.758 -0.0647 -0.2592 -0.4379
  121OSM    H2F12843   1.173   1.600   9.769  0.1964 -0.6061  1.6460
  121OSM    H2G12844   1.018   1.539   9.715 -0.2519  0.3546  0.4186
  121OSM    C3F12845   1.188   1.419   9.654 -0.5447  0.0075  0.8683
  121OSM    H3F12846   1.139   1.321   9.634  1.0963 -0.7364  0.2746
  121OSM    H3G12847   1.292   1.394   9.685  0.4496  0.8485 -1.5335
  121OSM    C4F12848   1.205   1.492   9.521  0.3935 -0.8157 -0.0688
  121OSM    H4F12849   1.284   1.571   9.528  0.3111 -0.6951 -0.4309
  121OSM    H4G12850   1.111   1.548   9.503  0.2978 -1.3990 -1.5592
  121OSM    C5F12851   1.238   1.398   9.403 -0.3251 -0.1196 -0.0185
  121OSM    H5F12852   1.155   1.331   9.369  0.9520 -1.7883 -0.0058
  121OSM    H5G12853   1.318   1.334   9.445 -0.0887  1.0960  1.4559
  121OSM    C6F12854   1.304   1.462   9.282 -0.1139 -0.0339  0.1017
  121OSM    H6F12855   1.360   1.390   9.219 -1.3136 -0.3216 -0.6678
  121OSM    H6G12856   1.371   1.540   9.325 -1.6332 -0.0759  2.7191
  121OSM    C7F12857   1.207   1.522   9.172 -0.2965 -0.4118 -0.5946
  121OSM    H7F12858   1.281   1.577   9.110 -0.1564 -1.4389 -1.3687
  121OSM    H7G12859   1.145   1.599   9.223  1.5396  0.6563  0.1141
  121OSM    C8F12860   1.137   1.409   9.097  0.5505 -0.1454 -0.0090
  121OSM    H8F12861   1.059   1.365   9.163  0.6610 -1.7885 -0.9291
  121OSM    H8G12862   1.211   1.332   9.068  0.6120 -1.0317  2.2868
  121OSM    C9F12863   1.079   1.485   8.973 -0.0349 -0.3790  0.1415
  121OSM    H9F12864   0.986   1.538   8.995 -0.2364  0.1126 -1.7507
  121OSM   C10F12865   1.134   1.489   8.850 -0.2062 -0.4141 -0.1178
  121OSM   H10F12866   1.096   1.558   8.774 -1.4578 -0.9400  0.0016
  121OSM   C11F12867   1.262   1.413   8.807  0.3238 -0.6177 -0.4055
  121OSM   H11F12868   1.258   1.412   8.696 -1.8160  0.8627 -0.4039
  121OSM   H11G12869   1.255   1.307   8.838 -2.3479 -0.7158 -1.0956
  121OSM   C12F12870   1.383   1.494   8.858 -0.9330 -0.0917  0.7093
  121OSM   H12F12871   1.395   1.459   8.963 -3.0949 -2.6190  0.2065
  121OSM   H12G12872   1.363   1.603   8.866  1.0941  0.5192 -1.2895
  121OSM   C13F12873   1.505   1.486   8.769 -0.0785 -0.2718  0.0098
  121OSM   H13F12874   1.471   1.504   8.665  1.1052 -1.7064 -0.6546
  121OSM   H13G12875   1.543   1.382   8.769 -0.7331 -0.5727 -2.7286
  121OSM   C14F12876   1.606   1.591   8.820 -0.1884 -0.7551 -0.1538
  121OSM   H14F12877   1.633   1.599   8.928  1.0627  0.4586 -0.5236
  121OSM   H14G12878   1.568   1.688   8.784  4.2533  0.8362 -1.2648
  121OSM   C15F12879   1.742   1.588   8.748  0.5806 -0.2080 -0.8993
  121OSM   H15F12880   1.786   1.688   8.769 -1.1979  0.3081  0.7262
  121OSM   H15G12881   1.728   1.584   8.637 -0.7150 -1.0922 -0.7265
  121OSM   C16F12882   1.842   1.473   8.793  0.4001 -0.5051  0.1810
  121OSM   H16F12883   1.939   1.470   8.738  0.1188 -1.7845 -0.2867
  121OSM   H16G12884   1.792   1.382   8.754 -0.9640 -0.6639  2.1701
  121OSM   C17F12885   1.871   1.464   8.945  0.3478 -0.3246 -0.4898
  121OSM   H17F12886   1.774   1.442   8.995 -0.2530  1.1351 -0.9658
  121OSM   H17G12887   1.903   1.563   8.983 -3.2908  0.8479 -0.0947
  121OSM   C18F12888   1.959   1.350   8.981 -0.3320 -0.1948 -0.0684
  121OSM   H18F12889   1.921   1.249   8.956  1.6784 -0.3758 -2.8689
  121OSM   H18G12890   1.988   1.355   9.088 -0.7426  0.1123  0.0329
  121OSM   H18H12891   2.049   1.364   8.918  0.6553 -0.1425  1.3156
  122OSM      N12892   0.413   0.199  10.596 -0.3418 -0.0152 -0.3143
  122OSM    C1512893   0.259   0.209  10.590 -0.0209 -0.0867  1.1045
  122OSM   H15A12894   0.207   0.170  10.676 -2.0823 -0.8088 -0.3961
  122OSM   H15B12895   0.226   0.157  10.502  1.5105  1.3307 -0.3718
  122OSM   H15C12896   0.225   0.310  10.576 -0.8004 -0.1176  2.5317
  122OSM    C1412897   0.468   0.240  10.732 -0.3282 -0.1862  0.1929
  122OSM   H14A12898   0.429   0.335  10.762 -0.8029 -0.0858 -0.6953
  122OSM   H14B12899   0.575   0.254  10.722 -0.0988 -1.1723  1.0336
  122OSM   H14C12900   0.456   0.157  10.801  1.7502 -0.5023  0.2487
  122OSM    C1312901   0.438   0.055  10.580 -0.0270  0.6906 -0.9428
  122OSM   H13A12902   0.543   0.033  10.575  0.5630  3.1930 -0.9901
  122OSM   H13B12903   0.399   0.013  10.488  0.5529 -1.4600 -0.2590
  122OSM   H13C12904   0.389  -0.000  10.659  2.5140  1.4274  1.3090
  122OSM    C1212905   0.487   0.278  10.493  0.6478  0.4383  0.1346
  122OSM   H12A12906   0.592   0.254  10.499  0.9979  1.6881 -0.5735
  122OSM   H12B12907   0.476   0.383  10.516  0.6610  0.5129 -0.2056
  122OSM    C1112908   0.449   0.248  10.342  0.0606  0.4581 -0.7899
  122OSM   H11A12909   0.484   0.330  10.275  0.5744  1.1132  0.2629
  122OSM   H11B12910   0.338   0.254  10.336 -0.0075  0.5044  0.4012
  122OSM      P12911   0.646   0.090  10.290  0.1273 -0.5296  0.0632
  122OSM    O1312912   0.718   0.215  10.249  0.1415 -0.2127  0.6709
  122OSM    O1412913   0.684   0.036  10.417 -0.1621  0.3682 -0.1463
  122OSM    O1112914   0.657  -0.019  10.183  0.2169 -0.1815  0.1677
  122OSM    O1212915   0.490   0.120  10.295  0.3176 -0.2210 -0.2934
  122OSM    C1S12916   0.558  -0.114  10.164  0.1481  0.2274  0.5521
  122OSM    H1S12917   0.455  -0.094  10.201 -1.2174 -0.4916 -2.5712
  122OSM    H1T12918   0.587  -0.211  10.210 -0.1821  0.1511  0.6042
  122OSM     NF12919   0.437  -0.247   9.972  0.3033 -1.1132 -0.8056
  122OSM    HNF12920   0.465  -0.338   9.944 -0.9788 -1.8551  0.2411
  122OSM    C2S12921   0.548  -0.151  10.004  0.1506  0.3086 -0.0386
  122OSM    H2S12922   0.523  -0.055   9.954  0.4023  0.2252 -0.3323
  122OSM    C3S12923   0.680  -0.201   9.947  0.4600 -0.9342  0.6105
  122OSM    H3S12924   0.710  -0.304   9.974 -0.6451 -1.2971  0.4904
  122OSM     O312925   0.798  -0.121   9.976  0.1823  0.3191 -0.1512
  122OSM    HO312926   0.772  -0.054  10.039  0.5708  0.1380  0.2075
  122OSM    C4S12927   0.660  -0.219   9.795 -0.0781  0.2874 -0.0484
  122OSM    H4S12928   0.646  -0.322   9.760 -0.9272 -0.4874  2.3522
  122OSM    C5S12929   0.673  -0.117   9.709  0.4577 -0.6852 -0.4404
  122OSM    H5S12930   0.700  -0.019   9.750  0.1790 -0.5633 -0.5522
  122OSM    C6S12931   0.656  -0.124   9.559  0.2080 -0.1088 -0.2497
  122OSM    H6S12932   0.754  -0.099   9.512  0.8813 -1.5305  0.3263
  122OSM    H6T12933   0.586  -0.046   9.523  0.1871 -0.1112 -0.2137
  122OSM    C7S12934   0.612  -0.254   9.484 -0.1774 -0.1978 -0.5628
  122OSM    H7S12935   0.511  -0.290   9.511 -0.4076  0.9877  0.2347
  122OSM    H7T12936   0.686  -0.325   9.526  1.2663  2.5409  1.8717
  122OSM    C8S12937   0.614  -0.220   9.331  0.1567 -0.0754 -0.5382
  122OSM    H8S12938   0.636  -0.111   9.321 -3.0252  0.7314  0.1506
  122OSM    H8T12939   0.510  -0.228   9.293  0.1010  0.3741 -0.4924
  122OSM    C9S12940   0.713  -0.299   9.251  0.3116  0.0856 -0.1913
  122OSM    H9S12941   0.675  -0.403   9.244 -1.1631  0.7133 -2.5157
  122OSM    H9T12942   0.813  -0.298   9.299  1.1737  1.8386 -1.8744
  122OSM   C10S12943   0.743  -0.236   9.117 -0.1507  0.8833  0.2102
  122OSM   H10S12944   0.799  -0.305   9.050  0.2757  1.5117 -0.0784
  122OSM   H10T12945   0.806  -0.145   9.128  0.8312  0.2637 -0.1654
  122OSM   C11S12946   0.617  -0.194   9.040 -0.7704  0.3465 -0.1618
  122OSM   H11S12947   0.551  -0.136   9.108  0.6086  0.8614  0.7783
  122OSM   H11T12948   0.577  -0.293   9.010 -0.9594  1.0070 -2.2766
  122OSM   C12S12949   0.654  -0.105   8.915 -0.5260  0.4434 -0.3976
  122OSM   H12S12950   0.751  -0.149   8.883  0.1662  1.3216  0.4323
  122OSM   H12T12951   0.662   0.003   8.941 -0.3368  1.0622 -2.7943
  122OSM   C13S12952   0.544  -0.127   8.807  0.7438 -0.2696  0.5114
  122OSM   H13S12953   0.449  -0.079   8.836  0.1974 -1.1933  0.3165
  122OSM   H13T12954   0.522  -0.236   8.793 -2.3107  0.1909  1.0411
  122OSM   C14S12955   0.596  -0.061   8.674  0.7714  0.4664  0.2721
  122OSM   H14S12956   0.676  -0.117   8.622  0.5021  2.4763 -2.5813
  122OSM   H14T12957   0.629   0.042   8.702 -1.1945  1.0530  0.6159
  122OSM   C15S12958   0.477  -0.033   8.578 -0.8875  0.4938 -0.0874
  122OSM   H15S12959   0.405   0.033   8.631 -1.6857 -2.1649  2.4052
  122OSM   H15T12960   0.427  -0.121   8.533  2.3000 -1.4265 -0.1594
  122OSM   C16S12961   0.525   0.037   8.447 -0.3201  0.0883 -0.3602
  122OSM   H16S12962   0.431   0.053   8.390 -1.2677  0.6881  1.2996
  122OSM   H16T12963   0.599  -0.028   8.395  0.5346 -0.0053  0.9200
  122OSM   C17S12964   0.595   0.171   8.474  0.0472  0.4642 -0.0577
  122OSM   H17S12965   0.678   0.152   8.545  0.2685  0.0190 -0.4269
  122OSM   H17T12966   0.532   0.241   8.532  1.3815 -0.6607  2.9295
  122OSM   C18S12967   0.647   0.244   8.348 -0.1997 -0.1953 -0.1869
  122OSM   H18S12968   0.705   0.336   8.370 -0.4645 -0.0531 -0.0728
  122OSM   H18T12969   0.561   0.275   8.285 -0.6130  0.0347  0.4766
  122OSM   H18U12970   0.712   0.182   8.283 -1.1330 -0.3757 -0.9605
  122OSM    C1F12971   0.304  -0.225   9.996 -0.0043 -0.0770  0.0836
  122OSM     OF12972   0.275  -0.153  10.089 -0.0508  0.6552  0.0739
  122OSM    C2F12973   0.208  -0.294   9.913  0.0107  0.1327  0.1885
  122OSM    H2F12974   0.135  -0.350   9.975 -2.4389  0.6940 -1.9898
  122OSM    H2G12975   0.256  -0.349   9.829 -1.2637 -2.0103  0.7855
  122OSM    C3F12976   0.129  -0.173   9.848  0.7732 -0.2030  0.2089
  122OSM    H3F12977   0.081  -0.109   9.925 -2.4156 -0.1174 -1.6651
  122OSM    H3G12978   0.044  -0.213   9.788 -0.0424 -0.5917  1.5596
  122OSM    C4F12979   0.218  -0.085   9.761  0.1537  0.0602  0.1383
  122OSM    H4F12980   0.302  -0.044   9.820 -0.2572  1.8178 -0.4597
  122OSM    H4G12981   0.148  -0.006   9.728 -0.4138 -0.6343 -0.3611
  122OSM    C5F12982   0.291  -0.156   9.647  0.1056 -0.3758  1.2484
  122OSM    H5F12983   0.366  -0.224   9.694 -0.4665  0.1070  2.9567
  122OSM    H5G12984   0.338  -0.075   9.588 -1.6354 -1.0168 -1.1519
  122OSM    C6F12985   0.192  -0.225   9.551  0.1116  0.0238  0.1652
  122OSM    H6F12986   0.103  -0.160   9.533  1.6108  1.9107 -0.9165
  122OSM    H6G12987   0.148  -0.315   9.598  1.3756 -0.7410 -0.0950
  122OSM    C7F12988   0.232  -0.269   9.412  0.0172 -0.0848  0.7301
  122OSM    H7F12989   0.257  -0.377   9.415  2.6681  0.4519  0.6210
  122OSM    H7G12990   0.319  -0.209   9.375  0.0839 -0.4850  0.2350
  122OSM    C8F12991   0.118  -0.253   9.305  0.5799  1.2674  0.5026
  122OSM    H8F12992   0.085  -0.147   9.309 -0.4250  0.9269  2.3469
  122OSM    H8G12993   0.032  -0.316   9.336  0.0267  1.9237  0.3246
  122OSM    C9F12994   0.155  -0.285   9.160  0.0449 -0.1635 -0.1103
  122OSM    H9F12995   0.198  -0.385   9.142  0.4968  0.1908 -1.0807
  122OSM   C10F12996   0.140  -0.203   9.057 -0.2649 -0.1101  0.1962
  122OSM   H10F12997   0.167  -0.238   8.957 -0.2622  0.9767 -0.1949
  122OSM   C11F12998   0.095  -0.062   9.058 -0.2647 -0.2906  0.6901
  122OSM   H11F12999   0.168   0.005   9.008 -1.7085  1.6878  1.1009
  122OSM   H11G13000   0.072  -0.006   9.152 -1.6298 -0.6900  0.6231
  122OSM   C12F13001  -0.029  -0.041   8.969 -0.0199 -0.4978  0.5410
  122OSM   H12F13002  -0.051   0.067   8.986  3.1469  0.1466  1.0934
  122OSM   H12G13003  -0.110  -0.108   9.005  0.1153 -1.7292 -1.2970
  122OSM   C13F13004  -0.008  -0.071   8.815 -0.3273 -0.1650  0.0716
  122OSM   H13F13005   0.004  -0.182   8.818  1.5496 -0.0175 -0.8464
  122OSM   H13G13006   0.083  -0.024   8.772 -1.0191  2.1869  1.0174
  122OSM   C14F13007  -0.134  -0.045   8.735  1.2072  0.7129  0.3906
  122OSM   H14F13008  -0.136   0.062   8.707  2.1525  0.5333 -0.4013
  122OSM   H14G13009  -0.223  -0.071   8.797 -0.8858  1.8234 -1.9623
  122OSM   C15F13010  -0.136  -0.130   8.600 -1.0133 -0.2792  0.0189
  122OSM   H15F13011  -0.078  -0.221   8.623 -1.2391 -0.3074  0.4889
  122OSM   H15G13012  -0.075  -0.061   8.537 -1.7766 -0.0354 -0.4656
  122OSM   C16F13013  -0.273  -0.177   8.554 -0.0510  0.3402 -0.1615
  122OSM   H16F13014  -0.344  -0.096   8.527  0.2291  0.4886 -0.4607
  122OSM   H16G13015  -0.331  -0.232   8.632 -1.4604 -1.6237 -2.4586
  122OSM   C17F13016  -0.261  -0.264   8.421  0.5925  0.2382  0.0301
  122OSM   H17F13017  -0.208  -0.361   8.435 -1.6331 -0.9426  0.7837
  122OSM   H17G13018  -0.204  -0.199   8.352  0.0627  0.9472  0.2494
  122OSM   C18F13019  -0.401  -0.299   8.355 -0.0754  0.4027 -0.0402
  122OSM   H18F13020  -0.384  -0.363   8.266  0.3894  1.4306 -0.7019
  122OSM   H18G13021  -0.451  -0.206   8.322 -0.2502  0.7822  1.2398
  122OSM   H18H13022  -0.461  -0.353   8.432  2.3188 -1.4549  0.6790
  123OSM      N13023   3.933   5.695   5.468  0.0061  0.4027  0.9245
  123OSM    C1513024   4.069   5.738   5.411  0.0276  0.1674  0.0399
  123OSM   H15A13025   4.082   5.845   5.416  0.3664  0.1497 -0.4110
  123OSM   H15B13026   4.069   5.706   5.308 -0.4781  2.7231 -0.8234
  123OSM   H15C13027   4.158   5.695   5.455  1.0686  1.8256 -0.3484
  123OSM    C1413028   3.925   5.551   5.455 -0.5386 -0.4432  0.5818
  123OSM   H14A13029   3.993   5.501   5.522  0.4005  0.2906  0.2099
  123OSM   H14B13030   3.934   5.522   5.351  0.1052  2.5494 -0.2971
  123OSM   H14C13031   3.822   5.530   5.481 -0.7434 -0.9977 -0.6217
  123OSM    C1313032   3.931   5.741   5.607 -0.8638 -0.0676 -0.2045
  123OSM   H13A13033   3.843   5.710   5.661  0.2378 -2.5357  0.2819
  123OSM   H13B13034   3.940   5.849   5.612  0.2663 -0.1438 -0.3405
  123OSM   H13C13035   4.016   5.702   5.662  0.3287 -0.5811 -2.2956
  123OSM    C1213036   3.823   5.754   5.390  0.0762  0.2021  0.7350
  123OSM   H12A13037   3.828   5.715   5.289  0.2458 -2.0628  1.5598
  123OSM   H12B13038   3.845   5.858   5.373  2.5008 -0.2708  0.6236
  123OSM    C1113039   3.682   5.744   5.450 -0.2581 -0.0989 -0.4174
  123OSM   H11A13040   3.619   5.800   5.378 -2.1518 -1.7778 -0.1454
  123OSM   H11B13041   3.671   5.775   5.556  2.6251  0.9607 -0.3414
  123OSM      P13042   3.491   5.573   5.501 -0.1384  0.1296 -0.5047
  123OSM    O1313043   3.392   5.670   5.446 -0.2662 -0.3847 -0.4423
  123OSM    O1413044   3.477   5.434   5.463  0.0675  0.3225  0.5050
  123OSM    O1113045   3.494   5.558   5.662 -0.1288 -0.4068 -0.0600
  123OSM    O1213046   3.631   5.613   5.439 -0.5143  0.7927 -0.0770
  123OSM    C1S13047   3.615   5.547   5.735  0.2843  0.2246 -0.3623
  123OSM    H1S13048   3.670   5.643   5.720  1.6260 -0.5616 -0.5938
  123OSM    H1T13049   3.681   5.461   5.714  3.0001  1.5741  1.9913
  123OSM     NF13050   3.709   5.505   5.955 -0.0127 -0.1149 -0.1048
  123OSM    HNF13051   3.712   5.416   6.000 -1.3784  0.3808  1.0467
  123OSM    C2S13052   3.577   5.537   5.889 -0.1138 -0.9835 -0.3872
  123OSM    H2S13053   3.537   5.638   5.910 -1.4391 -1.7357  0.9215
  123OSM    C3S13054   3.464   5.432   5.898  0.2786  0.5506  0.2405
  123OSM    H3S13055   3.481   5.347   5.829 -0.1520  2.1268 -1.8983
  123OSM     O313056   3.334   5.481   5.855 -0.6205 -0.0031  0.4666
  123OSM    HO313057   3.368   5.538   5.786 -1.8384 -0.4509 -0.5483
  123OSM    C4S13058   3.452   5.372   6.043 -0.3854 -0.2262  0.5075
  123OSM    H4S13059   3.493   5.271   6.050 -0.4898 -0.2648  0.5755
  123OSM    C5S13060   3.396   5.437   6.145 -0.3782 -0.3498 -0.0430
  123OSM    H5S13061   3.356   5.537   6.122  1.0282  0.0979 -0.6966
  123OSM    C6S13062   3.380   5.400   6.290  0.6345  0.2844  0.5787
  123OSM    H6S13063   3.272   5.378   6.303  1.0723 -2.7704 -0.1918
  123OSM    H6T13064   3.413   5.478   6.362 -1.2297  1.9644 -0.2943
  123OSM    C7S13065   3.460   5.274   6.326  0.2828  0.1319 -0.2389
  123OSM    H7S13066   3.567   5.299   6.342  0.9470 -1.9734 -1.1065
  123OSM    H7T13067   3.470   5.195   6.248 -2.0388 -0.7893  0.3087
  123OSM    C8S13068   3.412   5.211   6.455 -0.0644 -0.4183  0.0164
  123OSM    H8S13069   3.488   5.137   6.488 -0.2485 -0.8620 -0.5456
  123OSM    H8T13070   3.320   5.150   6.443 -0.2201 -0.2059  0.1151
  123OSM    C9S13071   3.396   5.293   6.583 -0.1763 -0.0766  0.0501
  123OSM    H9S13072   3.326   5.378   6.568  1.3862  1.0212 -1.4174
  123OSM    H9T13073   3.490   5.349   6.603  0.4098 -0.4551 -1.4909
  123OSM   C10S13074   3.343   5.221   6.703  0.0515 -0.1399 -0.4712
  123OSM   H10S13075   3.394   5.123   6.716 -2.4955 -1.4092  0.7927
  123OSM   H10T13076   3.241   5.190   6.673  0.3111 -0.4362 -1.0714
  123OSM   C11S13077   3.346   5.310   6.827  0.1707  0.4151 -0.3012
  123OSM   H11S13078   3.295   5.405   6.801  0.0605  0.6495  0.7387
  123OSM   H11T13079   3.446   5.347   6.858 -1.0657  2.0261  2.1016
  123OSM   C12S13080   3.281   5.222   6.945 -0.0790 -0.3910  0.1168
  123OSM   H12S13081   3.335   5.126   6.946 -0.8838 -0.8683 -0.6652
  123OSM   H12T13082   3.179   5.189   6.914 -0.2639 -1.3512  1.6195
  123OSM   C13S13083   3.284   5.280   7.086  0.2456 -0.8520 -0.0492
  123OSM   H13S13084   3.238   5.207   7.157 -0.7796  1.2083  1.5269
  123OSM   H13T13085   3.220   5.370   7.078 -0.7703 -1.6252 -0.8652
  123OSM   C14S13086   3.431   5.310   7.128  0.7033  0.0099  0.0255
  123OSM   H14S13087   3.479   5.369   7.047  3.6982 -0.2475  1.4525
  123OSM   H14T13088   3.486   5.213   7.123 -1.5998 -1.3462 -0.4547
  123OSM   C15S13089   3.448   5.388   7.262  1.3534  0.0038 -0.0150
  123OSM   H15S13090   3.552   5.417   7.289  0.6602  0.2760  2.7014
  123OSM   H15T13091   3.416   5.311   7.335  0.0064 -1.8967 -2.4544
  123OSM   C16S13092   3.353   5.511   7.271 -0.3679  0.1874 -0.5986
  123OSM   H16S13093   3.331   5.543   7.167  1.7183  1.6594 -0.6438
  123OSM   H16T13094   3.403   5.593   7.325 -0.7365  0.3980 -0.5734
  123OSM   C17S13095   3.214   5.503   7.340  0.5488  0.1738 -0.0815
  123OSM   H17S13096   3.145   5.445   7.275  0.5762  1.5823 -1.4278
  123OSM   H17T13097   3.166   5.603   7.336  0.7377  0.3630  1.7439
  123OSM   C18S13098   3.212   5.462   7.488 -0.6006 -0.0133 -0.0388
  123OSM   H18S13099   3.270   5.518   7.564 -1.0642  0.9190 -0.3619
  123OSM   H18T13100   3.245   5.355   7.495  1.7249  0.5221 -1.5961
  123OSM   H18U13101   3.108   5.471   7.524 -0.6983  0.2961 -0.4033
  123OSM    C1F13102   3.810   5.591   5.971  0.1269  0.0599  0.3140
  123OSM     OF13103   3.795   5.702   5.921  0.0240 -0.4033 -0.0550
  123OSM    C2F13104   3.920   5.556   6.055  0.1165 -0.7384  0.6760
  123OSM    H2F13105   3.947   5.450   6.033 -1.6255 -1.1392  0.3201
  123OSM    H2G13106   3.902   5.571   6.163 -1.3243 -0.3349  0.3947
  123OSM    C3F13107   4.046   5.647   6.025  0.0703  0.7206  0.3245
  123OSM    H3F13108   4.015   5.751   6.051 -0.3657  0.3586  1.2939
  123OSM    H3G13109   4.076   5.639   5.918 -0.7711 -5.0909  0.2164
  123OSM    C4F13110   4.150   5.593   6.118  0.5171  0.3657 -0.0991
  123OSM    H4F13111   4.209   5.517   6.063 -0.4024  0.3990 -1.1700
  123OSM    H4G13112   4.111   5.525   6.196 -2.6198 -0.1789 -1.9925
  123OSM    C5F13113   4.241   5.702   6.171 -0.1175 -0.1007 -0.1192
  123OSM    H5F13114   4.222   5.796   6.114  1.8965 -0.3289 -1.2845
  123OSM    H5G13115   4.347   5.672   6.156 -0.2089 -0.9774  0.8933
  123OSM    C6F13116   4.233   5.724   6.322 -0.7515  0.4899  0.5176
  123OSM    H6F13117   4.235   5.624   6.371 -1.7094  0.4985  0.5866
  123OSM    H6G13118   4.133   5.767   6.341 -1.0566  0.9725 -1.8439
  123OSM    C7F13119   4.351   5.826   6.357 -0.5631  0.2404  0.5968
  123OSM    H7F13120   4.306   5.925   6.332  0.0697 -0.2071 -2.7737
  123OSM    H7G13121   4.433   5.795   6.289 -1.4840 -1.6268  0.2955
  123OSM    C8F13122   4.401   5.830   6.511 -0.4506 -0.1508  0.6444
  123OSM    H8F13123   4.462   5.922   6.509 -3.8337  2.3101 -2.1359
  123OSM    H8G13124   4.465   5.740   6.523  1.9995  1.5987  1.4627
  123OSM    C9F13125   4.286   5.826   6.615 -0.2676 -0.0458 -0.3537
  123OSM    H9F13126   4.227   5.733   6.607 -0.9002 -0.0607  3.0243
  123OSM   C10F13127   4.255   5.923   6.709  0.1124 -0.0866  0.8644
  123OSM   H10F13128   4.179   5.904   6.787  0.1344 -0.7273  0.7370
  123OSM   C11F13129   4.334   6.045   6.722 -0.2834  0.1828  0.1748
  123OSM   H11F13130   4.276   6.138   6.741 -0.1436 -0.0232  1.6910
  123OSM   H11G13131   4.390   6.068   6.629 -1.5330 -1.0324 -0.9359
  123OSM   C12F13132   4.435   6.038   6.833  0.2589  0.7071 -0.9956
  123OSM   H12F13133   4.493   6.132   6.823 -1.2145  2.1105  2.1695
  123OSM   H12G13134   4.486   5.940   6.835  0.3581  0.7368  1.7495
  123OSM   C13F13135   4.367   6.043   6.976 -0.3837 -1.1398 -0.7860
  123OSM   H13F13136   4.306   5.950   6.981 -0.7278 -0.8462  1.8598
  123OSM   H13G13137   4.302   6.133   6.979 -0.7851 -1.4343  1.9518
  123OSM   C14F13138   4.465   6.052   7.095  0.4658 -0.3298 -0.0764
  123OSM   H14F13139   4.535   6.137   7.080  0.0171  0.1220  0.3766
  123OSM   H14G13140   4.535   5.968   7.113  0.6650 -0.3120 -0.7438
  123OSM   C15F13141   4.392   6.054   7.231  0.0971 -0.1613  0.5864
  123OSM   H15F13142   4.472   6.039   7.306  0.6169  0.7739  0.2293
  123OSM   H15G13143   4.315   5.975   7.244  0.9717 -1.0273  0.5959
  123OSM   C16F13144   4.334   6.192   7.263 -0.3021  0.1748  0.3278
  123OSM   H16F13145   4.260   6.225   7.187  1.0645  0.5510 -0.8730
  123OSM   H16G13146   4.418   6.264   7.266  0.4424 -0.6207 -0.6331
  123OSM   C17F13147   4.272   6.218   7.400 -0.6488  0.9554  0.3011
  123OSM   H17F13148   4.208   6.135   7.438  0.9454  0.2846  1.6623
  123OSM   H17G13149   4.195   6.299   7.397  1.3525  2.9511  0.1309
  123OSM   C18F13150   4.373   6.255   7.507 -0.3411 -0.2053 -0.5351
  123OSM   H18F13151   4.443   6.333   7.470 -0.7263  1.1229  1.4044
  123OSM   H18G13152   4.422   6.159   7.535 -1.2417 -0.9124 -1.2932
  123OSM   H18H13153   4.332   6.310   7.594 -2.6270 -0.4633 -1.3799
  124OSM      N13154   4.185   2.149   5.745  0.0964  0.0094 -0.5799
  124OSM    C1513155   4.292   2.185   5.644  0.6329 -0.1700  0.1294
  124OSM   H15A13156   4.317   2.290   5.644 -2.7972  0.7808 -0.5507
  124OSM   H15B13157   4.260   2.153   5.546  3.3023 -2.2559 -0.2030
  124OSM   H15C13158   4.375   2.118   5.663  0.7307 -0.9272 -2.5124
  124OSM    C1413159   4.140   2.006   5.729  0.8229  0.4347 -0.5608
  124OSM   H14A13160   4.093   1.994   5.633  1.1286  0.2829 -0.6903
  124OSM   H14B13161   4.069   1.973   5.804 -0.4736 -1.5647 -2.5472
  124OSM   H14C13162   4.221   1.935   5.736  1.7450  1.5360  0.5951
  124OSM    C1313163   4.251   2.158   5.887 -0.2505  0.0380  0.1851
  124OSM   H13A13164   4.264   2.264   5.907  1.0715 -0.0744 -0.0131
  124OSM   H13B13165   4.336   2.095   5.908 -1.0721 -1.0788  0.2577
  124OSM   H13C13166   4.171   2.132   5.955 -2.2073 -1.3447 -2.4722
  124OSM    C1213167   4.073   2.254   5.732 -0.1589  0.4305 -0.0835
  124OSM   H12A13168   4.003   2.225   5.808 -0.8307  0.0370 -0.8424
  124OSM   H12B13169   4.026   2.257   5.635 -0.6707  2.0861  0.1794
  124OSM    C1113170   4.105   2.400   5.759  0.3683 -0.7285  0.0980
  124OSM   H11A13171   4.007   2.448   5.739 -0.4017 -2.1470  0.3119
  124OSM   H11B13172   4.184   2.441   5.693 -1.9056  2.6872 -0.7439
  124OSM      P13173   4.209   2.542   5.951 -0.3525 -0.0646 -0.0054
  124OSM    O1313174   4.353   2.532   5.917 -0.0170 -0.1664  0.2863
  124OSM    O1413175   4.148   2.665   5.891  0.0317 -0.0076  0.4285
  124OSM    O1113176   4.174   2.547   6.116  0.0949 -0.2594  0.1650
  124OSM    O1213177   4.137   2.419   5.901 -0.1001 -0.2709 -0.1536
  124OSM    C1S13178   4.281   2.488   6.190  0.3899 -0.1940 -0.6254
  124OSM    H1S13179   4.384   2.517   6.162  0.4837  2.2415  1.8328
  124OSM    H1T13180   4.273   2.378   6.173  1.1161 -0.0040 -2.3903
  124OSM     NF13181   4.372   2.447   6.409 -1.0258  0.4668 -0.1276
  124OSM    HNF13182   4.339   2.370   6.464  1.0969  0.2912  1.0276
  124OSM    C2S13183   4.274   2.525   6.340  0.0281 -0.2299  0.0775
  124OSM    H2S13184   4.300   2.633   6.348 -2.4495  0.7252 -2.8616
  124OSM    C3S13185   4.136   2.522   6.403  0.1934  0.0121  0.7093
  124OSM    H3S13186   4.102   2.417   6.420  1.1505 -0.1227  1.8801
  124OSM     O313187   4.033   2.576   6.321  0.4404  0.3531  0.0123
  124OSM    HO313188   4.085   2.595   6.242  1.4401 -0.6655  0.3984
  124OSM    C4S13189   4.133   2.572   6.547 -0.3406  0.6789  0.1574
  124OSM    H4S13190   4.182   2.502   6.616 -3.0607  0.7737  2.3645
  124OSM    C5S13191   4.077   2.683   6.609 -0.7635 -0.2548  0.1253
  124OSM    H5S13192   4.020   2.754   6.547  1.1112  1.5638  0.3529
  124OSM    C6S13193   4.084   2.713   6.757  0.0029  0.1969 -0.8975
  124OSM    H6S13194   3.992   2.677   6.809  1.0645  0.2802  1.1653
  124OSM    H6T13195   4.087   2.822   6.778 -1.4289  0.0771  0.1024
  124OSM    C7S13196   4.212   2.669   6.844 -0.7634  0.7564  0.6406
  124OSM    H7S13197   4.297   2.724   6.800 -1.0239 -0.1307 -1.0541
  124OSM    H7T13198   4.221   2.559   6.856 -0.4296  0.8816  1.6400
  124OSM    C8S13199   4.202   2.711   6.987  0.0597  0.0852  0.5637
  124OSM    H8S13200   4.284   2.661   7.042 -0.6973 -0.9497  0.7887
  124OSM    H8T13201   4.108   2.663   7.022 -0.3894 -0.1959 -0.9770
  124OSM    C9S13202   4.182   2.863   7.021 -0.0049  0.1664  0.2589
  124OSM    H9S13203   4.183   2.874   7.131  0.2570  1.6108  0.1380
  124OSM    H9T13204   4.087   2.902   6.977  1.1323 -0.4773 -3.0822
  124OSM   C10S13205   4.307   2.945   6.963  0.4956  0.0656  0.6099
  124OSM   H10S13206   4.279   3.052   6.968  1.5585  0.3147  1.5008
  124OSM   H10T13207   4.323   2.921   6.855 -1.6565 -2.3362  0.7079
  124OSM   C11S13208   4.442   2.920   7.031 -0.8242 -0.2179  0.1565
  124OSM   H11S13209   4.512   2.980   6.969  1.3333 -1.0782  1.6183
  124OSM   H11T13210   4.475   2.815   7.016 -0.1666 -0.2894  1.8077
  124OSM   C12S13211   4.454   2.961   7.176 -0.3494 -0.7674  0.4154
  124OSM   H12S13212   4.371   2.915   7.234 -0.7404 -0.9369 -0.2687
  124OSM   H12T13213   4.439   3.071   7.182  0.2682 -0.6909  0.5741
  124OSM   C13S13214   4.588   2.939   7.234 -0.5656  0.1710  0.1010
  124OSM   H13S13215   4.673   2.946   7.163  0.3403 -1.2877  0.9871
  124OSM   H13T13216   4.584   2.835   7.272  1.1102 -1.0027 -2.5953
  124OSM   C14S13217   4.630   3.030   7.343  1.0789 -0.1405 -0.2751
  124OSM   H14S13218   4.552   3.037   7.421 -1.2765 -0.8226 -2.4410
  124OSM   H14T13219   4.635   3.135   7.307 -0.1540 -0.2438 -0.7859
  124OSM   C15S13220   4.760   2.985   7.409 -0.3648 -0.2538  0.4540
  124OSM   H15S13221   4.826   2.952   7.326 -2.1527 -1.2453 -0.6278
  124OSM   H15T13222   4.747   2.907   7.486  0.3858 -1.7940 -0.9194
  124OSM   C16S13223   4.841   3.102   7.476  0.2163 -0.5254 -0.8307
  124OSM   H16S13224   4.864   3.176   7.396 -0.6789 -0.5882 -1.1558
  124OSM   H16T13225   4.934   3.072   7.528  1.3570  1.4111 -1.6450
  124OSM   C17S13226   4.758   3.167   7.587 -0.0230  0.2314  0.3407
  124OSM   H17S13227   4.720   3.083   7.649  1.4744 -0.6250  0.1426
  124OSM   H17T13228   4.667   3.216   7.546  0.3192  0.6149  0.0310
  124OSM   C18S13229   4.836   3.264   7.673  0.2861 -0.5327 -0.6472
  124OSM   H18S13230   4.773   3.302   7.757  0.7188  2.4502 -1.5689
  124OSM   H18T13231   4.893   3.343   7.621 -0.5567  0.4995 -0.0376
  124OSM   H18U13232   4.908   3.199   7.727 -1.3774 -1.2158  0.8408
  124OSM    C1F13233   4.503   2.481   6.404 -1.1492 -0.2321 -0.3181
  124OSM     OF13234   4.549   2.571   6.335  0.5714 -0.3325 -0.8210
  124OSM    C2F13235   4.597   2.393   6.493  0.2933 -0.0144  0.4723
  124OSM    H2F13236   4.687   2.377   6.430 -1.1843  1.6191 -2.2682
  124OSM    H2G13237   4.540   2.300   6.512  0.7928 -0.3498  0.3271
  124OSM    C3F13238   4.638   2.454   6.631 -0.6443 -0.6167 -1.2090
  124OSM    H3F13239   4.681   2.556   6.620 -0.2382 -0.7555 -0.9299
  124OSM    H3G13240   4.724   2.396   6.670 -1.6645 -3.8710 -3.4170
  124OSM    C4F13241   4.525   2.453   6.734 -0.4740 -0.6667  0.3248
  124OSM    H4F13242   4.461   2.362   6.733 -0.8287 -0.6534  4.3436
  124OSM    H4G13243   4.447   2.526   6.703 -0.7494  0.4444  3.2690
  124OSM    C5F13244   4.569   2.480   6.880  0.2011 -0.8745  0.1076
  124OSM    H5F13245   4.611   2.386   6.922 -0.4695 -1.1534  0.1741
  124OSM    H5G13246   4.478   2.499   6.942 -0.5896  1.7150 -1.7002
  124OSM    C6F13247   4.652   2.598   6.911 -0.0392 -0.3509 -0.3015
  124OSM    H6F13248   4.586   2.684   6.888  0.0003  0.2943  1.7669
  124OSM    H6G13249   4.739   2.594   6.841 -0.1803 -1.1940 -0.4415
  124OSM    C7F13250   4.700   2.600   7.052 -0.8059 -0.0121  0.2256
  124OSM    H7F13251   4.622   2.592   7.131 -0.3992  1.1731  0.7681
  124OSM    H7G13252   4.738   2.704   7.059  0.0645 -0.3652  1.1256
  124OSM    C8F13253   4.825   2.511   7.076 -0.1962 -0.0591 -0.0508
  124OSM    H8F13254   4.876   2.494   6.979  0.2788 -3.6383  0.6639
  124OSM    H8G13255   4.801   2.416   7.128  2.4777 -0.3112  0.8789
  124OSM    C9F13256   4.939   2.573   7.158 -0.5691  0.5897  0.4349
  124OSM    H9F13257   5.024   2.611   7.099 -0.7235  0.3547  0.0500
  124OSM   C10F13258   4.939   2.585   7.289  0.3852  0.0875  0.0277
  124OSM   H10F13259   5.030   2.612   7.344 -0.6021  0.3347  1.5789
  124OSM   C11F13260   4.828   2.535   7.384  0.0422 -1.1182 -0.3298
  124OSM   H11F13261   4.774   2.446   7.345 -1.8541 -0.5713  0.8983
  124OSM   H11G13262   4.751   2.613   7.399 -0.2353 -1.2328 -1.1223
  124OSM   C12F13263   4.882   2.485   7.518 -0.0583 -0.0337 -0.2419
  124OSM   H12F13264   4.979   2.433   7.509 -0.7318 -1.2938 -0.4616
  124OSM   H12G13265   4.817   2.409   7.567  0.4729  0.1570  0.7808
  124OSM   C13F13266   4.888   2.593   7.623  0.6036 -0.0332 -0.1840
  124OSM   H13F13267   4.793   2.650   7.619  1.1485  0.8758 -0.5245
  124OSM   H13G13268   4.966   2.665   7.590  2.2604 -2.4615 -1.9114
  124OSM   C14F13269   4.915   2.546   7.770 -0.2915 -0.4004 -0.3735
  124OSM   H14F13270   5.023   2.520   7.778 -1.0198 -3.1205  2.8899
  124OSM   H14G13271   4.856   2.456   7.799 -1.1952  0.2118 -0.2712
  124OSM   C15F13272   4.882   2.648   7.878  0.0668 -0.7876  0.4462
  124OSM   H15F13273   4.896   2.606   7.980 -0.7788  0.1917  0.9866
  124OSM   H15G13274   4.777   2.681   7.868  0.3783  1.0149  2.4346
  124OSM   C16F13275   4.988   2.766   7.856  0.2648  0.1597 -0.1093
  124OSM   H16F13276   4.951   2.811   7.761  1.3449 -0.4368 -0.8396
  124OSM   H16G13277   5.093   2.744   7.827 -0.2743  1.0501 -3.0431
  124OSM   C17F13278   4.992   2.881   7.958 -0.0101  0.1785 -0.6847
  124OSM   H17F13279   5.046   2.962   7.906  1.0301 -1.1160 -1.6944
  124OSM   H17G13280   5.053   2.862   8.049  0.5006  2.7549 -0.4079
  124OSM   C18F13281   4.855   2.926   8.008  0.2778  0.3922 -0.3712
  124OSM   H18F13282   4.865   3.006   8.084  0.7932  1.1388 -1.2092
  124OSM   H18G13283   4.783   2.845   8.035  0.1934  0.4916 -0.3009
  124OSM   H18H13284   4.792   2.980   7.934  0.3035  0.6486 -0.2033
  125OSM      N13285   6.146   5.435   5.545 -1.2241 -0.1630 -0.2388
  125OSM    C1513286   6.027   5.522   5.554 -0.0787  0.5063  0.4625
  125OSM   H15A13287   6.006   5.577   5.463 -2.9988 -0.0147  0.7135
  125OSM   H15B13288   6.048   5.600   5.626 -0.1113  0.2504  0.7535
  125OSM   H15C13289   5.933   5.471   5.570 -0.3458  0.5390 -0.9165
  125OSM    C1413290   6.153   5.352   5.671  0.0482 -0.4147  0.0950
  125OSM   H14A13291   6.244   5.297   5.690 -0.2298 -0.5445  1.1167
  125OSM   H14B13292   6.075   5.278   5.672  1.1193 -1.6517 -1.9135
  125OSM   H14C13293   6.123   5.427   5.743  0.0901 -1.1752  0.9182
  125OSM    C1313294   6.141   5.345   5.427 -0.2475 -0.8843  0.1200
  125OSM   H13A13295   6.129   5.403   5.337 -1.5089 -0.7817  0.3348
  125OSM   H13B13296   6.053   5.281   5.434 -2.4777  2.0453  0.9014
  125OSM   H13C13297   6.232   5.287   5.425 -0.4949 -1.3457  1.3074
  125OSM    C1213298   6.273   5.518   5.541 -0.2359 -0.2372 -0.3021
  125OSM   H12A13299   6.370   5.472   5.553  0.2680  1.2382  1.8438
  125OSM   H12B13300   6.269   5.576   5.632  1.0066  0.4766 -0.6699
  125OSM    C1113301   6.283   5.620   5.423  0.3260 -0.0762  0.0077
  125OSM   H11A13302   6.190   5.680   5.415  0.0047 -0.7841 -2.2326
  125OSM   H11B13303   6.281   5.573   5.323 -0.1622  0.6783 -0.3439
  125OSM      P13304   6.388   5.847   5.491 -0.1668  0.2802  0.2231
  125OSM    O1313305   6.525   5.889   5.524 -0.0108  0.1390 -0.5356
  125OSM    O1413306   6.317   5.908   5.378  0.9255 -0.2037  0.6075
  125OSM    O1113307   6.288   5.849   5.620  0.6790 -0.4399 -0.3347
  125OSM    O1213308   6.400   5.696   5.443 -0.0163 -0.5006  0.1614
  125OSM    C1S13309   6.296   5.953   5.719  0.3147  0.6584  0.0329
  125OSM    H1S13310   6.255   6.044   5.670  1.7190  0.1844 -2.1902
  125OSM    H1T13311   6.401   5.958   5.756 -0.2628 -0.4530  1.9406
  125OSM     NF13312   6.249   6.035   5.949 -0.5271  0.3275 -0.3482
  125OSM    HNF13313   6.279   6.015   6.042 -2.1985 -0.8616 -0.0099
  125OSM    C2S13314   6.214   5.925   5.853  0.4178 -0.0973 -0.7412
  125OSM    H2S13315   6.109   5.943   5.823 -0.6610  1.4084  3.3343
  125OSM    C3S13316   6.230   5.774   5.896 -0.1552  0.0205  0.1770
  125OSM    H3S13317   6.334   5.748   5.922  0.1987  1.8669  0.7893
  125OSM     O313318   6.197   5.680   5.795 -0.3674 -0.2471  0.7056
  125OSM    HO313319   6.194   5.726   5.711  1.8005  0.0760  0.7438
  125OSM    C4S13320   6.161   5.761   6.027  0.3303  0.6746  0.4556
  125OSM    H4S13321   6.203   5.823   6.107 -1.6643 -0.5434  2.5473
  125OSM    C5S13322   6.044   5.696   6.051  0.4616  0.4749 -0.1629
  125OSM    H5S13323   5.982   5.651   5.973  0.4259  0.8586 -0.3590
  125OSM    C6S13324   5.984   5.695   6.196 -0.2134 -1.0582  0.4954
  125OSM    H6S13325   5.885   5.647   6.209 -1.3351  0.6177 -1.2792
  125OSM    H6T13326   5.979   5.801   6.230  1.3847 -0.0933 -1.9432
  125OSM    C7S13327   6.085   5.633   6.287 -0.0534 -0.4557  0.5950
  125OSM    H7S13328   6.184   5.685   6.289 -0.5864  0.5635  1.5399
  125OSM    H7T13329   6.109   5.531   6.249  2.9170  0.4949 -0.3739
  125OSM    C8S13330   6.030   5.637   6.434  0.0994  0.4654 -0.2231
  125OSM    H8S13331   5.936   5.578   6.439  0.4869 -0.0774  0.8952
  125OSM    H8T13332   6.008   5.743   6.461  2.1533  1.1792 -1.1495
  125OSM    C9S13333   6.134   5.570   6.533 -0.0646  0.5193  0.5100
  125OSM    H9S13334   6.239   5.583   6.499 -0.7015  0.5612 -1.5524
  125OSM    H9T13335   6.102   5.464   6.530  1.0017  0.1177  2.2150
  125OSM   C10S13336   6.104   5.624   6.673  0.0007  0.4087  0.1425
  125OSM   H10S13337   5.994   5.620   6.687 -0.0794  0.6317 -0.4090
  125OSM   H10T13338   6.133   5.731   6.685 -0.0261  0.4626 -0.2849
  125OSM   C11S13339   6.181   5.543   6.780  0.1649 -0.0768  0.2832
  125OSM   H11S13340   6.288   5.552   6.751 -0.0458 -1.3143 -1.0415
  125OSM   H11T13341   6.157   5.434   6.775  1.4739 -0.3537 -0.4057
  125OSM   C12S13342   6.181   5.603   6.917  0.0222  0.8378 -0.7485
  125OSM   H12S13343   6.080   5.576   6.953 -0.4423 -0.4627 -2.8104
  125OSM   H12T13344   6.188   5.713   6.899 -0.2526  0.7472 -1.4810
  125OSM   C13S13345   6.281   5.542   7.011 -0.2521 -0.2720 -0.4634
  125OSM   H13S13346   6.375   5.596   6.985 -2.4736  4.1033 -0.2225
  125OSM   H13T13347   6.280   5.434   6.987 -1.3722 -0.1011 -1.2089
  125OSM   C14S13348   6.243   5.567   7.164 -0.4992 -0.2006  0.2193
  125OSM   H14S13349   6.143   5.519   7.177 -0.8931  0.6421  0.3774
  125OSM   H14T13350   6.220   5.676   7.169 -0.1250 -0.0850 -0.5032
  125OSM   C15S13351   6.345   5.516   7.258  0.2418  0.5116  0.2387
  125OSM   H15S13352   6.441   5.548   7.213  0.0383 -0.1252 -0.6701
  125OSM   H15T13353   6.355   5.407   7.241  1.8136  0.7147 -0.2927
  125OSM   C16S13354   6.327   5.563   7.404 -0.8080  0.3082 -0.5231
  125OSM   H16S13355   6.341   5.673   7.414  1.1119 -0.0884  2.4690
  125OSM   H16T13356   6.401   5.507   7.465 -0.4036  0.3099 -1.0119
  125OSM   C17S13357   6.200   5.505   7.478 -0.2833  0.3382  0.6333
  125OSM   H17S13358   6.185   5.398   7.452  0.9385 -0.1441  1.8251
  125OSM   H17T13359   6.106   5.555   7.446 -0.7343 -0.4339  0.7115
  125OSM   C18S13360   6.216   5.511   7.628 -0.2574  0.0978 -0.0574
  125OSM   H18S13361   6.125   5.472   7.677 -2.0747  0.4993 -2.9176
  125OSM   H18T13362   6.235   5.619   7.650  0.8155 -0.7230  4.0497
  125OSM   H18U13363   6.300   5.451   7.669 -1.2314 -1.9991 -1.0240
  125OSM    C1F13364   6.237   6.160   5.921 -0.0260  0.0250  0.1449
  125OSM     OF13365   6.150   6.194   5.840  0.3420  0.0563 -0.0572
  125OSM    C2F13366   6.337   6.253   5.981 -0.5783 -0.4864 -0.8718
  125OSM    H2F13367   6.423   6.194   6.019  0.8219 -0.0254 -3.1392
  125OSM    H2G13368   6.289   6.291   6.074  0.2491  0.0616 -0.6577
  125OSM    C3F13369   6.375   6.366   5.888 -0.2607  0.3608 -0.4334
  125OSM    H3F13370   6.289   6.433   5.867 -0.0401  1.0002  0.5794
  125OSM    H3G13371   6.399   6.314   5.793 -2.6552 -3.2440  0.7161
  125OSM    C4F13372   6.485   6.463   5.940  0.3704  0.2669  0.4026
  125OSM    H4F13373   6.493   6.545   5.865  0.3575 -0.8880 -0.8948
  125OSM    H4G13374   6.592   6.434   5.944  0.2905  0.0671  1.2748
  125OSM    C5F13375   6.432   6.509   6.080  0.4746 -0.0570 -0.5544
  125OSM    H5F13376   6.437   6.427   6.156 -2.1081  1.7153  1.7206
  125OSM    H5G13377   6.324   6.535   6.083  0.5958  0.4200 -0.2824
  125OSM    C6F13378   6.506   6.626   6.150 -0.3942  0.1445  0.4852
  125OSM    H6F13379   6.436   6.644   6.234 -0.5987  1.2112  0.0977
  125OSM    H6G13380   6.494   6.705   6.073 -2.4133 -1.6991 -1.2103
  125OSM    C7F13381   6.655   6.604   6.171 -0.3251  0.4119 -0.2379
  125OSM    H7F13382   6.712   6.699   6.178  0.7635 -0.1482 -1.2340
  125OSM    H7G13383   6.684   6.539   6.086  1.2883  0.4790  0.2277
  125OSM    C8F13384   6.677   6.512   6.289  0.7513 -0.4315 -0.3940
  125OSM    H8F13385   6.786   6.488   6.282  1.0872  1.2032 -1.0971
  125OSM    H8G13386   6.626   6.416   6.267 -2.5861  1.5476 -2.0632
  125OSM    C9F13387   6.633   6.554   6.428 -0.2471 -0.1553 -0.4362
  125OSM    H9F13388   6.542   6.616   6.435 -0.4297 -0.5093  0.5123
  125OSM   C10F13389   6.691   6.514   6.544  0.0685 -0.0945  0.2231
  125OSM   H10F13390   6.649   6.544   6.641  1.1602 -1.4388  1.1589
  125OSM   C11F13391   6.805   6.410   6.555  0.7903 -0.1402  0.1256
  125OSM   H11F13392   6.830   6.359   6.460  0.1710  2.1886 -1.3783
  125OSM   H11G13393   6.771   6.338   6.633 -1.0306  0.8007  0.2539
  125OSM   C12F13394   6.940   6.462   6.603  0.3694  0.1920  0.3325
  125OSM   H12F13395   6.984   6.521   6.519  0.4044 -0.7887 -0.3594
  125OSM   H12G13396   7.001   6.370   6.617  0.5492  0.4208  1.1042
  125OSM   C13F13397   6.943   6.547   6.729  0.2692  0.5232  0.4450
  125OSM   H13F13398   6.895   6.644   6.704 -1.5615 -0.4158  0.2114
  125OSM   H13G13399   7.040   6.598   6.750  0.4225  0.2954  0.2932
  125OSM   C14F13400   6.868   6.515   6.860  0.4208 -0.2891  0.4319
  125OSM   H14F13401   6.763   6.493   6.831  0.7484 -1.7550  0.3026
  125OSM   H14G13402   6.880   6.610   6.917  0.0203  0.2306 -0.3447
  125OSM   C15F13403   6.906   6.383   6.934  0.1849  0.0712 -0.4311
  125OSM   H15F13404   6.881   6.300   6.863  0.5825  0.1836 -0.7078
  125OSM   H15G13405   6.846   6.373   7.027  0.7795  0.1134 -0.0433
  125OSM   C16F13406   7.052   6.359   6.976 -0.1506  0.0290  0.2559
  125OSM   H16F13407   7.112   6.351   6.883  0.7610 -0.1597  0.8462
  125OSM   H16G13408   7.054   6.259   7.024 -0.4885  0.2648  0.7605
  125OSM   C17F13409   7.104   6.473   7.053  0.0852 -0.9642  0.1122
  125OSM   H17F13410   7.086   6.564   6.992 -1.8597 -1.0884  0.4507
  125OSM   H17G13411   7.213   6.462   7.068  0.0362 -0.5814  0.7784
  125OSM   C18F13412   7.031   6.495   7.189  0.1246 -0.2362  0.0864
  125OSM   H18F13413   6.922   6.493   7.171  0.2501 -1.1820 -0.7333
  125OSM   H18G13414   7.055   6.597   7.224 -1.3772 -0.2297  1.1393
  125OSM   H18H13415   7.062   6.412   7.257  1.7280 -0.4915 -0.8884
  126OSM      N13416   3.101   3.678   6.101 -0.0754 -0.2170 -0.8793
  126OSM    C1513417   3.144   3.670   5.958  0.5376 -0.3796  0.3523
  126OSM   H15A13418   3.058   3.687   5.895 -0.2166  1.5685  1.7805
  126OSM   H15B13419   3.194   3.577   5.939 -0.5950 -0.4955 -2.5388
  126OSM   H15C13420   3.212   3.750   5.932 -0.1394  0.1088  0.0600
  126OSM    C1413421   3.015   3.560   6.131 -0.4359  1.2169  0.6425
  126OSM   H14A13422   2.913   3.564   6.095 -1.2213 -1.0349  2.3915
  126OSM   H14B13423   2.996   3.567   6.237  0.3875  0.3614  0.8564
  126OSM   H14C13424   3.077   3.475   6.106  0.6786  2.2653 -0.3346
  126OSM    C1313425   3.228   3.664   6.180 -0.4088 -0.2030  0.5031
  126OSM   H13A13426   3.203   3.679   6.284 -1.8344  2.8079 -0.1553
  126OSM   H13B13427   3.314   3.723   6.151  1.2204 -0.7174  3.8317
  126OSM   H13C13428   3.256   3.561   6.166  0.2640  0.2202 -1.6126
  126OSM    C1213429   3.032   3.809   6.129  0.2443  0.1781 -0.1793
  126OSM   H12A13430   2.943   3.817   6.068  0.9751 -0.7485 -1.4350
  126OSM   H12B13431   3.089   3.886   6.078 -1.4127  1.2668 -0.4574
  126OSM    C1113432   2.991   3.853   6.270 -0.1633 -0.5776 -0.0225
  126OSM   H11A13433   2.959   3.960   6.266 -0.1116 -0.4920  1.3084
  126OSM   H11B13434   3.082   3.859   6.334  0.9010 -0.7342 -1.4764
  126OSM      P13435   2.744   3.776   6.288  0.0914 -0.1028 -0.4944
  126OSM    O1313436   2.737   3.868   6.174 -0.4258  0.3876 -0.0680
  126OSM    O1413437   2.683   3.638   6.272  0.0093  0.4432 -0.0694
  126OSM    O1113438   2.678   3.848   6.408  0.1198  0.0445 -0.4662
  126OSM    O1213439   2.893   3.765   6.336 -0.7016  0.1550 -0.0068
  126OSM    C1S13440   2.726   3.843   6.537  0.7913  0.6172 -0.2361
  126OSM    H1S13441   2.771   3.745   6.563  0.3576  0.5825  0.4141
  126OSM    H1T13442   2.646   3.867   6.611  1.1058  1.3595 -0.1266
  126OSM     NF13443   2.864   3.923   6.709  0.1023  0.2635 -0.5624
  126OSM    HNF13444   2.853   4.003   6.767  1.3351  0.0306  0.0366
  126OSM    C2S13445   2.828   3.945   6.573 -0.8630  0.5185 -0.2048
  126OSM    H2S13446   2.914   3.910   6.512 -0.1892  2.0894 -0.2148
  126OSM    C3S13447   2.791   4.087   6.535  0.0716 -0.5439  0.4853
  126OSM    H3S13448   2.705   4.128   6.592 -0.8851  0.3928 -1.5247
  126OSM     O313449   2.755   4.103   6.396 -0.2254 -0.2139  0.3144
  126OSM    HO313450   2.744   4.016   6.356  0.2081  0.0642 -0.4374
  126OSM    C4S13451   2.898   4.184   6.570  0.5246  0.5408 -0.9003
  126OSM    H4S13452   2.999   4.144   6.555 -1.1004 -4.4472 -0.1429
  126OSM    C5S13453   2.883   4.303   6.623  0.4502 -0.1748 -0.0225
  126OSM    H5S13454   2.779   4.336   6.630  0.6257  1.5374 -3.2089
  126OSM    C6S13455   2.988   4.406   6.660  0.1422 -0.9641  0.2836
  126OSM    H6S13456   2.980   4.498   6.598 -2.1725 -0.5204  1.1582
  126OSM    H6T13457   3.092   4.366   6.652  0.9644 -0.3047  5.0108
  126OSM    C7S13458   2.964   4.458   6.805  0.0745 -0.7712 -0.2306
  126OSM    H7S13459   2.855   4.475   6.822  0.1078 -2.2791  1.8657
  126OSM    H7T13460   3.019   4.554   6.809 -0.7564 -0.3324  1.7124
  126OSM    C8S13461   3.011   4.365   6.914  0.2265 -0.1358  0.5899
  126OSM    H8S13462   3.111   4.336   6.876  0.1720  2.1198 -1.5096
  126OSM    H8T13463   2.945   4.278   6.895  1.0515 -0.4166 -1.1095
  126OSM    C9S13464   3.024   4.419   7.049 -0.6936  0.2378  0.0601
  126OSM    H9S13465   2.922   4.459   7.072 -1.1899 -0.6724 -0.5002
  126OSM    H9T13466   3.087   4.510   7.045  1.8305 -1.4590 -0.9891
  126OSM   C10S13467   3.087   4.322   7.141  0.0757 -0.0287  0.2516
  126OSM   H10S13468   3.196   4.322   7.121 -0.2165 -0.1901 -1.4824
  126OSM   H10T13469   3.044   4.219   7.135  0.6636 -0.2895  0.4699
  126OSM   C11S13470   3.061   4.374   7.278  0.0847  0.1495 -0.2440
  126OSM   H11S13471   2.951   4.359   7.280  0.1021 -0.5758 -2.5452
  126OSM   H11T13472   3.095   4.479   7.294  0.0873  0.4993 -2.2858
  126OSM   C12S13473   3.135   4.295   7.386 -0.5051 -0.1873  0.1120
  126OSM   H12S13474   3.240   4.273   7.359 -1.3790 -1.8121 -2.2722
  126OSM   H12T13475   3.096   4.191   7.390  3.2897 -1.8326 -1.1158
  126OSM   C13S13476   3.125   4.356   7.519 -0.1444  0.1504 -0.0012
  126OSM   H13S13477   3.112   4.274   7.593  0.4615 -1.4165 -1.5418
  126OSM   H13T13478   3.038   4.425   7.526 -0.5488 -0.3961  0.4770
  126OSM   C14S13479   3.248   4.441   7.566  0.3776  0.2289 -0.7782
  126OSM   H14S13480   3.288   4.500   7.481 -0.3372 -1.0743 -2.0585
  126OSM   H14T13481   3.334   4.377   7.596 -0.2528 -0.4164 -0.3127
  126OSM   C15S13482   3.216   4.532   7.687  0.5616  0.9735  0.4678
  126OSM   H15S13483   3.155   4.477   7.762  0.3357 -1.3052 -1.2720
  126OSM   H15T13484   3.143   4.608   7.651  1.2819  1.8756  0.8842
  126OSM   C16S13485   3.339   4.579   7.762 -0.0965  0.0241  0.0016
  126OSM   H16S13486   3.388   4.656   7.700 -2.5488  1.5003 -0.2497
  126OSM   H16T13487   3.419   4.503   7.776 -0.7461 -0.1913  3.2881
  126OSM   C17S13488   3.315   4.639   7.896  1.0078  0.4269  0.1916
  126OSM   H17S13489   3.217   4.690   7.893  0.0285 -1.0317  3.0544
  126OSM   H17T13490   3.401   4.702   7.928  2.0485 -0.1754 -1.2840
  126OSM   C18S13491   3.309   4.529   8.002  0.1886 -0.1081  0.0436
  126OSM   H18S13492   3.402   4.479   8.038 -1.6590 -1.2618  3.7245
  126OSM   H18T13493   3.245   4.447   7.963  0.5674 -1.5282  2.2111
  126OSM   H18U13494   3.247   4.565   8.087  0.5968 -0.2555  0.4127
  126OSM    C1F13495   2.917   3.816   6.767  0.6303 -0.1886  0.3722
  126OSM     OF13496   3.000   3.753   6.702 -0.1455 -0.4396 -0.3445
  126OSM    C2F13497   2.857   3.783   6.894  0.2975 -0.8716 -0.8900
  126OSM    H2F13498   2.747   3.769   6.888 -0.3552  2.4023  0.9744
  126OSM    H2G13499   2.872   3.867   6.965  1.8304 -1.7685 -0.0973
  126OSM    C3F13500   2.917   3.662   6.969  0.4747 -0.9539 -0.4721
  126OSM    H3F13501   3.027   3.673   6.975  0.4566 -0.5546 -0.8352
  126OSM    H3G13502   2.902   3.569   6.909 -0.0984 -0.8062 -0.5647
  126OSM    C4F13503   2.871   3.627   7.113 -0.8672  0.1232  0.5263
  126OSM    H4F13504   2.936   3.545   7.148 -1.2045 -1.2024 -1.7514
  126OSM    H4G13505   2.773   3.575   7.115 -0.9514  0.2575  0.0218
  126OSM    C5F13506   2.880   3.746   7.207 -0.3343  0.3601  0.4873
  126OSM    H5F13507   2.808   3.823   7.174  0.2767  0.6008 -0.3407
  126OSM    H5G13508   2.976   3.799   7.191  0.0657  0.0408  1.7384
  126OSM    C6F13509   2.877   3.708   7.354 -0.4318 -0.0288  0.4018
  126OSM    H6F13510   2.921   3.781   7.426  0.3821 -3.0002  3.1678
  126OSM    H6G13511   2.945   3.622   7.369  1.9465  1.5690 -0.6079
  126OSM    C7F13512   2.735   3.675   7.408 -0.3409 -0.0737 -0.2100
  126OSM    H7F13513   2.694   3.589   7.350 -0.4155 -1.3048  1.5979
  126OSM    H7G13514   2.675   3.768   7.407  1.6916  1.3170  0.8378
  126OSM    C8F13515   2.739   3.643   7.563 -0.1019 -0.4332 -0.2941
  126OSM    H8F13516   2.774   3.734   7.617 -1.7486 -0.4421  0.8890
  126OSM    H8G13517   2.814   3.561   7.568  0.1729 -0.2160 -0.8405
  126OSM    C9F13518   2.615   3.588   7.628  0.6992  0.8641  0.3354
  126OSM    H9F13519   2.537   3.583   7.550  1.6611 -0.3439 -0.5928
  126OSM   C10F13520   2.579   3.564   7.752  0.0063  0.2838 -0.2176
  126OSM   H10F13521   2.477   3.532   7.780  0.2856 -0.8344 -0.4084
  126OSM   C11F13522   2.660   3.577   7.880  0.7585 -0.1976  0.1951
  126OSM   H11F13523   2.770   3.568   7.864  0.3599 -0.7773 -2.8597
  126OSM   H11G13524   2.631   3.486   7.937 -0.2055 -0.0385 -0.0169
  126OSM   C12F13525   2.624   3.702   7.964 -0.1125 -0.1105  0.2264
  126OSM   H12F13526   2.656   3.684   8.069  2.2462  1.5614 -0.1332
  126OSM   H12G13527   2.515   3.724   7.963  0.2142  1.7630  1.6645
  126OSM   C13F13528   2.684   3.834   7.919 -0.2544  0.2017 -0.5046
  126OSM   H13F13529   2.643   3.865   7.821  1.6636  2.0262 -0.8168
  126OSM   H13G13530   2.790   3.813   7.893 -1.2940 -3.3608 -2.5688
  126OSM   C14F13531   2.666   3.946   8.023 -0.0307 -0.3791  0.2650
  126OSM   H14F13532   2.718   3.925   8.119  0.0909 -0.1677  0.2466
  126OSM   H14G13533   2.558   3.955   8.044  0.0491 -0.9134  0.9383
  126OSM   C15F13534   2.730   4.078   7.970  0.1614  0.1137  0.4099
  126OSM   H15F13535   2.681   4.109   7.875 -0.8157 -2.9179 -0.1871
  126OSM   H15G13536   2.836   4.057   7.944 -0.4995 -0.0139 -2.5374
  126OSM   C16F13537   2.714   4.200   8.058 -0.1516  0.2564 -0.0789
  126OSM   H16F13538   2.745   4.172   8.161 -2.0659 -2.0752 -0.0355
  126OSM   H16G13539   2.605   4.223   8.059 -0.2545 -0.2225  1.0963
  126OSM   C17F13540   2.785   4.320   7.999 -0.5752 -0.1677  0.2164
  126OSM   H17F13541   2.736   4.407   8.049 -0.2968  0.1291 -0.0220
  126OSM   H17G13542   2.771   4.326   7.889  0.4189  1.3170  0.1384
  126OSM   C18F13543   2.933   4.331   8.029 -0.1162 -0.1731  0.4677
  126OSM   H18F13544   2.952   4.322   8.138  0.2755  3.5348  0.8606
  126OSM   H18G13545   2.977   4.428   7.997 -0.8424 -0.3581 -1.1825
  126OSM   H18H13546   2.989   4.248   7.981  0.6376  1.6897 -2.1386
  127OSM      N13547   3.173   2.561   6.067  0.7003 -0.7418  0.2721
  127OSM    C1513548   3.090   2.455   5.995 -0.2505  0.6724  0.3756
  127OSM   H15A13549   3.014   2.424   6.066 -1.2851  1.2976 -0.4230
  127OSM   H15B13550   3.157   2.388   5.942 -0.3154 -0.0771  1.2256
  127OSM   H15C13551   3.042   2.515   5.919 -1.9781  2.5339  2.7594
  127OSM    C1413552   3.073   2.646   6.139  0.1013  0.3710  0.0273
  127OSM   H14A13553   3.018   2.575   6.200  1.2637 -0.3226  0.2952
  127OSM   H14B13554   3.000   2.692   6.074 -0.9471 -1.4144 -0.1487
  127OSM   H14C13555   3.124   2.727   6.187 -1.7344  1.1918  0.6708
  127OSM    C1313556   3.257   2.485   6.155 -0.7725  0.6673  0.5265
  127OSM   H13A13557   3.320   2.416   6.101 -0.4395  1.7272 -0.4602
  127OSM   H13B13558   3.198   2.430   6.227  0.4490 -2.6483 -0.7871
  127OSM   H13C13559   3.338   2.535   6.206  1.0261 -2.0413  0.5717
  127OSM    C1213560   3.251   2.655   5.982  0.1471  1.0163 -0.1566
  127OSM   H12A13561   3.323   2.710   6.041  0.3239  3.3730 -2.4353
  127OSM   H12B13562   3.186   2.726   5.935  2.8571  2.9878 -1.1264
  127OSM    C1113563   3.329   2.583   5.861 -0.3548 -0.0850  0.1419
  127OSM   H11A13564   3.368   2.660   5.792  1.4841 -1.8684 -0.8999
  127OSM   H11B13565   3.254   2.522   5.806  0.2913 -1.7193  0.9923
  127OSM      P13566   3.587   2.542   5.903  0.1267 -0.2385 -0.0121
  127OSM    O1313567   3.665   2.429   5.954  0.6934 -0.5635  0.2575
  127OSM    O1413568   3.600   2.580   5.758  0.1376 -0.9785  0.1427
  127OSM    O1113569   3.603   2.667   5.998  0.2730 -0.7817  0.0516
  127OSM    O1213570   3.436   2.493   5.907  0.1788  0.5132 -0.0601
  127OSM    C1S13571   3.593   2.653   6.145 -0.6127 -0.1159  0.3328
  127OSM    H1S13572   3.568   2.553   6.185 -1.2006  0.6352  1.9539
  127OSM    H1T13573   3.518   2.723   6.188 -0.8969 -0.7801  0.9471
  127OSM     NF13574   3.724   2.683   6.347 -1.1300 -0.2026  1.4359
  127OSM    HNF13575   3.709   2.773   6.387  0.1287 -0.7238  3.2287
  127OSM    C2S13576   3.739   2.693   6.204 -0.4437 -0.0092 -0.4553
  127OSM    H2S13577   3.825   2.628   6.178  1.4277  0.9840  2.6443
  127OSM    C3S13578   3.770   2.840   6.160 -0.8475 -0.1222 -0.3359
  127OSM    H3S13579   3.682   2.900   6.191 -0.5958 -0.3444  0.8546
  127OSM     O313580   3.792   2.856   6.022 -0.6160  0.4192  0.2499
  127OSM    HO313581   3.744   2.782   5.983  1.3857 -0.2002 -1.2062
  127OSM    C4S13582   3.880   2.898   6.232  0.2608 -0.5711  0.1825
  127OSM    H4S13583   3.976   2.855   6.200  0.0990  0.0358 -1.1743
  127OSM    C5S13584   3.879   3.004   6.311  0.2236 -0.5922 -0.4120
  127OSM    H5S13585   3.793   3.067   6.335  0.5368 -1.3204  3.1962
  127OSM    C6S13586   4.011   3.059   6.368  0.3394 -0.4922 -0.1074
  127OSM    H6S13587   3.998   3.085   6.475  1.5256 -2.6059  0.6157
  127OSM    H6T13588   4.031   3.149   6.306 -0.2316 -0.4477 -0.2413
  127OSM    C7S13589   4.149   2.983   6.373 -0.0255 -0.0079  0.4666
  127OSM    H7S13590   4.178   2.948   6.272  0.6873  0.5118  0.4875
  127OSM    H7T13591   4.151   2.888   6.430  1.4537 -1.5779 -2.0374
  127OSM    C8S13592   4.256   3.079   6.421 -0.0177  0.9068 -0.1343
  127OSM    H8S13593   4.236   3.109   6.527  0.0907 -0.9271  0.4411
  127OSM    H8T13594   4.264   3.171   6.359  0.1976 -0.1594 -1.7403
  127OSM    C9S13595   4.401   3.022   6.431  0.1792  0.3191  0.8879
  127OSM    H9S13596   4.451   3.100   6.493 -1.5697  0.4006  2.2641
  127OSM    H9T13597   4.442   3.020   6.327  0.2007  0.1009  0.8996
  127OSM   C10S13598   4.419   2.887   6.496 -0.5657  0.3447  0.3187
  127OSM   H10S13599   4.399   2.809   6.420  1.6492 -0.5665  0.5921
  127OSM   H10T13600   4.346   2.878   6.579 -0.0346 -1.7115  0.6082
  127OSM   C11S13601   4.560   2.849   6.536 -0.3083  0.5051  0.5796
  127OSM   H11S13602   4.628   2.862   6.449 -0.7182 -2.2215 -0.2197
  127OSM   H11T13603   4.564   2.744   6.570  0.0086  0.4099  0.2551
  127OSM   C12S13604   4.618   2.931   6.658  0.4880  0.3336 -0.0018
  127OSM   H12S13605   4.587   2.889   6.756  0.5417 -1.6126 -0.7588
  127OSM   H12T13606   4.584   3.035   6.644  1.9278  1.4034  3.5018
  127OSM   C13S13607   4.774   2.938   6.658 -0.7893 -0.1633  0.0217
  127OSM   H13S13608   4.824   2.840   6.647 -1.3746 -0.4442 -0.1416
  127OSM   H13T13609   4.812   2.974   6.757  0.3497  0.2395 -0.5371
  127OSM   C14S13610   4.833   3.042   6.559 -0.0581  0.6458  0.6365
  127OSM   H14S13611   4.777   3.137   6.574 -0.6489  0.1976  1.2848
  127OSM   H14T13612   4.804   3.012   6.456  0.7105  1.0287  0.2945
  127OSM   C15S13613   4.985   3.044   6.543 -0.1713 -0.4289  0.2201
  127OSM   H15S13614   5.016   2.937   6.531  1.4718  0.1084 -0.6841
  127OSM   H15T13615   5.042   3.072   6.634  1.7895  1.1644 -1.3798
  127OSM   C16S13616   5.019   3.141   6.429 -0.2207 -0.1312  0.1934
  127OSM   H16S13617   4.971   3.235   6.464 -0.4089  0.7633 -2.2524
  127OSM   H16T13618   4.960   3.113   6.339 -2.3370 -1.2581  1.8558
  127OSM   C17S13619   5.170   3.150   6.414 -0.3504 -0.2318 -0.6872
  127OSM   H17S13620   5.225   3.123   6.506  0.6759 -0.8719 -1.4611
  127OSM   H17T13621   5.190   3.254   6.381  1.4266  1.1213  3.9724
  127OSM   C18S13622   5.229   3.060   6.302  0.9358 -0.6337  0.3559
  127OSM   H18S13623   5.216   2.952   6.327  2.2306 -1.3747 -1.9199
  127OSM   H18T13624   5.337   3.077   6.285  1.0750 -2.4887 -0.8975
  127OSM   H18U13625   5.182   3.076   6.202  1.7779 -1.5694 -0.2010
  127OSM    C1F13626   3.709   2.567   6.412 -0.6429 -0.2346  0.9084
  127OSM     OF13627   3.702   2.457   6.348 -0.0374  0.1371  0.2983
  127OSM    C2F13628   3.710   2.570   6.566 -0.3911 -0.6299  0.2505
  127OSM    H2F13629   3.627   2.640   6.591  0.2964  0.2259  0.1555
  127OSM    H2G13630   3.808   2.607   6.602  0.5727 -3.0693  0.3245
  127OSM    C3F13631   3.679   2.433   6.645  0.7601 -0.3322  0.6347
  127OSM    H3F13632   3.767   2.365   6.634  2.3688  1.8719 -1.2419
  127OSM    H3G13633   3.588   2.386   6.604  0.5880  1.2616 -0.9409
  127OSM    C4F13634   3.671   2.457   6.800  0.3025 -0.1457 -0.4967
  127OSM    H4F13635   3.586   2.526   6.818  0.9302  0.9584 -1.6049
  127OSM    H4G13636   3.760   2.515   6.832 -1.3969  0.6129  3.3728
  127OSM    C5F13637   3.658   2.341   6.897  0.3618 -0.3121 -0.1393
  127OSM    H5F13638   3.713   2.252   6.859 -1.3565 -0.7504 -1.7305
  127OSM    H5G13639   3.550   2.316   6.906 -0.4859  1.9445 -2.5931
  127OSM    C6F13640   3.707   2.382   7.033  0.3568 -0.2073  0.4716
  127OSM    H6F13641   3.669   2.485   7.052 -2.2137 -0.5585 -2.0417
  127OSM    H6G13642   3.818   2.379   7.036  0.3228 -1.6953  2.0812
  127OSM    C7F13643   3.661   2.277   7.134 -0.4655 -0.1929  0.5141
  127OSM    H7F13644   3.647   2.185   7.073 -2.0212 -0.3271  1.0359
  127OSM    H7G13645   3.573   2.309   7.194  0.0845  0.1777  1.1363
  127OSM    C8F13646   3.768   2.245   7.235 -0.1242 -0.1747  0.2077
  127OSM    H8F13647   3.797   2.338   7.287  1.5107 -0.4925 -0.1014
  127OSM    H8G13648   3.857   2.209   7.180 -0.5934  0.3798 -0.9427
  127OSM    C9F13649   3.721   2.140   7.327  0.4767  0.4323 -0.7890
  127OSM    H9F13650   3.637   2.180   7.385  1.0722 -0.1375  0.5076
  127OSM   C10F13651   3.751   2.006   7.333  0.8623 -0.3071 -0.0721
  127OSM   H10F13652   3.697   1.949   7.410 -0.5066  0.9762 -0.0316
  127OSM   C11F13653   3.854   1.927   7.256  0.2594 -0.3338  0.7689
  127OSM   H11F13654   3.906   1.872   7.337 -0.1774 -1.4298  0.3336
  127OSM   H11G13655   3.924   1.995   7.202 -0.9509 -0.1197 -0.5918
  127OSM   C12F13656   3.790   1.822   7.160 -0.3722  0.6428  0.0505
  127OSM   H12F13657   3.707   1.768   7.210  1.0227 -0.5592  1.1846
  127OSM   H12G13658   3.863   1.744   7.131 -0.0625  0.3046  1.6050
  127OSM   C13F13659   3.728   1.874   7.032 -0.1976 -0.5232 -0.6371
  127OSM   H13F13660   3.792   1.951   6.983  0.4420  0.8656  2.1924
  127OSM   H13G13661   3.648   1.938   7.075 -0.3126 -1.5942  0.7839
  127OSM   C14F13662   3.657   1.778   6.925 -0.3606 -0.3043 -0.4109
  127OSM   H14F13663   3.603   1.848   6.858  2.6453  1.4522 -1.2067
  127OSM   H14G13664   3.585   1.718   6.985 -0.1155 -1.6426 -1.4117
  127OSM   C15F13665   3.743   1.665   6.851  0.4275 -0.6435 -0.2369
  127OSM   H15F13666   3.786   1.596   6.926 -2.0415 -1.0171  0.9597
  127OSM   H15G13667   3.821   1.719   6.793  0.5628 -1.6694 -1.0366
  127OSM   C16F13668   3.651   1.594   6.751 -0.5950 -0.1420 -0.0130
  127OSM   H16F13669   3.650   1.647   6.654  1.2335  0.9814  0.5367
  127OSM   H16G13670   3.553   1.594   6.803  0.4209  1.7389  2.0580
  127OSM   C17F13671   3.690   1.447   6.723 -0.2382 -0.0864 -0.6338
  127OSM   H17F13672   3.678   1.382   6.813 -2.0193  2.2548  0.9267
  127OSM   H17G13673   3.796   1.448   6.689 -0.5149 -0.3065 -1.5374
  127OSM   C18F13674   3.615   1.386   6.611  0.5896  0.5102 -0.4527
  127OSM   H18F13675   3.631   1.442   6.517 -0.9762  1.6293 -0.0898
  127OSM   H18G13676   3.505   1.379   6.623  0.8257 -1.6000  1.0629
  127OSM   H18H13677   3.639   1.279   6.593  2.1058  0.8217 -0.4124
  128OSM      N13678   1.027   1.190   5.627 -0.7428 -0.0595  0.0650
  128OSM    C1513679   1.119   1.212   5.512  0.3622  0.4163 -0.1199
  128OSM   H15A13680   1.223   1.201   5.542  0.2738 -2.9180 -0.6123
  128OSM   H15B13681   1.109   1.308   5.464  0.3448  1.1014  1.1888
  128OSM   H15C13682   1.101   1.135   5.438 -3.2123  1.4320 -0.4920
  128OSM    C1413683   1.067   1.274   5.735  0.0147 -0.1880 -0.3356
  128OSM   H14A13684   1.062   1.377   5.703 -1.7699  0.0745  0.6614
  128OSM   H14B13685   1.169   1.252   5.762  0.6516  1.0295 -1.5964
  128OSM   H14C13686   1.000   1.261   5.819 -1.2340  1.8525 -0.9515
  128OSM    C1313687   0.890   1.232   5.592 -0.4085  0.1716  0.5478
  128OSM   H13A13688   0.814   1.225   5.668 -2.9105 -0.3341 -1.8325
  128OSM   H13B13689   0.872   1.166   5.508  1.4659  0.7014 -0.3222
  128OSM   H13C13690   0.897   1.329   5.545  0.8482 -0.6084 -0.9773
  128OSM    C1213691   1.027   1.045   5.673  0.0790  0.4229  0.2536
  128OSM   H12A13692   0.973   0.991   5.596 -3.8785  1.4779  2.0236
  128OSM   H12B13693   0.976   1.032   5.767 -0.6651  1.7064  0.0560
  128OSM    C1113694   1.165   0.978   5.700  0.6287  0.2871 -0.5896
  128OSM   H11A13695   1.220   0.980   5.603 -2.7329  1.0861 -2.6675
  128OSM   H11B13696   1.141   0.871   5.714  1.0500  0.2718  0.0105
  128OSM      P13697   1.186   0.985   5.961 -0.0769 -0.0421 -0.0614
  128OSM    O1313698   1.300   0.958   6.050 -0.3630  0.0551 -0.4772
  128OSM    O1413699   1.086   1.086   5.990 -0.6733  0.5230 -0.4191
  128OSM    O1113700   1.101   0.850   5.946  0.2355  0.2197  0.8184
  128OSM    O1213701   1.233   1.022   5.819 -0.1339  0.7588  0.0770
  128OSM    C1S13702   1.057   0.781   6.062  0.3718  0.0104  0.8929
  128OSM    H1S13703   1.142   0.769   6.133  1.5060 -0.6163 -0.5161
  128OSM    H1T13704   1.029   0.675   6.042  0.9728  0.0921 -0.5200
  128OSM     NF13705   0.898   0.789   6.256 -0.1541  0.2445 -0.2505
  128OSM    HNF13706   0.820   0.727   6.254 -1.0250  1.1556  1.9982
  128OSM    C2S13707   0.930   0.852   6.124 -1.0493  0.2207  0.5719
  128OSM    H2S13708   0.955   0.957   6.151 -0.9509 -0.3054  2.6941
  128OSM    C3S13709   0.811   0.860   6.026 -0.2122  0.6566  0.1371
  128OSM    H3S13710   0.785   0.757   5.994  1.3606 -0.0261  0.9551
  128OSM     O313711   0.829   0.932   5.908  0.1895 -0.2739  0.4287
  128OSM    HO313712   0.923   0.951   5.903 -0.0709  0.7700 -3.1245
  128OSM    C4S13713   0.681   0.907   6.087  0.5396  0.8442 -0.4760
  128OSM    H4S13714   0.696   0.988   6.160  1.6148  0.0039  0.2871
  128OSM    C5S13715   0.558   0.848   6.084  0.2070  0.3661 -0.1013
  128OSM    H5S13716   0.542   0.752   6.032 -2.9108  1.0844 -0.7231
  128OSM    C6S13717   0.436   0.893   6.168 -0.0749  0.3390  0.1021
  128OSM    H6S13718   0.417   0.814   6.244 -0.6910  1.4994  1.1867
  128OSM    H6T13719   0.353   0.910   6.096  1.4334  0.8715 -1.5752
  128OSM    C7S13720   0.449   1.034   6.236  0.3538  0.6257  0.3388
  128OSM    H7S13721   0.350   1.081   6.254  0.6629  2.6519 -2.5180
  128OSM    H7T13722   0.505   1.102   6.168 -1.6699 -0.0179 -2.1057
  128OSM    C8S13723   0.544   1.031   6.362  0.5246 -0.2518 -1.3464
  128OSM    H8S13724   0.572   1.137   6.379  0.2289 -0.1001 -1.7943
  128OSM    H8T13725   0.637   0.971   6.355  1.0458  0.4448 -0.6497
  128OSM    C9S13726   0.473   0.960   6.479 -0.0089 -0.4386  0.8568
  128OSM    H9S13727   0.455   0.853   6.458 -1.7270 -0.2192  1.1333
  128OSM    H9T13728   0.373   1.004   6.500 -0.2200  0.2445 -1.3420
  128OSM   C10S13729   0.558   0.977   6.610 -0.0736 -0.0513  0.1888
  128OSM   H10S13730   0.600   1.079   6.601  2.1439 -0.9529 -0.5922
  128OSM   H10T13731   0.645   0.908   6.612 -0.3732 -0.4667 -0.5337
  128OSM   C11S13732   0.480   0.957   6.740 -0.1350  0.4030 -0.1150
  128OSM   H11S13733   0.446   0.852   6.752 -0.4408  0.1463 -2.6252
  128OSM   H11T13734   0.392   1.022   6.759 -0.3261  0.0655  0.1683
  128OSM   C12S13735   0.571   0.983   6.877  0.5423 -0.1242  0.4453
  128OSM   H12S13736   0.602   1.087   6.856 -0.0938 -0.4962 -2.8996
  128OSM   H12T13737   0.653   0.908   6.873  1.5573  1.0204 -1.7963
  128OSM   C13S13738   0.488   0.983   6.999 -0.4429 -0.0340 -0.7851
  128OSM   H13S13739   0.454   0.878   7.007 -1.2416  0.2738  0.1653
  128OSM   H13T13740   0.403   1.056   6.997  1.0732  1.8843  0.7575
  128OSM   C14S13741   0.565   1.011   7.132 -0.0816 -0.1658 -0.2941
  128OSM   H14S13742   0.599   1.116   7.130 -1.5025  0.3842  1.3911
  128OSM   H14T13743   0.659   0.952   7.122 -0.0759 -0.4920  1.4093
  128OSM   C15S13744   0.490   0.983   7.256 -0.1926  0.1078 -0.3617
  128OSM   H15S13745   0.501   0.874   7.276  2.4133 -0.2667 -3.1056
  128OSM   H15T13746   0.383   1.016   7.254 -0.6003 -1.0500 -3.3476
  128OSM   C16S13747   0.537   1.064   7.380  0.1575 -0.4017  0.2818
  128OSM   H16S13748   0.479   1.158   7.390  1.2360  0.4400 -1.0895
  128OSM   H16T13749   0.644   1.087   7.359 -0.0650 -0.6030 -1.1902
  128OSM   C17S13750   0.531   0.980   7.509 -1.2194 -0.7520 -0.0753
  128OSM   H17S13751   0.619   1.009   7.571 -1.4178  1.3022 -0.6644
  128OSM   H17T13752   0.559   0.876   7.481  2.2243 -0.3484  1.3269
  128OSM   C18S13753   0.406   0.983   7.590  0.1737 -0.0660  0.2854
  128OSM   H18S13754   0.421   0.926   7.684 -0.8179 -0.1796  0.3859
  128OSM   H18T13755   0.323   0.943   7.528  0.0380  1.3540 -0.4952
  128OSM   H18U13756   0.372   1.087   7.612  3.2333  1.2599 -0.6920
  128OSM    C1F13757   0.982   0.782   6.357  0.4128 -0.2986  0.2091
  128OSM     OF13758   1.084   0.844   6.366 -0.0847  0.4107 -0.3084
  128OSM    C2F13759   0.940   0.698   6.466  0.5067  0.2215 -0.1371
  128OSM    H2F13760   0.980   0.597   6.443  1.6793  0.9736 -1.5791
  128OSM    H2G13761   0.829   0.691   6.466  0.2539  2.9914  1.1546
  128OSM    C3F13762   0.986   0.740   6.604 -0.2163 -0.3459  0.2003
  128OSM    H3F13763   0.934   0.830   6.644 -0.3496 -0.7358  0.9102
  128OSM    H3G13764   1.094   0.770   6.606 -0.8488  2.2294  2.8626
  128OSM    C4F13765   0.962   0.629   6.712  0.3286 -0.1119 -0.3277
  128OSM    H4F13766   1.019   0.541   6.675  1.3092  0.7166 -0.8572
  128OSM    H4G13767   0.858   0.592   6.710  0.1436  0.4224 -1.5009
  128OSM    C5F13768   1.021   0.660   6.853  0.1385  0.0010 -0.6790
  128OSM    H5F13769   1.121   0.705   6.836  0.5014 -0.3829  0.4018
  128OSM    H5G13770   1.040   0.569   6.913  1.2861  1.4314  1.2214
  128OSM    C6F13771   0.939   0.756   6.939  0.7027 -0.3181  0.0107
  128OSM    H6F13772   0.855   0.693   6.975  2.0805 -1.5960  1.1195
  128OSM    H6G13773   0.902   0.838   6.875 -0.0952  0.6601  1.6426
  128OSM    C7F13774   0.999   0.828   7.062 -0.1696  0.0178  0.2364
  128OSM    H7F13775   0.930   0.910   7.092 -1.6852 -1.1127 -0.0029
  128OSM    H7G13776   1.087   0.878   7.017  0.7753  0.7339  2.6913
  128OSM    C8F13777   1.039   0.750   7.193 -0.0333 -0.0012  0.7002
  128OSM    H8F13778   1.094   0.816   7.264  2.0384 -3.0640  2.1400
  128OSM    H8G13779   1.109   0.678   7.146 -0.6029  0.8033 -1.5154
  128OSM    C9F13780   0.934   0.677   7.270  0.5312 -1.0061  0.9455
  128OSM    H9F13781   0.865   0.622   7.205  0.6237  2.3829 -2.3129
  128OSM   C10F13782   0.905   0.688   7.398 -0.2379 -0.7018 -0.0861
  128OSM   H10F13783   0.829   0.627   7.448 -0.6972 -1.0130 -1.1446
  128OSM   C11F13784   0.990   0.778   7.494  0.1846  0.5001 -0.5618
  128OSM   H11F13785   0.918   0.854   7.531 -1.6504 -1.1735 -0.5056
  128OSM   H11G13786   1.075   0.834   7.450  1.0931 -0.9055 -0.6639
  128OSM   C12F13787   1.030   0.711   7.627  0.5257 -0.0484  0.1610
  128OSM   H12F13788   1.116   0.643   7.614 -0.6538 -2.0397  2.0667
  128OSM   H12G13789   0.953   0.643   7.670 -0.3651  0.0093 -1.2470
  128OSM   C13F13790   1.070   0.817   7.734  0.2790  0.3788  0.4452
  128OSM   H13F13791   0.981   0.879   7.755 -1.6653 -2.3343  0.7751
  128OSM   H13G13792   1.155   0.880   7.699  1.7926  0.0153  3.1621
  128OSM   C14F13793   1.106   0.756   7.869  0.3164 -0.2576  0.0325
  128OSM   H14F13794   1.189   0.683   7.870  1.4525  1.0090  0.2922
  128OSM   H14G13795   1.017   0.701   7.906  1.0786 -1.6549 -0.1728
  128OSM   C15F13796   1.147   0.864   7.969 -0.0485  0.2600  0.2209
  128OSM   H15F13797   1.115   0.822   8.067 -0.7232 -0.4833 -0.3046
  128OSM   H15G13798   1.084   0.955   7.952 -3.0316 -1.9991 -1.8715
  128OSM   C16F13799   1.302   0.890   7.968  0.5847  0.4807  0.2719
  128OSM   H16F13800   1.319   0.992   8.009  2.9468  0.8126 -1.3236
  128OSM   H16G13801   1.349   0.882   7.867 -2.7172 -0.4640 -1.3168
  128OSM   C17F13802   1.384   0.817   8.072  0.5759 -0.4253  0.2619
  128OSM   H17F13803   1.388   0.707   8.059  1.6002 -0.3361 -0.3233
  128OSM   H17G13804   1.343   0.839   8.173 -0.1354  1.1478 -0.3386
  128OSM   C18F13805   1.534   0.846   8.082  0.4928 -0.3920  0.2021
  128OSM   H18F13806   1.554   0.943   8.033 -1.5066  0.0428  0.1532
  128OSM   H18G13807   1.595   0.770   8.029 -0.8271 -2.4919  1.4803
  128OSM   H18H13808   1.564   0.850   8.189 -0.9059 -2.6812  0.7732
  129OSM      N13809   4.943   4.380   5.706 -0.2741 -0.6479 -0.4744
  129OSM    C1513810   5.010   4.253   5.676  0.4288  0.1439  0.2622
  129OSM   H15A13811   5.112   4.239   5.708 -0.0548 -0.8773  1.4521
  129OSM   H15B13812   5.019   4.252   5.568 -0.4349  0.8510  0.1667
  129OSM   H15C13813   4.961   4.160   5.700 -0.1796  0.0432 -1.2869
  129OSM    C1413814   5.012   4.496   5.631  0.6028  0.3909 -0.3531
  129OSM   H14A13815   5.118   4.479   5.643  0.4650  0.5798  1.4459
  129OSM   H14B13816   4.987   4.584   5.688 -1.9275 -0.9760  0.8015
  129OSM   H14C13817   4.992   4.487   5.525  0.2246  1.9910 -0.4326
  129OSM    C1313818   4.802   4.378   5.659 -0.0314 -0.5459  0.3637
  129OSM   H13A13819   4.739   4.435   5.726  0.9366  1.5046 -0.4023
  129OSM   H13B13820   4.769   4.276   5.668 -2.2226 -0.0360 -1.1269
  129OSM   H13C13821   4.804   4.418   5.559  2.3215 -0.3062  0.4402
  129OSM    C1213822   4.945   4.399   5.862  0.0234  0.1524 -0.1501
  129OSM   H12A13823   5.048   4.377   5.886  0.0025 -3.2521 -2.4274
  129OSM   H12B13824   4.892   4.320   5.913  0.3309 -1.1812 -1.7946
  129OSM    C1113825   4.913   4.542   5.924  0.3125  0.3562  0.5573
  129OSM   H11A13826   4.986   4.612   5.878  1.1616 -0.8504  0.0071
  129OSM   H11B13827   4.921   4.541   6.035  0.0337  0.7031  0.5832
  129OSM      P13828   4.664   4.566   5.979 -0.3633 -0.3541 -0.4091
  129OSM    O1313829   4.543   4.634   5.921  0.1986 -0.4764  0.4330
  129OSM    O1413830   4.656   4.423   6.021  0.7721 -0.4426 -0.5160
  129OSM    O1113831   4.715   4.649   6.106 -0.3271  0.4790 -0.9470
  129OSM    O1213832   4.785   4.583   5.880 -0.2819  0.2628 -0.0784
  129OSM    C1S13833   4.770   4.778   6.091  0.1822  0.2031  0.0878
  129OSM    H1S13834   4.726   4.832   6.005 -1.3411 -1.7196 -0.4121
  129OSM    H1T13835   4.880   4.766   6.081  0.5576 -0.5733  3.5652
  129OSM     NF13836   4.831   4.992   6.213  0.0095 -0.5246  0.4677
  129OSM    HNF13837   4.925   5.009   6.242  0.6578 -2.3915 -0.3610
  129OSM    C2S13838   4.777   4.856   6.224 -0.0665  0.6882  0.2964
  129OSM    H2S13839   4.671   4.864   6.258 -0.6286 -2.5294 -0.3223
  129OSM    C3S13840   4.834   4.765   6.344 -0.2104  0.0479  0.6003
  129OSM    H3S13841   4.944   4.747   6.344  0.1512  2.0294  1.4768
  129OSM     O313842   4.777   4.641   6.362  0.3142  0.5902  0.2636
  129OSM    HO313843   4.738   4.617   6.278  0.7183 -0.0525  0.2536
  129OSM    C4S13844   4.817   4.843   6.471 -0.5485  0.2493  0.1150
  129OSM    H4S13845   4.886   4.927   6.487 -0.7749  0.7021 -1.1372
  129OSM    C5S13846   4.732   4.822   6.572 -0.2595  0.4125 -0.2143
  129OSM    H5S13847   4.661   4.738   6.563  0.7426 -0.3443 -1.3623
  129OSM    C6S13848   4.731   4.892   6.704 -0.6696  0.4404 -0.5588
  129OSM    H6S13849   4.752   4.810   6.776  0.0841 -1.2773 -2.6204
  129OSM    H6T13850   4.630   4.938   6.720 -0.9903 -0.7101  0.8728
  129OSM    C7S13851   4.839   4.995   6.739  0.1074 -0.5466  0.4738
  129OSM    H7S13852   4.840   5.074   6.661 -0.3729  1.1430  2.0993
  129OSM    H7T13853   4.941   4.951   6.733 -0.2924 -1.3048 -1.5912
  129OSM    C8S13854   4.826   5.048   6.881 -0.3394 -0.7995  0.5436
  129OSM    H8S13855   4.820   4.961   6.950 -1.2924  1.0044  2.8934
  129OSM    H8T13856   4.733   5.105   6.901 -0.5607 -0.9533 -0.0268
  129OSM    C9S13857   4.955   5.143   6.934  0.3207 -0.2743  0.2217
  129OSM    H9S13858   4.967   5.227   6.863 -1.9653  3.0633  3.4406
  129OSM    H9T13859   5.052   5.090   6.936  0.7335  0.3246 -1.6977
  129OSM   C10S13860   4.924   5.200   7.072  0.0007  1.0798 -0.2467
  129OSM   H10S13861   4.826   5.252   7.072 -1.9211 -2.3001 -0.0836
  129OSM   H10T13862   5.011   5.267   7.092  0.0409  0.7685  0.6390
  129OSM   C11S13863   4.930   5.093   7.191  0.1720 -0.6861 -0.1704
  129OSM   H11S13864   5.034   5.056   7.198  1.4255  2.6475  0.7378
  129OSM   H11T13865   4.868   5.004   7.166  0.9345 -1.0114 -0.9596
  129OSM   C12S13866   4.903   5.157   7.326  0.1144 -0.1448 -0.0109
  129OSM   H12S13867   4.947   5.080   7.393  0.8680 -0.9589 -1.3973
  129OSM   H12T13868   4.795   5.163   7.352 -0.1427  0.8210 -1.2309
  129OSM   C13S13869   4.971   5.299   7.338  0.2532  0.0439 -0.3745
  129OSM   H13S13870   4.916   5.373   7.276 -0.6900 -1.5163 -1.4717
  129OSM   H13T13871   5.076   5.302   7.301  1.5107 -0.1785  2.8594
  129OSM   C14S13872   4.979   5.349   7.481  0.1870  0.2269 -0.2955
  129OSM   H14S13873   5.013   5.454   7.491 -0.7559  0.4850  0.3675
  129OSM   H14T13874   5.051   5.275   7.522 -0.5526 -1.2673 -1.6099
  129OSM   C15S13875   4.844   5.348   7.551  0.3745  0.3733  0.5678
  129OSM   H15S13876   4.808   5.243   7.548  2.3729 -0.3094 -0.8911
  129OSM   H15T13877   4.776   5.413   7.492  1.2843  1.4355  0.6549
  129OSM   C16S13878   4.855   5.405   7.695 -0.7339 -0.0088  0.0022
  129OSM   H16S13879   4.872   5.515   7.687  0.7076 -0.2629 -0.8865
  129OSM   H16T13880   4.945   5.363   7.746 -0.9316 -1.6126 -0.9107
  129OSM   C17S13881   4.718   5.381   7.761 -0.6284  0.1250 -0.1879
  129OSM   H17S13882   4.679   5.285   7.720  0.5591  0.5214 -2.3777
  129OSM   H17T13883   4.648   5.461   7.728 -1.2212  0.1548  1.0522
  129OSM   C18S13884   4.713   5.388   7.915 -0.1343  0.1100  0.4304
  129OSM   H18S13885   4.779   5.309   7.956  0.0959 -0.7797 -1.5394
  129OSM   H18T13886   4.604   5.386   7.939 -0.6661  0.9609 -1.7569
  129OSM   H18U13887   4.744   5.488   7.951 -2.0076  2.0553 -2.8910
  129OSM    C1F13888   4.775   5.090   6.148 -0.1149  0.6129  0.3967
  129OSM     OF13889   4.681   5.071   6.070  0.5983 -0.3234 -0.1656
  129OSM    C2F13890   4.823   5.234   6.176 -0.0122  0.6415  0.0714
  129OSM    H2F13891   4.777   5.297   6.097 -0.4000  0.0531 -0.1756
  129OSM    H2G13892   4.933   5.238   6.165  0.0476  0.7206  0.6478
  129OSM    C3F13893   4.781   5.273   6.316  0.4239 -0.3521  0.1713
  129OSM    H3F13894   4.826   5.372   6.336 -0.0155  0.0299 -0.6850
  129OSM    H3G13895   4.804   5.211   6.405 -0.4018 -1.5458 -0.4048
  129OSM    C4F13896   4.626   5.281   6.325 -0.1934  0.5494  0.8281
  129OSM    H4F13897   4.572   5.190   6.291  3.7232 -1.4351 -0.6607
  129OSM    H4G13898   4.593   5.360   6.253 -0.3243  1.2681  1.6583
  129OSM    C5F13899   4.587   5.308   6.471  0.3636  0.0585  0.0199
  129OSM    H5F13900   4.629   5.227   6.536 -2.4063 -2.2781 -0.8767
  129OSM    H5G13901   4.477   5.302   6.485  0.3902  1.6256  1.1166
  129OSM    C6F13902   4.639   5.439   6.530 -0.4136 -0.1979  0.1034
  129OSM    H6F13903   4.631   5.517   6.452  0.2755  1.3067  1.4797
  129OSM    H6G13904   4.748   5.429   6.548 -0.3012 -1.1513 -0.9921
  129OSM    C7F13905   4.567   5.477   6.666 -0.4577  0.5632  0.8655
  129OSM    H7F13906   4.559   5.384   6.726  2.6695 -1.5991 -1.7758
  129OSM    H7G13907   4.474   5.531   6.638  1.1911  3.4685  0.6606
  129OSM    C8F13908   4.653   5.576   6.749  0.5874 -0.7379 -0.5159
  129OSM    H8F13909   4.673   5.664   6.685  0.2026  0.4038  0.8876
  129OSM    H8G13910   4.742   5.517   6.781  0.5012 -0.5518  0.0806
  129OSM    C9F13911   4.570   5.618   6.868  0.8108  0.0669 -0.4923
  129OSM    H9F13912   4.482   5.680   6.843  0.6667 -0.6183 -1.8040
  129OSM   C10F13913   4.592   5.589   6.995  0.4961  0.7698 -1.2091
  129OSM   H10F13914   4.518   5.640   7.059 -0.5140 -1.7856 -0.2263
  129OSM   C11F13915   4.707   5.509   7.056 -0.1903  0.1735 -0.6230
  129OSM   H11F13916   4.767   5.453   6.981  0.7605 -2.2276  1.7559
  129OSM   H11G13917   4.663   5.437   7.128 -1.6576  1.6057 -0.0031
  129OSM   C12F13918   4.808   5.610   7.113 -0.4317 -0.0208  0.7088
  129OSM   H12F13919   4.844   5.666   7.024 -5.0649  1.8863 -0.2270
  129OSM   H12G13920   4.887   5.542   7.153 -0.2372  0.0597  0.4652
  129OSM   C13F13921   4.750   5.707   7.213 -0.2842  0.1252 -0.4813
  129OSM   H13F13922   4.670   5.769   7.168 -1.0490 -0.9974 -0.6969
  129OSM   H13G13923   4.832   5.781   7.230 -1.6539  1.1282  2.5021
  129OSM   C14F13924   4.719   5.649   7.351  0.4172 -0.0603 -0.3057
  129OSM   H14F13925   4.813   5.605   7.389 -0.1235 -1.7324 -0.8161
  129OSM   H14G13926   4.638   5.573   7.348 -0.4830  0.5563  3.3966
  129OSM   C15F13927   4.667   5.765   7.441 -0.1439 -0.2229  0.3331
  129OSM   H15F13928   4.563   5.786   7.409 -1.1494 -1.9655  2.2283
  129OSM   H15G13929   4.732   5.855   7.437  3.6593 -2.6326  1.5398
  129OSM   C16F13930   4.675   5.722   7.583 -0.5862 -0.2819 -0.4746
  129OSM   H16F13931   4.779   5.691   7.609 -0.6894 -1.0753 -0.9841
  129OSM   H16G13932   4.603   5.639   7.599  1.0254 -1.8186 -0.8120
  129OSM   C17F13933   4.635   5.839   7.679 -0.1211 -0.3679  0.6635
  129OSM   H17F13934   4.531   5.869   7.655 -1.5627 -3.8151  1.9841
  129OSM   H17G13935   4.699   5.929   7.667  0.4106 -0.8387 -0.1111
  129OSM   C18F13936   4.635   5.796   7.832 -0.0365  0.1013  0.1803
  129OSM   H18F13937   4.741   5.780   7.860  0.1430 -0.3858 -0.7154
  129OSM   H18G13938   4.583   5.698   7.839  0.0648  0.1315  1.5474
  129OSM   H18H13939   4.590   5.880   7.889  1.1507  0.5697  0.4543
  130OSM      N13940   0.637   0.443   5.393  0.3671  0.3738 -0.6305
  130OSM    C1513941   0.603   0.448   5.249  0.1539 -0.8038  0.2540
  130OSM   H15A13942   0.603   0.547   5.206 -2.5227 -0.5261  0.6876
  130OSM   H15B13943   0.505   0.409   5.226 -0.0459 -0.3425  0.3022
  130OSM   H15C13944   0.681   0.400   5.193  0.4624 -0.2795  0.2270
  130OSM    C1413945   0.772   0.499   5.393 -0.4639  0.4274 -0.5774
  130OSM   H14A13946   0.819   0.539   5.482  2.2650 -1.3999 -1.0714
  130OSM   H14B13947   0.779   0.597   5.348 -2.4455  0.0619 -1.8065
  130OSM   H14C13948   0.840   0.435   5.339 -1.8139 -0.9977 -0.6615
  130OSM    C1313949   0.545   0.533   5.471  0.4180  0.0341 -0.7781
  130OSM   H13A13950   0.573   0.555   5.573  0.3566 -0.2282 -0.7029
  130OSM   H13B13951   0.449   0.483   5.474  0.7894 -0.7538 -1.5976
  130OSM   H13C13952   0.530   0.630   5.427 -1.0099 -0.6647 -1.9307
  130OSM    C1213953   0.638   0.295   5.454  0.5732 -0.2234 -0.4825
  130OSM   H12A13954   0.699   0.230   5.392 -0.2198 -1.3881 -0.0816
  130OSM   H12B13955   0.536   0.260   5.443  0.4662  0.2408 -1.0320
  130OSM    C1113956   0.679   0.281   5.607 -0.7871 -0.2997  0.2477
  130OSM   H11A13957   0.779   0.330   5.604 -0.7852 -0.3417 -0.7436
  130OSM   H11B13958   0.685   0.171   5.618 -1.0289 -0.4181 -0.7227
  130OSM      P13959   0.443   0.286   5.726  0.0896 -0.2945 -0.2898
  130OSM    O1313960   0.393   0.371   5.835  0.5146 -0.4313  0.6786
  130OSM    O1413961   0.368   0.276   5.597 -0.5519  0.0980  0.4979
  130OSM    O1113962   0.473   0.140   5.774  0.2525 -0.2382 -0.2334
  130OSM    O1213963   0.590   0.348   5.700  0.2758  0.2447 -0.4747
  130OSM    C1S13964   0.572   0.114   5.869 -0.2344  0.1119  1.3747
  130OSM    H1S13965   0.669   0.168   5.857 -0.8717  0.6752 -1.9599
  130OSM    H1T13966   0.602   0.008   5.853 -0.3484  0.0615  1.4986
  130OSM     NF13967   0.636   0.136   6.109  0.9898 -0.5778  0.3943
  130OSM    HNF13968   0.668   0.047   6.141 -1.4886 -2.7368 -2.4825
  130OSM    C2S13969   0.524   0.123   6.019  0.6736 -0.1985  0.1483
  130OSM    H2S13970   0.451   0.204   6.036  0.1434 -0.5886 -0.2656
  130OSM    C3S13971   0.437  -0.012   6.043  0.4611 -1.0886  0.5747
  130OSM    H3S13972   0.516  -0.088   6.023 -1.0957 -2.3071 -1.4150
  130OSM     O313973   0.333  -0.049   5.951  0.0710  0.4996 -0.1609
  130OSM    HO313974   0.349   0.020   5.886  2.6778 -0.1215 -0.3241
  130OSM    C4S13975   0.383  -0.014   6.178  0.3666 -0.6609 -0.1572
  130OSM    H4S13976   0.338   0.083   6.204  0.8264 -0.1959 -1.0563
  130OSM    C5S13977   0.392  -0.118   6.258 -0.5633 -0.3211 -0.4939
  130OSM    H5S13978   0.453  -0.202   6.223 -0.3419 -0.3887  0.0388
  130OSM    C6S13979   0.334  -0.123   6.402 -0.2365 -0.6225  0.0738
  130OSM    H6S13980   0.270  -0.208   6.435 -0.1712  0.0606  2.1017
  130OSM    H6T13981   0.273  -0.031   6.410  0.4687 -0.2594  1.7477
  130OSM    C7S13982   0.450  -0.130   6.509 -0.2853 -0.4240  0.4854
  130OSM    H7S13983   0.528  -0.054   6.492  1.1714 -1.7894  0.8099
  130OSM    H7T13984   0.495  -0.232   6.510  1.3423  0.0729 -3.4547
  130OSM    C8S13985   0.391  -0.081   6.635 -0.6955  0.2029 -0.1436
  130OSM    H8S13986   0.293  -0.128   6.653  0.1630 -1.4281  0.5139
  130OSM    H8T13987   0.359   0.024   6.622 -0.9313 -0.0140 -1.4606
  130OSM    C9S13988   0.494  -0.100   6.754  1.1247 -0.2582 -0.3294
  130OSM    H9S13989   0.581  -0.032   6.745  2.5158 -0.7422  5.4898
  130OSM    H9T13990   0.532  -0.204   6.741 -2.0586 -1.5538 -0.2059
  130OSM   C10S13991   0.429  -0.085   6.897 -0.6770  0.1945 -0.1023
  130OSM   H10S13992   0.357  -0.170   6.902  0.0514 -0.4375 -0.2868
  130OSM   H10T13993   0.370   0.009   6.908 -1.0499  0.0032 -0.4124
  130OSM   C11S13994   0.525  -0.110   7.016 -0.1635 -0.4107  0.1322
  130OSM   H11S13995   0.606  -0.035   7.008 -0.9009  0.3889  0.0134
  130OSM   H11T13996   0.571  -0.211   7.011 -0.2500 -0.5360  1.4062
  130OSM   C12S13997   0.453  -0.104   7.150 -0.4669  0.0735 -0.2890
  130OSM   H12S13998   0.368  -0.176   7.152 -0.7925  0.3911  3.5386
  130OSM   H12T13999   0.410  -0.004   7.168 -1.9901 -0.3070 -1.5945
  130OSM   C13S14000   0.537  -0.143   7.272  0.1291  0.2054 -0.8307
  130OSM   H13S14001   0.632  -0.085   7.266 -0.3912  1.2405  0.3688
  130OSM   H13T14002   0.573  -0.248   7.271  3.1204  1.1511 -1.5148
  130OSM   C14S14003   0.466  -0.108   7.396  0.3695 -0.2824 -0.5759
  130OSM   H14S14004   0.369  -0.163   7.395 -1.5614  2.8873 -0.6272
  130OSM   H14T14005   0.446  -0.001   7.376 -1.2369 -0.6386 -1.0805
  130OSM   C15S14006   0.546  -0.125   7.534  0.2949 -0.3184  1.1580
  130OSM   H15S14007   0.642  -0.074   7.512 -0.7476  0.9247 -0.9296
  130OSM   H15T14008   0.546  -0.234   7.552 -0.5983 -0.3400  1.0990
  130OSM   C16S14009   0.467  -0.055   7.653 -0.3377  0.0366  0.3354
  130OSM   H16S14010   0.368  -0.103   7.665  0.4996 -1.0188  4.2163
  130OSM   H16T14011   0.443   0.051   7.630 -0.4829 -0.1485 -0.4171
  130OSM   C17S14012   0.534  -0.073   7.789 -0.6775 -0.1658 -0.3016
  130OSM   H17S14013   0.636  -0.028   7.795  0.3962 -2.1926 -2.3127
  130OSM   H17T14014   0.549  -0.180   7.813  1.0702 -0.3036 -1.7780
  130OSM   C18S14015   0.435  -0.011   7.893  0.8973  0.5748 -0.3308
  130OSM   H18S14016   0.476  -0.010   7.996 -0.1935  0.8020  0.1213
  130OSM   H18T14017   0.343  -0.073   7.897  1.4043 -0.1686  0.0154
  130OSM   H18U14018   0.424   0.092   7.853  2.9288 -0.5850 -4.4488
  130OSM    C1F14019   0.701   0.254   6.124  0.2078  0.1492  0.5165
  130OSM     OF14020   0.658   0.365   6.088  0.8440  0.7682  0.4127
  130OSM    C2F14021   0.830   0.241   6.190  0.2454  0.4941  0.2922
  130OSM    H2F14022   0.882   0.339   6.176  3.0620 -0.6997  1.5701
  130OSM    H2G14023   0.891   0.152   6.165 -2.1979 -1.2980  0.3651
  130OSM    C3F14024   0.792   0.234   6.343  0.1601  0.1028 -0.0920
  130OSM    H3F14025   0.732   0.144   6.367  0.8644 -0.2241  0.4762
  130OSM    H3G14026   0.734   0.326   6.364 -1.7913 -1.2947  1.0032
  130OSM    C4F14027   0.915   0.227   6.434 -0.2554  0.2120  0.0651
  130OSM    H4F14028   0.989   0.309   6.431 -0.2599  0.3378  2.1598
  130OSM    H4G14029   0.969   0.131   6.417  0.4548  0.6167  0.0061
  130OSM    C5F14030   0.876   0.242   6.585  0.1101  0.8693  1.1114
  130OSM    H5F14031   0.795   0.169   6.610  0.1882  0.3361 -0.1038
  130OSM    H5G14032   0.832   0.343   6.597 -1.1005  0.7128 -1.3854
  130OSM    C6F14033   0.989   0.214   6.684 -0.2780 -0.0570 -0.5184
  130OSM    H6F14034   1.056   0.301   6.672 -0.0054 -0.1831  0.0337
  130OSM    H6G14035   1.043   0.122   6.652 -1.1066 -0.5787 -0.4748
  130OSM    C7F14036   0.939   0.222   6.831  0.3294 -0.1316 -0.9794
  130OSM    H7F14037   0.858   0.150   6.855  1.2434 -0.9254 -0.1385
  130OSM    H7G14038   0.892   0.321   6.847  0.0588 -0.2021 -1.3247
  130OSM    C8F14039   1.044   0.192   6.935  0.3070 -0.0442  0.0667
  130OSM    H8F14040   1.086   0.091   6.918  1.2615  0.3269  0.1763
  130OSM    H8G14041   0.995   0.182   7.034 -1.0520  0.8072 -0.4964
  130OSM    C9F14042   1.153   0.292   6.936 -1.1845 -0.1645 -0.2983
  130OSM    H9F14043   1.217   0.300   6.848 -0.6286 -1.3696 -0.0333
  130OSM   C10F14044   1.174   0.370   7.046  0.1446 -0.1224  0.0110
  130OSM   H10F14045   1.251   0.449   7.036 -0.4410  0.8317  2.3720
  130OSM   C11F14046   1.112   0.369   7.180 -0.4704 -0.4346  0.4206
  130OSM   H11F14047   1.014   0.318   7.180 -2.1153  2.4134  2.0966
  130OSM   H11G14048   1.068   0.468   7.205  0.7521 -0.1314  1.5213
  130OSM   C12F14049   1.202   0.322   7.295 -0.9557  0.3083  0.0281
  130OSM   H12F14050   1.289   0.390   7.303 -0.7857  0.1415 -0.3767
  130OSM   H12G14051   1.237   0.217   7.281  1.4518  0.3156  4.1750
  130OSM   C13F14052   1.128   0.317   7.430  0.1471 -0.6925 -0.2541
  130OSM   H13F14053   1.020   0.292   7.416  0.3371 -0.5031 -2.4245
  130OSM   H13G14054   1.129   0.427   7.444 -1.3486 -0.9315  2.4248
  130OSM   C14F14055   1.181   0.259   7.563  0.0018  0.6448  0.1794
  130OSM   H14F14056   1.273   0.313   7.593 -0.8133  1.3461  1.5167
  130OSM   H14G14057   1.216   0.156   7.542  0.0742  0.2335  2.0977
  130OSM   C15F14058   1.097   0.261   7.695  0.3066 -0.3843 -0.1872
  130OSM   H15F14059   1.007   0.196   7.692  1.7806 -2.5249 -1.5859
  130OSM   H15G14060   1.069   0.366   7.719 -1.5159 -0.5781 -1.2271
  130OSM   C16F14061   1.179   0.204   7.812  0.3212  0.9835  0.5292
  130OSM   H16F14062   1.287   0.227   7.800  0.4892  0.5382  1.1577
  130OSM   H16G14063   1.171   0.094   7.823  2.4097  0.7708  0.3417
  130OSM   C17F14064   1.142   0.275   7.947 -0.0086  0.0903 -0.1704
  130OSM   H17F14065   1.032   0.277   7.959 -0.3043  0.1054 -2.5415
  130OSM   H17G14066   1.172   0.382   7.948  4.4242 -0.9516 -1.2324
  130OSM   C18F14067   1.214   0.226   8.073 -0.8425  0.6688  0.1760
  130OSM   H18F14068   1.324   0.213   8.062 -0.7972  0.7111  0.5784
  130OSM   H18G14069   1.172   0.129   8.106  0.0792  0.0793 -0.3288
  130OSM   H18H14070   1.205   0.300   8.155 -0.2187  0.3488  0.5362
  131OSM      N14071   3.488   3.008   5.849 -0.4720 -0.3655 -0.2278
  131OSM    C1514072   3.510   3.131   5.763  0.0542 -0.6158 -0.2781
  131OSM   H15A14073   3.466   3.219   5.807  1.7611 -0.1613  0.5854
  131OSM   H15B14074   3.480   3.127   5.659 -0.8944 -0.1709 -0.0361
  131OSM   H15C14075   3.617   3.139   5.756 -0.0998  0.3065 -3.5854
  131OSM    C1414076   3.341   3.001   5.873 -0.1790 -0.2681  0.5846
  131OSM   H14A14077   3.320   2.912   5.930 -3.7329  0.9940  1.4989
  131OSM   H14B14078   3.284   3.002   5.781  0.3538 -0.6858  0.2367
  131OSM   H14C14079   3.319   3.081   5.941  0.6828  0.5554 -0.0795
  131OSM    C1314080   3.542   2.896   5.773  0.1495  0.0945  0.1133
  131OSM   H13A14081   3.646   2.917   5.753 -0.2764  1.4716 -0.7792
  131OSM   H13B14082   3.489   2.903   5.679  0.6297  2.2845 -0.0503
  131OSM   H13C14083   3.528   2.796   5.813  1.4684 -0.0783  0.1968
  131OSM    C1214084   3.559   3.027   5.983 -0.2652  0.4102  0.1915
  131OSM   H12A14085   3.665   3.032   5.965 -0.0455 -1.0125  0.9270
  131OSM   H12B14086   3.544   2.929   6.027  0.6382 -0.1920 -0.7886
  131OSM    C1114087   3.514   3.130   6.087 -0.2576 -0.2037 -0.3271
  131OSM   H11A14088   3.532   3.234   6.053 -0.5051  0.2404  0.8560
  131OSM   H11B14089   3.583   3.119   6.174  0.2392 -0.9363 -0.8051
  131OSM      P14090   3.324   3.004   6.221  0.2145 -0.1819 -0.0201
  131OSM    O1314091   3.188   3.029   6.274  0.3644 -0.1257  0.8194
  131OSM    O1414092   3.343   2.867   6.157  0.1429 -0.2976  0.2704
  131OSM    O1114093   3.418   3.025   6.346 -0.2870 -0.2193  0.2861
  131OSM    O1214094   3.376   3.112   6.124 -0.5347  0.1174  0.4318
  131OSM    C1S14095   3.413   3.136   6.433 -0.3051 -0.0329 -0.8079
  131OSM    H1S14096   3.309   3.172   6.447 -0.2207 -0.7171  2.0853
  131OSM    H1T14097   3.476   3.219   6.396 -0.9848  1.1777  0.6931
  131OSM     NF14098   3.458   3.212   6.668  0.1658 -0.6606 -0.5333
  131OSM    HNF14099   3.526   3.284   6.675  0.4535 -1.0388  0.8229
  131OSM    C2S14100   3.462   3.098   6.578 -0.1042 -0.3008 -0.7302
  131OSM    H2S14101   3.396   3.013   6.608  1.2971 -0.4400  2.3385
  131OSM    C3S14102   3.609   3.023   6.574  0.1555 -0.4826  0.6411
  131OSM    H3S14103   3.671   3.098   6.519 -1.4075 -0.9693 -2.0055
  131OSM     O314104   3.602   2.903   6.490  0.0031 -0.1446  0.7348
  131OSM    HO314105   3.522   2.923   6.441 -0.4721 -0.6672  1.2842
  131OSM    C4S14106   3.661   2.975   6.703  0.4180 -0.1015  1.0180
  131OSM    H4S14107   3.595   2.900   6.750 -0.5915 -1.2899 -2.0685
  131OSM    C5S14108   3.769   3.031   6.762  0.0604  0.5381 -0.2405
  131OSM    H5S14109   3.834   3.104   6.711  1.0250  0.2914  0.5994
  131OSM    C6S14110   3.816   2.997   6.897 -0.2090 -0.3252 -0.4396
  131OSM    H6S14111   3.878   3.077   6.942 -1.8236 -0.5433  2.3877
  131OSM    H6T14112   3.867   2.898   6.893 -2.8057 -1.9073  2.2348
  131OSM    C7S14113   3.711   2.970   7.005  0.2828  0.6474 -0.0295
  131OSM    H7S14114   3.636   2.892   6.980 -0.2268  0.7354  1.1452
  131OSM    H7T14115   3.654   3.065   7.018 -1.4966 -0.5812  1.7551
  131OSM    C8S14116   3.761   2.928   7.147  0.7867 -0.3278 -0.0170
  131OSM    H8S14117   3.674   2.931   7.216  1.4348 -0.3773  0.8189
  131OSM    H8T14118   3.835   2.995   7.196 -1.8158  2.7500  0.0313
  131OSM    C9S14119   3.828   2.798   7.141 -0.3416  0.4010 -0.6737
  131OSM    H9S14120   3.920   2.807   7.080 -0.3246  1.7972 -0.4763
  131OSM    H9T14121   3.759   2.720   7.105 -1.3327  1.2984 -0.7654
  131OSM   C10S14122   3.884   2.773   7.282  0.2561  0.4232  0.1329
  131OSM   H10S14123   3.805   2.778   7.360  0.3458 -1.3923  0.3684
  131OSM   H10T14124   3.960   2.847   7.314 -1.3952  1.4091  2.0256
  131OSM   C11S14125   3.948   2.631   7.268  0.2814 -0.6779  0.2364
  131OSM   H11S14126   4.023   2.647   7.188  0.2405 -1.4112  0.0450
  131OSM   H11T14127   3.872   2.556   7.238 -0.2412  0.1320 -0.5165
  131OSM   C12S14128   4.013   2.582   7.394  0.6384 -0.5818 -0.0495
  131OSM   H12S14129   4.106   2.639   7.416 -0.0152  0.4056  0.2203
  131OSM   H12T14130   4.055   2.480   7.378 -2.2462 -1.5829 -2.2687
  131OSM   C13S14131   3.922   2.578   7.518 -0.2415  0.0855 -0.1044
  131OSM   H13S14132   3.823   2.533   7.492  0.4344 -0.0022 -2.7910
  131OSM   H13T14133   3.906   2.687   7.531 -1.4549 -0.0199 -0.5446
  131OSM   C14S14134   3.989   2.532   7.644  0.5520  0.1070 -0.0497
  131OSM   H14S14135   3.931   2.578   7.728 -0.0382  0.2369 -0.5193
  131OSM   H14T14136   4.091   2.572   7.663  0.2304 -0.5463  4.0385
  131OSM   C15S14137   3.994   2.382   7.656 -0.9075 -0.4951 -0.5028
  131OSM   H15S14138   4.087   2.344   7.609 -0.7785  0.1049 -0.7408
  131OSM   H15T14139   3.907   2.345   7.597 -2.1297  0.5936  0.5455
  131OSM   C16S14140   3.989   2.343   7.795  0.5742  0.0551  0.2124
  131OSM   H16S14141   3.941   2.242   7.800 -0.1847  0.3425 -0.8840
  131OSM   H16T14142   3.927   2.418   7.849  1.2440  0.9578 -0.2666
  131OSM   C17S14143   4.130   2.327   7.862 -0.4140 -0.3631  0.2307
  131OSM   H17S14144   4.189   2.421   7.862  1.4300 -1.4282 -1.6863
  131OSM   H17T14145   4.194   2.259   7.802  0.0263  0.5788 -0.3873
  131OSM   C18S14146   4.120   2.273   8.008 -0.5189 -0.2759  0.3060
  131OSM   H18S14147   4.078   2.172   7.988 -3.8681  0.8530  0.9863
  131OSM   H18T14148   4.059   2.336   8.076  0.3403 -0.4578  1.2747
  131OSM   H18U14149   4.223   2.265   8.049 -0.7762  0.4147  1.1324
  131OSM    C1F14150   3.340   3.258   6.716  0.0682  0.4365 -0.0288
  131OSM     OF14151   3.234   3.195   6.685  0.1877  0.1425 -0.0342
  131OSM    C2F14152   3.343   3.387   6.799 -0.4741  0.9179 -0.4929
  131OSM    H2F14153   3.269   3.457   6.754 -0.9927 -0.5818 -2.0429
  131OSM    H2G14154   3.445   3.431   6.792 -0.3647  0.5724 -1.1167
  131OSM    C3F14155   3.302   3.354   6.943  0.3329 -0.4848 -0.0634
  131OSM    H3F14156   3.340   3.256   6.977  0.2482 -0.3345  0.4840
  131OSM    H3G14157   3.193   3.332   6.941  0.0896  0.7114 -0.9601
  131OSM    C4F14158   3.332   3.461   7.044 -0.1643 -0.0075  0.2053
  131OSM    H4F14159   3.294   3.553   6.994 -1.0389 -0.9441 -0.9383
  131OSM    H4G14160   3.443   3.460   7.044 -0.1294  0.7139 -0.9621
  131OSM    C5F14161   3.276   3.440   7.182  0.6284  0.6633 -0.4374
  131OSM    H5F14162   3.304   3.337   7.213  0.0536  0.4249 -0.6840
  131OSM    H5G14163   3.165   3.436   7.181  0.6482 -0.0072 -0.3314
  131OSM    C6F14164   3.327   3.548   7.279 -0.0220  0.1306 -0.3192
  131OSM    H6F14165   3.315   3.637   7.214 -1.9178  0.2924  0.1996
  131OSM    H6G14166   3.425   3.526   7.325  0.2519 -0.7896 -1.3091
  131OSM    C7F14167   3.233   3.570   7.392  0.1054  0.4456  0.8052
  131OSM    H7F14168   3.233   3.478   7.455  1.6766  0.4111  0.7790
  131OSM    H7G14169   3.129   3.571   7.351  0.1445 -1.9016  0.4988
  131OSM    C8F14170   3.254   3.695   7.477  0.7018  0.2703 -0.0060
  131OSM    H8F14171   3.241   3.791   7.422  1.5351  0.9342  0.9206
  131OSM    H8G14172   3.362   3.683   7.502  0.5161 -0.1324  0.6191
  131OSM    C9F14173   3.159   3.691   7.602 -0.1898 -0.7690 -0.0443
  131OSM    H9F14174   3.054   3.674   7.575 -1.5941  1.7903  3.2328
  131OSM   C10F14175   3.186   3.693   7.730  0.1108 -0.1188  0.2075
  131OSM   H10F14176   3.102   3.674   7.798 -0.6894  0.3612 -0.6199
  131OSM   C11F14177   3.315   3.720   7.799  0.1622 -0.0115  0.0407
  131OSM   H11F14178   3.308   3.818   7.850  0.3443  1.2779 -2.2852
  131OSM   H11G14179   3.394   3.734   7.723 -0.9515 -0.2878 -1.1997
  131OSM   C12F14180   3.351   3.619   7.904  0.6953  0.7390 -0.0491
  131OSM   H12F14181   3.364   3.523   7.849  0.0339  1.1163 -0.8801
  131OSM   H12G14182   3.273   3.617   7.982  2.1486 -1.2001  1.4482
  131OSM   C13F14183   3.479   3.647   7.977 -0.2901 -0.2819  0.3475
  131OSM   H13F14184   3.481   3.757   7.992  0.3576 -0.3840  1.0365
  131OSM   H13G14185   3.566   3.631   7.911  0.4047 -0.5369  1.3099
  131OSM   C14F14186   3.487   3.577   8.114  0.5342 -0.2558  0.3923
  131OSM   H14F14187   3.487   3.466   8.110 -0.8160 -0.2591 -0.9904
  131OSM   H14G14188   3.410   3.598   8.191  1.4763  1.9571  0.8115
  131OSM   C15F14189   3.621   3.608   8.187 -0.7504  0.2238  0.0769
  131OSM   H15F14190   3.710   3.581   8.127  1.1115 -0.1017  2.7980
  131OSM   H15G14191   3.618   3.550   8.282 -2.0271  1.5378  0.8767
  131OSM   C16F14192   3.646   3.755   8.225  0.1262  0.2115 -0.0520
  131OSM   H16F14193   3.560   3.794   8.283  0.6952  1.0821  0.2200
  131OSM   H16G14194   3.658   3.803   8.126  0.5314  0.2674  0.0201
  131OSM   C17F14195   3.772   3.793   8.301  0.1007 -0.1090  0.6351
  131OSM   H17F14196   3.787   3.904   8.297 -1.1421  0.0335 -0.8166
  131OSM   H17G14197   3.866   3.760   8.252 -0.1136 -0.5717  0.5385
  131OSM   C18F14198   3.779   3.755   8.447 -0.3838 -0.3615  0.4092
  131OSM   H18F14199   3.691   3.791   8.504  1.4273  1.5405  2.1800
  131OSM   H18G14200   3.865   3.806   8.495  0.3107 -0.1548 -0.9977
  131OSM   H18H14201   3.788   3.645   8.461 -0.3297 -0.3019  0.8505
  132OSM      N14202   5.008   2.406   5.959 -0.1788  0.2064 -0.0240
  132OSM    C1514203   4.987   2.499   6.073  0.0203  0.3832  0.0716
  132OSM   H15A14204   4.901   2.562   6.059  0.7501  1.5506  0.7009
  132OSM   H15B14205   5.069   2.568   6.086  0.9617 -0.4842 -1.0504
  132OSM   H15C14206   4.985   2.444   6.166 -2.0532 -0.9218 -0.6705
  132OSM    C1414207   5.005   2.493   5.836 -0.3604 -0.4575 -0.5059
  132OSM   H14A14208   5.078   2.571   5.846 -1.1678  0.1130  1.7734
  132OSM   H14B14209   4.906   2.527   5.810  0.4391  1.6040 -0.9950
  132OSM   H14C14210   5.029   2.440   5.745 -0.7676 -3.0466  0.7959
  132OSM    C1314211   5.148   2.355   5.969  0.0590  0.7834  0.0236
  132OSM   H13A14212   5.174   2.295   5.883  1.8466  0.1366  0.9508
  132OSM   H13B14213   5.149   2.293   6.058 -0.7583 -0.9951 -1.1519
  132OSM   H13C14214   5.229   2.425   5.979  0.8124  0.3439 -2.4561
  132OSM    C1214215   4.904   2.295   5.957  0.7061  0.8963  0.6532
  132OSM   H12A14216   4.905   2.228   5.872 -0.9567  1.1445  0.4024
  132OSM   H12B14217   4.808   2.343   5.944  1.9079  2.4970 -5.7580
  132OSM    C1114218   4.906   2.210   6.085 -0.5722 -0.1808  0.5128
  132OSM   H11A14219   4.812   2.152   6.097 -0.8802  0.5852  2.0923
  132OSM   H11B14220   4.905   2.276   6.174 -1.7893 -1.0415  1.1822
  132OSM      P14221   5.011   1.996   5.973  0.1592 -0.0554 -0.1925
  132OSM    O1314222   4.881   1.993   5.905 -0.2338  0.0772 -0.3185
  132OSM    O1414223   5.130   2.001   5.883 -0.6985  0.7812  0.3286
  132OSM    O1114224   5.019   1.865   6.049 -0.4436  0.5815 -0.6783
  132OSM    O1214225   5.016   2.122   6.073  0.5995 -0.2710  0.4130
  132OSM    C1S14226   5.092   1.846   6.167 -0.2175  0.2032 -0.2124
  132OSM    H1S14227   5.073   1.931   6.236 -2.3811  0.8811 -1.5480
  132OSM    H1T14228   5.203   1.854   6.154 -0.2037  0.1326 -0.1412
  132OSM     NF14229   5.144   1.690   6.365 -0.0342 -0.4060  0.0126
  132OSM    HNF14230   5.223   1.630   6.369  0.0459 -0.2091  1.7377
  132OSM    C2S14231   5.070   1.704   6.240 -0.5587 -0.0729  0.1220
  132OSM    H2S14232   4.964   1.689   6.267  0.0233 -2.6706  1.2218
  132OSM    C3S14233   5.091   1.592   6.130 -0.2526 -0.8285  0.6907
  132OSM    H3S14234   5.201   1.596   6.112 -0.4487 -1.3070 -0.7394
  132OSM     O314235   5.026   1.604   5.998 -0.1287 -0.1166  0.5784
  132OSM    HO314236   5.017   1.697   5.975 -0.1475 -0.3884 -0.5347
  132OSM    C4S14237   5.060   1.452   6.193 -0.5404 -1.2761  0.0553
  132OSM    H4S14238   5.144   1.417   6.255 -0.4548 -2.3326 -0.6410
  132OSM    C5S14239   4.950   1.377   6.177  0.2873 -0.5238  0.8574
  132OSM    H5S14240   4.868   1.411   6.113  1.2857 -1.0922 -0.8003
  132OSM    C6S14241   4.910   1.251   6.248  0.6074  0.2782 -0.4546
  132OSM    H6S14242   4.936   1.156   6.195 -1.4758  0.4433 -1.8904
  132OSM    H6T14243   4.802   1.249   6.270  0.5530  0.1214 -0.7225
  132OSM    C7S14244   4.981   1.231   6.378  0.4185 -0.1466  0.0782
  132OSM    H7S14245   5.088   1.220   6.350  0.4442  1.2635 -0.4678
  132OSM    H7T14246   4.949   1.135   6.425  1.3501  0.0475  1.1693
  132OSM    C8S14247   4.949   1.343   6.473  0.0003 -0.3978  0.1749
  132OSM    H8S14248   4.839   1.350   6.483 -0.0652 -1.3295  0.1755
  132OSM    H8T14249   4.981   1.444   6.438 -0.4786 -0.1874  0.3339
  132OSM    C9S14250   5.008   1.320   6.621  0.1276  0.1656  0.7707
  132OSM    H9S14251   5.115   1.292   6.610  0.2649  1.2024 -0.9236
  132OSM    H9T14252   4.966   1.227   6.664  3.1976 -1.0318  1.4748
  132OSM   C10S14253   4.996   1.440   6.723 -0.7282  0.3508  0.0595
  132OSM   H10S14254   4.888   1.434   6.747 -0.5173  1.1190  1.2758
  132OSM   H10T14255   5.005   1.545   6.689  0.2153  0.4217  0.4859
  132OSM   C11S14256   5.088   1.405   6.851  0.5227  0.0263  0.0382
  132OSM   H11S14257   5.091   1.501   6.906 -1.1908 -0.2826  0.7269
  132OSM   H11T14258   5.189   1.380   6.812  0.5260  0.2286 -0.0875
  132OSM   C12S14259   5.023   1.305   6.948 -0.3115 -0.1890  0.3786
  132OSM   H12S14260   5.000   1.206   6.904 -0.1506 -1.7920  3.6000
  132OSM   H12T14261   4.926   1.341   6.989  0.6980  2.1142  0.8811
  132OSM   C13S14262   5.121   1.278   7.065  0.1840  0.0153 -0.0914
  132OSM   H13S14263   5.138   1.373   7.120 -1.9628  1.3498 -1.5731
  132OSM   H13T14264   5.213   1.229   7.026  0.7522  0.1772  1.0205
  132OSM   C14S14265   5.051   1.186   7.161 -0.7216 -0.3418  0.0796
  132OSM   H14S14266   4.986   1.124   7.097  1.1251 -0.7278 -1.4961
  132OSM   H14T14267   4.979   1.238   7.229 -1.0912  0.7054 -1.0735
  132OSM   C15S14268   5.148   1.113   7.257  0.3957 -0.1563  0.2202
  132OSM   H15S14269   5.207   1.201   7.291  0.0642  0.7625 -1.4860
  132OSM   H15T14270   5.209   1.040   7.200  1.9074  1.0062  0.2861
  132OSM   C16S14271   5.071   1.043   7.368  0.5576  0.0284 -0.0501
  132OSM   H16S14272   4.994   0.982   7.315 -1.2920  1.9550  0.2879
  132OSM   H16T14273   5.014   1.124   7.418  0.2210 -0.8588  1.0588
  132OSM   C17S14274   5.155   0.975   7.475 -0.4424 -0.5567  0.2269
  132OSM   H17S14275   5.241   1.043   7.493 -1.3362  0.2277  1.8305
  132OSM   H17T14276   5.190   0.876   7.438  1.5919  0.2417 -0.1131
  132OSM   C18S14277   5.079   0.960   7.609  0.4593  0.4601 -0.3856
  132OSM   H18S14278   4.977   0.916   7.613  0.9321 -0.5921  0.9087
  132OSM   H18T14279   5.062   1.061   7.653  0.4017  0.0953  0.4460
  132OSM   H18U14280   5.145   0.913   7.685 -2.6227  0.7146  2.7034
  132OSM    C1F14281   5.102   1.747   6.470  0.3768  0.4093  0.9573
  132OSM     OF14282   4.986   1.790   6.478 -0.2077  0.4870 -0.9623
  132OSM    C2F14283   5.195   1.760   6.583 -0.0965  0.3631 -0.2259
  132OSM    H2F14284   5.284   1.819   6.553  1.8655 -1.5842  1.4746
  132OSM    H2G14285   5.242   1.662   6.605  1.8113  0.3869 -3.4655
  132OSM    C3F14286   5.134   1.835   6.703  0.0090 -0.1299  0.1393
  132OSM    H3F14287   5.037   1.788   6.730 -0.8905 -1.0959 -3.9638
  132OSM    H3G14288   5.120   1.941   6.673 -1.0672 -0.7316 -1.6695
  132OSM    C4F14289   5.236   1.819   6.824 -0.0957 -0.7490  0.5340
  132OSM    H4F14290   5.336   1.803   6.779 -0.9312 -2.3994 -0.8575
  132OSM    H4G14291   5.236   1.728   6.888  0.4796  0.5548  2.4851
  132OSM    C5F14292   5.236   1.941   6.914 -0.3564  0.3225  0.0179
  132OSM    H5F14293   5.140   1.954   6.968  0.5778  2.0279  1.3921
  132OSM    H5G14294   5.262   2.029   6.851  2.2677 -0.4405 -0.0930
  132OSM    C6F14295   5.339   1.931   7.041 -0.5419 -0.7142  0.4036
  132OSM    H6F14296   5.431   1.889   6.996 -0.8139  0.4731 -1.3965
  132OSM    H6G14297   5.306   1.860   7.120  2.1124 -0.8863  1.4484
  132OSM    C7F14298   5.361   2.065   7.107  0.7125  0.4935 -0.4289
  132OSM    H7F14299   5.284   2.090   7.183  0.2621  2.6211 -1.5032
  132OSM    H7G14300   5.358   2.152   7.038 -0.4697  0.9139  0.1310
  132OSM    C8F14301   5.498   2.067   7.178  0.2455  0.1672 -0.3374
  132OSM    H8F14302   5.500   1.981   7.248 -1.5630  1.8870  2.0352
  132OSM    H8G14303   5.493   2.155   7.246  0.9569  0.9216 -1.2382
  132OSM    C9F14304   5.602   2.082   7.074 -0.5716  0.0524  0.2369
  132OSM    H9F14305   5.572   2.148   6.991  0.1187 -0.6007 -0.5395
  132OSM   C10F14306   5.720   2.019   7.062 -0.0760  0.0500 -0.0838
  132OSM   H10F14307   5.787   2.050   6.981  0.2255  0.9066  0.4869
  132OSM   C11F14308   5.784   1.920   7.158  0.4033 -0.6858  0.6229
  132OSM   H11F14309   5.719   1.907   7.247  2.2499 -1.2736  1.9661
  132OSM   H11G14310   5.879   1.970   7.189  0.0145  0.1242  0.5244
  132OSM   C12F14311   5.808   1.773   7.117 -0.1572 -0.0525  0.0236
  132OSM   H12F14312   5.881   1.774   7.034  0.5216  2.5830  0.5514
  132OSM   H12G14313   5.712   1.734   7.077 -1.2805  1.2266  1.3462
  132OSM   C13F14314   5.839   1.684   7.233  0.0620  0.0436 -0.0500
  132OSM   H13F14315   5.836   1.583   7.185  5.5739 -0.1486 -0.6030
  132OSM   H13G14316   5.753   1.687   7.303 -0.7043 -0.1239 -0.9780
  132OSM   C14F14317   5.971   1.712   7.309 -0.6998  0.5075  0.3111
  132OSM   H14F14318   5.975   1.814   7.351 -2.4402 -0.1267  2.1376
  132OSM   H14G14319   6.049   1.707   7.230 -1.2077 -0.3741 -0.1501
  132OSM   C15F14320   6.016   1.609   7.412 -0.2048 -0.2450  0.0171
  132OSM   H15F14321   6.119   1.626   7.449 -1.3715  1.9660  2.6024
  132OSM   H15G14322   6.006   1.503   7.378  1.9333 -0.9516  1.4474
  132OSM   C16F14323   5.934   1.620   7.537  0.1326 -0.3651  0.0042
  132OSM   H16F14324   5.955   1.525   7.591 -0.0622 -0.4944 -0.1464
  132OSM   H16G14325   5.826   1.624   7.510  1.0872  0.6599 -4.6220
  132OSM   C17F14326   5.964   1.738   7.637  0.0962 -0.9017  0.5853
  132OSM   H17F14327   5.951   1.842   7.600  1.3757 -0.8520  0.2211
  132OSM   H17G14328   6.073   1.738   7.658  0.1014  0.1188  0.5742
  132OSM   C18F14329   5.893   1.724   7.772  0.0624 -0.2229  0.5332
  132OSM   H18F14330   5.783   1.735   7.761  0.2819 -0.4067 -3.1267
  132OSM   H18G14331   5.919   1.800   7.849  3.9390  1.0568 -1.7804
  132OSM   H18H14332   5.913   1.621   7.809  3.4770 -0.0310 -0.5014
  133OSM      N14333   4.735   1.568   5.722  0.6101  0.2566  0.1789
  133OSM    C1514334   4.798   1.693   5.774 -0.4772  0.3394  0.4070
  133OSM   H15A14335   4.810   1.699   5.882  1.4515 -0.1067  0.2574
  133OSM   H15B14336   4.750   1.781   5.733  0.6813  1.6567  1.7108
  133OSM   H15C14337   4.899   1.695   5.737 -0.5996  0.2220  0.0690
  133OSM    C1414338   4.773   1.556   5.583 -0.1279  0.8228 -0.1715
  133OSM   H14A14339   4.719   1.476   5.533  0.1313  1.4865 -1.5725
  133OSM   H14B14340   4.873   1.517   5.572 -0.5935 -1.6716  2.9718
  133OSM   H14C14341   4.752   1.652   5.540  1.9557  1.2016 -0.4431
  133OSM    C1314342   4.788   1.452   5.806 -0.8652  0.0155 -0.7070
  133OSM   H13A14343   4.768   1.357   5.758 -0.0530 -0.2322 -0.5631
  133OSM   H13B14344   4.753   1.453   5.909  1.1308  0.6417  0.0100
  133OSM   H13C14345   4.895   1.458   5.821 -0.8629 -1.9357  0.4251
  133OSM    C1214346   4.584   1.584   5.738  0.7511 -1.1951 -0.2387
  133OSM   H12A14347   4.532   1.494   5.708 -0.5362 -0.3548 -0.5904
  133OSM   H12B14348   4.552   1.671   5.683 -0.4395  0.0151  2.1765
  133OSM    C1114349   4.539   1.619   5.886  0.8903  0.5938  0.4604
  133OSM   H11A14350   4.589   1.565   5.969 -1.5326  1.9144  2.9453
  133OSM   H11B14351   4.433   1.585   5.889  0.3392  2.2610  1.1458
  133OSM      P14352   4.456   1.838   5.998 -0.0586 -0.5238 -0.2285
  133OSM    O1314353   4.473   1.982   5.978  0.2222 -0.0991  0.0350
  133OSM    O1414354   4.322   1.775   5.973  0.5895 -0.1537 -0.3422
  133OSM    O1114355   4.517   1.787   6.139 -0.1142  0.5034  0.0381
  133OSM    O1214356   4.557   1.762   5.906  0.1006 -0.2510  0.8218
  133OSM    C1S14357   4.623   1.857   6.191 -0.4510  0.1508 -0.6994
  133OSM    H1S14358   4.610   1.967   6.177 -1.5912  0.0550 -0.4791
  133OSM    H1T14359   4.718   1.831   6.140 -0.9390  1.2784 -2.2535
  133OSM     NF14360   4.738   1.909   6.403  0.3518  0.4365  0.5083
  133OSM    HNF14361   4.824   1.863   6.425  0.1464 -0.1313  0.1511
  133OSM    C2S14362   4.636   1.822   6.343 -0.1177 -0.7274 -0.0010
  133OSM    H2S14363   4.532   1.841   6.379  0.3527  0.2188  0.8991
  133OSM    C3S14364   4.674   1.677   6.356  0.1043  0.2031  0.0971
  133OSM    H3S14365   4.774   1.668   6.309 -0.8611 -0.9279 -1.8973
  133OSM     O314366   4.605   1.581   6.275  0.3744  0.3720  0.8298
  133OSM    HO314367   4.547   1.636   6.222  1.4180  2.3042  1.5712
  133OSM    C4S14368   4.684   1.630   6.495  0.8978 -0.1611 -0.3542
  133OSM    H4S14369   4.783   1.649   6.540  0.4257 -0.2384  0.7613
  133OSM    C5S14370   4.576   1.591   6.572 -0.2632 -0.7398 -0.2081
  133OSM    H5S14371   4.478   1.581   6.522  1.3069  0.3502 -3.8450
  133OSM    C6S14372   4.585   1.576   6.721  0.2987  0.1969  0.1552
  133OSM    H6S14373   4.587   1.466   6.739 -1.3989  0.1512  0.1497
  133OSM    H6T14374   4.494   1.606   6.777  0.7066  2.1771 -0.1664
  133OSM    C7S14375   4.698   1.651   6.793 -0.8300 -0.3849 -0.0689
  133OSM    H7S14376   4.668   1.758   6.806  1.0412 -0.0706  2.5340
  133OSM    H7T14377   4.788   1.649   6.729 -1.7348  2.8837 -1.6521
  133OSM    C8S14378   4.722   1.598   6.932  0.7170 -0.1547 -0.3458
  133OSM    H8S14379   4.749   1.490   6.935 -0.3915 -0.4361  0.8117
  133OSM    H8T14380   4.628   1.610   6.991  0.7300  0.5867 -0.4722
  133OSM    C9S14381   4.844   1.666   6.999 -0.3370  0.2057 -0.0778
  133OSM    H9S14382   4.834   1.777   6.996  2.3047  0.4756 -1.8282
  133OSM    H9T14383   4.931   1.628   6.942  0.8568  1.3424  0.9202
  133OSM   C10S14384   4.859   1.604   7.139  0.1177 -0.5600  0.2055
  133OSM   H10S14385   4.864   1.494   7.131 -1.2985 -0.5794 -0.7062
  133OSM   H10T14386   4.786   1.638   7.215  0.2275  0.9339 -0.3148
  133OSM   C11S14387   5.001   1.649   7.205 -0.0504 -0.2652 -0.0471
  133OSM   H11S14388   5.006   1.759   7.190 -1.9897 -0.0795  0.3871
  133OSM   H11T14389   5.084   1.606   7.145  0.9199  2.5950 -0.9117
  133OSM   C12S14390   5.013   1.630   7.361 -0.3881 -0.3373 -0.4008
  133OSM   H12S14391   4.941   1.701   7.406 -1.0452  0.8194 -3.0492
  133OSM   H12T14392   5.118   1.649   7.392 -0.1413 -3.2117  0.8525
  133OSM   C13S14393   4.968   1.494   7.402 -0.5288  0.0650  0.3063
  133OSM   H13S14394   5.017   1.422   7.333  2.0740  2.6661 -0.7663
  133OSM   H13T14395   4.859   1.492   7.386 -0.7005 -0.7044  1.4583
  133OSM   C14S14396   4.995   1.449   7.543 -0.2923 -0.0311  0.5407
  133OSM   H14S14397   5.095   1.484   7.572 -0.3699  0.0751  0.6796
  133OSM   H14T14398   4.999   1.338   7.542 -2.6380 -0.2060  1.9526
  133OSM   C15S14399   4.898   1.506   7.636 -0.3108  0.6745  0.1140
  133OSM   H15S14400   4.797   1.461   7.627 -0.8300  1.2579  2.4414
  133OSM   H15T14401   4.888   1.616   7.624  1.2599  0.9786  1.3529
  133OSM   C16S14402   4.929   1.478   7.787 -0.3868 -0.1830 -0.0559
  133OSM   H16S14403   5.032   1.516   7.801  0.3517 -1.6380 -1.3642
  133OSM   H16T14404   4.917   1.371   7.814 -1.0474 -0.1254 -0.1045
  133OSM   C17S14405   4.836   1.552   7.886  0.2362 -0.5431  0.3726
  133OSM   H17S14406   4.864   1.518   7.988 -1.7838 -3.7433 -0.0128
  133OSM   H17T14407   4.728   1.546   7.863  0.3897  0.9496 -0.9575
  133OSM   C18S14408   4.879   1.699   7.893 -0.0363  0.5106 -0.6154
  133OSM   H18S14409   4.827   1.776   7.833  0.0599  1.6060  0.6685
  133OSM   H18T14410   4.984   1.710   7.858  0.2089 -0.9132 -0.4078
  133OSM   H18U14411   4.876   1.728   8.000  0.9855 -1.8361  0.1217
  133OSM    C1F14412   4.719   2.038   6.420  0.8919  0.1158  0.3336
  133OSM     OF14413   4.622   2.098   6.369 -0.2180  0.1495  0.3571
  133OSM    C2F14414   4.818   2.108   6.495  0.0006  0.3745 -0.0864
  133OSM    H2F14415   4.800   2.218   6.500  2.2986  0.7611  1.6617
  133OSM    H2G14416   4.919   2.097   6.450  0.1169 -0.2522  0.3194
  133OSM    C3F14417   4.821   2.050   6.644  0.4549 -0.2406  0.0530
  133OSM    H3F14418   4.863   1.948   6.648  2.4801  0.5699  0.5459
  133OSM    H3G14419   4.720   2.042   6.689 -0.0594  0.0182 -1.0189
  133OSM    C4F14420   4.894   2.141   6.742 -0.4686 -0.2688  0.1335
  133OSM    H4F14421   4.887   2.248   6.713  1.0697  0.0217  0.7227
  133OSM    H4G14422   5.004   2.125   6.746  0.0360  2.4638 -0.6439
  133OSM    C5F14423   4.840   2.112   6.884 -0.3706 -0.1903 -0.4040
  133OSM    H5F14424   4.844   2.001   6.887 -0.4521 -0.1710  0.4643
  133OSM    H5G14425   4.737   2.148   6.901 -0.2533  0.2812 -0.6502
  133OSM    C6F14426   4.929   2.172   6.996  0.4540 -1.4473 -0.0964
  133OSM    H6F14427   4.918   2.281   6.977  3.7943 -0.9098  0.4621
  133OSM    H6G14428   5.037   2.150   6.983  0.5874 -0.5554 -0.6326
  133OSM    C7F14429   4.885   2.140   7.133  0.0924 -0.7010  0.1399
  133OSM    H7F14430   4.853   2.035   7.117  3.2672 -1.4782 -1.8770
  133OSM    H7G14431   4.794   2.202   7.151 -1.5022 -2.8369 -0.1281
  133OSM    C8F14432   5.001   2.153   7.235  0.0499 -0.3959  0.7278
  133OSM    H8F14433   5.044   2.255   7.224  1.0208 -0.9821 -1.3625
  133OSM    H8G14434   5.072   2.074   7.204 -0.2178 -0.2820 -0.2014
  133OSM    C9F14435   4.959   2.136   7.376  0.0956 -0.0787  0.5521
  133OSM    H9F14436   4.875   2.203   7.402 -0.9883 -1.1090 -0.1989
  133OSM   C10F14437   5.011   2.053   7.471  0.0514 -0.0897 -0.5523
  133OSM   H10F14438   4.972   2.059   7.574 -0.6267 -0.6864 -0.7665
  133OSM   C11F14439   5.121   1.954   7.454  1.0602  0.1604 -0.1931
  133OSM   H11F14440   5.121   1.922   7.347  0.4737  0.7694 -0.3746
  133OSM   H11G14441   5.103   1.866   7.520 -0.4606  0.5340 -0.0841
  133OSM   C12F14442   5.266   2.009   7.483 -0.0191 -0.6200  0.1893
  133OSM   H12F14443   5.271   2.112   7.441  3.5007 -0.9347 -0.4645
  133OSM   H12G14444   5.348   1.946   7.442 -0.6526 -1.4241  0.1325
  133OSM   C13F14445   5.281   2.033   7.632  0.1582 -0.2715 -0.1469
  133OSM   H13F14446   5.281   1.937   7.689 -3.2767 -0.9947 -1.1270
  133OSM   H13G14447   5.200   2.095   7.675  1.8733  1.3216  0.8957
  133OSM   C14F14448   5.407   2.108   7.672  0.2146  0.0681  0.4494
  133OSM   H14F14449   5.415   2.116   7.783 -2.5679 -0.9844  0.8159
  133OSM   H14G14450   5.404   2.211   7.630  1.0077  0.6655  1.8019
  133OSM   C15F14451   5.536   2.040   7.633  0.0489  0.2400  0.2727
  133OSM   H15F14452   5.530   1.998   7.531 -2.8731 -1.4888  1.0381
  133OSM   H15G14453   5.544   1.956   7.706 -0.8048  0.9675  1.2362
  133OSM   C16F14454   5.652   2.140   7.652 -0.0998  0.2172  1.0332
  133OSM   H16F14455   5.658   2.182   7.754  0.9650  0.2272  0.9744
  133OSM   H16G14456   5.634   2.222   7.580  0.1421 -1.8014 -1.4853
  133OSM   C17F14457   5.783   2.064   7.634 -0.2307 -0.0956 -0.8439
  133OSM   H17F14458   5.772   1.962   7.676 -2.9789 -0.2773 -1.7780
  133OSM   H17G14459   5.862   2.112   7.695 -1.9436 -0.0099  1.4307
  133OSM   C18F14460   5.825   2.058   7.488 -0.0942 -0.9619 -0.4588
  133OSM   H18F14461   5.925   2.010   7.478  0.4490 -0.8354  3.0910
  133OSM   H18G14462   5.824   2.158   7.441  0.6819 -0.9724 -0.5215
  133OSM   H18H14463   5.748   1.992   7.444 -1.3945  0.2353 -0.0227
  134OSM      N14464   0.873   5.634   5.849 -0.2147 -0.5632 -0.2974
  134OSM    C1514465   0.997   5.613   5.923 -1.1103 -0.7767  0.3061
  134OSM   H15A14466   1.074   5.685   5.898 -0.7315 -1.7552 -1.5295
  134OSM   H15B14467   1.041   5.515   5.910 -2.0577 -1.0092 -1.3795
  134OSM   H15C14468   0.987   5.623   6.030  0.5220 -1.4541  0.5495
  134OSM    C1414469   0.905   5.652   5.700  0.4760 -0.2103  0.0633
  134OSM   H14A14470   0.943   5.751   5.681  0.9038 -0.5395 -0.8637
  134OSM   H14B14471   0.805   5.642   5.659  0.1112  0.6673  0.7035
  134OSM   H14C14472   0.964   5.568   5.666  0.7420 -0.1091  0.2758
  134OSM    C1314473   0.784   5.514   5.857 -0.2250 -0.4342  0.3185
  134OSM   H13A14474   0.834   5.439   5.799 -0.5611 -1.7081  1.6274
  134OSM   H13B14475   0.684   5.531   5.820  0.5053  1.7307 -0.8346
  134OSM   H13C14476   0.796   5.477   5.958  1.4458  1.2880  0.8170
  134OSM    C1214477   0.804   5.757   5.903 -0.0207 -0.7295 -0.9931
  134OSM   H12A14478   0.706   5.766   5.859 -1.0669  2.0993  1.5732
  134OSM   H12B14479   0.850   5.850   5.872 -0.7469  0.0661  0.2261
  134OSM    C1114480   0.788   5.781   6.057 -0.2843 -0.6245  0.1259
  134OSM   H11A14481   0.754   5.685   6.102 -1.1900  0.8364  2.7718
  134OSM   H11B14482   0.703   5.851   6.066  1.6632  1.8436  0.4832
  134OSM      P14483   0.966   5.973   6.114  0.1619 -0.0254 -0.1083
  134OSM    O1314484   1.111   5.974   6.158 -0.4013 -0.4252 -0.2991
  134OSM    O1414485   0.934   6.019   5.977 -0.5798  0.1876 -0.0202
  134OSM    O1114486   0.870   6.044   6.219  0.4090  0.5115  0.6333
  134OSM    O1214487   0.911   5.819   6.117 -0.3392  0.1823 -0.1925
  134OSM    C1S14488   0.888   6.025   6.359  0.2326 -0.1989 -0.1447
  134OSM    H1S14489   0.990   6.040   6.402 -0.1326  2.6079 -0.0487
  134OSM    H1T14490   0.865   5.921   6.390  1.6408 -0.2239  0.9447
  134OSM     NF14491   0.822   6.116   6.572  0.0845  0.9330  0.3623
  134OSM    HNF14492   0.778   6.052   6.634 -0.1167  0.3424 -0.3662
  134OSM    C2S14493   0.785   6.110   6.433  0.2287  0.1264 -0.0180
  134OSM    H2S14494   0.779   6.213   6.392 -1.0462 -0.2264 -0.7506
  134OSM    C3S14495   0.649   6.059   6.408 -1.3057  0.2756  0.5545
  134OSM    H3S14496   0.643   5.953   6.442 -1.2759  0.4868  1.2252
  134OSM     O314497   0.602   6.059   6.275  0.0870 -0.1078  0.4240
  134OSM    HO314498   0.683   6.077   6.228  0.4136  0.1218  1.0544
  134OSM    C4S14499   0.544   6.126   6.495 -0.0853  0.0860  0.4981
  134OSM    H4S14500   0.512   6.069   6.584 -1.1038 -0.8696 -0.4459
  134OSM    C5S14501   0.487   6.243   6.467  0.0862 -0.3756  0.0688
  134OSM    H5S14502   0.526   6.294   6.378  0.0715  0.6986  0.6669
  134OSM    C6S14503   0.398   6.307   6.569 -0.1224 -0.0349 -0.1057
  134OSM    H6S14504   0.334   6.234   6.623 -0.9391 -0.1688 -1.2043
  134OSM    H6T14505   0.315   6.364   6.521 -1.2851 -1.3042  0.3198
  134OSM    C7S14506   0.484   6.391   6.671  0.1819 -0.0705 -0.4765
  134OSM    H7S14507   0.408   6.430   6.742  0.6606 -2.3255  1.4060
  134OSM    H7T14508   0.536   6.479   6.628 -0.1576  0.4429  0.1406
  134OSM    C8S14509   0.590   6.316   6.752 -0.1465 -0.4468 -0.3516
  134OSM    H8S14510   0.692   6.354   6.727 -1.9748  3.8977 -2.2797
  134OSM    H8T14511   0.579   6.206   6.740 -1.0881 -0.4614  0.5120
  134OSM    C9S14512   0.577   6.355   6.897  0.7243 -0.3955 -0.1177
  134OSM    H9S14513   0.475   6.328   6.932  1.3882 -0.6952  1.6710
  134OSM    H9T14514   0.598   6.464   6.910  3.3654 -0.8962  0.4769
  134OSM   C10S14515   0.679   6.301   6.991  0.0997  0.0334 -0.5246
  134OSM   H10S14516   0.785   6.327   6.969 -0.0774  0.2570 -1.1478
  134OSM   H10T14517   0.682   6.190   6.997  0.3956  0.0142 -0.9958
  134OSM   C11S14518   0.656   6.349   7.132 -0.0320  0.1733 -0.4860
  134OSM   H11S14519   0.551   6.322   7.155  0.4636  0.1977  2.1528
  134OSM   H11T14520   0.674   6.459   7.140 -0.3668  0.3053 -1.4681
  134OSM   C12S14521   0.736   6.277   7.240  0.2350 -0.2824  0.4835
  134OSM   H12S14522   0.837   6.245   7.206 -0.8140 -0.9316 -2.2989
  134OSM   H12T14523   0.679   6.184   7.257 -2.6466  0.9247 -1.7165
  134OSM   C13S14524   0.729   6.329   7.381  0.5568 -0.5773 -0.8556
  134OSM   H13S14525   0.626   6.368   7.394  0.5703 -0.8686  0.1929
  134OSM   H13T14526   0.801   6.411   7.401  0.3758 -0.4512 -0.7221
  134OSM   C14S14527   0.764   6.215   7.486 -0.4230 -0.0124 -0.1831
  134OSM   H14S14528   0.862   6.183   7.444 -1.2032 -0.8797 -1.3963
  134OSM   H14T14529   0.693   6.131   7.473 -0.1876 -0.8705  3.0856
  134OSM   C15S14530   0.762   6.275   7.632  0.1710  0.7686 -0.0407
  134OSM   H15S14531   0.656   6.307   7.644 -0.0875 -0.7152  2.2070
  134OSM   H15T14532   0.827   6.364   7.643  1.0138  0.5917 -2.8290
  134OSM   C16S14533   0.785   6.159   7.732 -0.2355 -0.9026  0.3344
  134OSM   H16S14534   0.892   6.128   7.739  0.1723  0.7041  2.0019
  134OSM   H16T14535   0.722   6.070   7.709 -0.8782 -0.4004  0.1367
  134OSM   C17S14536   0.739   6.208   7.869  0.7943 -0.5637  0.1193
  134OSM   H17S14537   0.630   6.227   7.872  0.5915 -1.7345  0.5500
  134OSM   H17T14538   0.797   6.303   7.874 -0.5186  0.4120 -2.0101
  134OSM   C18S14539   0.776   6.113   7.983 -0.4087  0.2174 -0.7851
  134OSM   H18S14540   0.813   6.165   8.074 -1.1751 -2.0217  0.8844
  134OSM   H18T14541   0.849   6.038   7.945 -0.0764  0.4971 -0.7014
  134OSM   H18U14542   0.692   6.050   8.019  0.2499 -0.7613 -0.9317
  134OSM    C1F14543   0.919   6.193   6.621 -0.1927 -0.6241  0.0642
  134OSM     OF14544   0.958   6.288   6.550 -0.2303  0.3753 -0.1365
  134OSM    C2F14545   0.966   6.179   6.761  0.2905  0.2866  0.1366
  134OSM    H2F14546   1.021   6.083   6.762  3.3691  1.9169  0.3212
  134OSM    H2G14547   0.878   6.172   6.827 -0.6238 -1.4124 -1.1994
  134OSM    C3F14548   1.068   6.288   6.809  0.3216  0.0311 -0.1835
  134OSM    H3F14549   1.035   6.393   6.801 -2.2280 -0.7120 -0.2779
  134OSM    H3G14550   1.163   6.284   6.751  0.2804  0.8488 -0.3157
  134OSM    C4F14551   1.123   6.264   6.950 -0.6892  0.4853 -0.8286
  134OSM    H4F14552   1.154   6.158   6.947  0.9065  0.9208 -1.0200
  134OSM    H4G14553   1.034   6.256   7.016  0.4288  2.1892  1.0425
  134OSM    C5F14554   1.215   6.370   7.010 -0.1872 -0.1480  0.0578
  134OSM    H5F14555   1.157   6.465   7.006  1.2413  0.7226 -0.8377
  134OSM    H5G14556   1.311   6.380   6.955  1.3472  0.9958  2.7478
  134OSM    C6F14557   1.255   6.340   7.155 -0.0180  0.7115 -0.2997
  134OSM    H6F14558   1.314   6.426   7.193  2.4315 -0.6793 -0.7693
  134OSM    H6G14559   1.324   6.254   7.144 -2.6974 -1.3685 -2.0665
  134OSM    C7F14560   1.144   6.308   7.256 -0.3414  0.0847 -0.3827
  134OSM    H7F14561   1.090   6.221   7.212  2.9489 -0.4308 -3.9128
  134OSM    H7G14562   1.078   6.397   7.264 -2.4442 -1.5481  3.4511
  134OSM    C8F14563   1.206   6.273   7.399  0.2078  0.1139 -0.0068
  134OSM    H8F14564   1.295   6.209   7.385  0.7406  1.1823 -1.9039
  134OSM    H8G14565   1.126   6.221   7.455  0.1971 -2.2558 -2.0390
  134OSM    C9F14566   1.237   6.395   7.483 -0.3045  0.1055 -0.9406
  134OSM    H9F14567   1.224   6.495   7.441 -3.1783  0.1489 -0.1509
  134OSM   C10F14568   1.251   6.389   7.619 -0.1622 -0.1161  0.1003
  134OSM   H10F14569   1.265   6.477   7.684 -0.0457 -0.4099  0.4781
  134OSM   C11F14570   1.251   6.263   7.693  0.4913  0.0395  0.4088
  134OSM   H11F14571   1.352   6.256   7.740  0.7036  1.5391  0.2309
  134OSM   H11G14572   1.240   6.169   7.636 -0.0544 -0.1228  0.7731
  134OSM   C12F14573   1.157   6.252   7.816 -0.8147  0.5389 -0.4648
  134OSM   H12F14574   1.185   6.158   7.868 -1.1009 -0.0641 -1.3832
  134OSM   H12G14575   1.052   6.247   7.780 -0.9597 -1.3528  0.0895
  134OSM   C13F14576   1.158   6.358   7.928  0.2415 -0.2854 -0.0993
  134OSM   H13F14577   1.126   6.459   7.893 -2.7749 -1.4052 -0.8464
  134OSM   H13G14578   1.265   6.370   7.956  0.5637 -1.4935 -0.7587
  134OSM   C14F14579   1.095   6.307   8.057 -0.1801 -0.8356 -0.8656
  134OSM   H14F14580   1.099   6.197   8.075  1.5460 -0.4151  2.1346
  134OSM   H14G14581   0.987   6.332   8.051 -0.7926 -3.0440 -0.1286
  134OSM   C15F14582   1.151   6.376   8.182 -0.0445 -0.1616  0.0917
  134OSM   H15F14583   1.132   6.485   8.181 -0.3168 -0.2070 -0.1495
  134OSM   H15G14584   1.259   6.353   8.183 -0.3741 -1.8062  1.1691
  134OSM   C16F14585   1.087   6.342   8.311  0.0070 -0.2057 -0.6580
  134OSM   H16F14586   0.984   6.382   8.316 -0.8337 -2.3540  0.3414
  134OSM   H16G14587   1.144   6.394   8.392  2.1463 -1.9465 -0.9614
  134OSM   C17F14588   1.082   6.194   8.356  0.6931 -0.1335 -0.4111
  134OSM   H17F14589   1.036   6.137   8.272  0.6999  1.6517 -1.6987
  134OSM   H17G14590   1.028   6.195   8.453 -0.8161  2.8895 -1.1609
  134OSM   C18F14591   1.215   6.123   8.368 -0.0841 -0.0165 -0.5214
  134OSM   H18F14592   1.296   6.177   8.421 -1.8793  1.7077  0.5948
  134OSM   H18G14593   1.243   6.078   8.271  1.2348 -1.9514  0.6730
  134OSM   H18H14594   1.196   6.033   8.431  0.0984 -0.5337 -1.1892
  135OSM      N14595   1.147   6.317   5.634  0.5434 -0.6186  0.7716
  135OSM    C1514596   1.110   6.320   5.485  0.0102 -0.1340  0.5431
  135OSM   H15A14597   1.196   6.348   5.427 -0.2842 -0.1466  0.0990
  135OSM   H15B14598   1.021   6.378   5.467  0.0675 -0.7772 -2.1489
  135OSM   H15C14599   1.085   6.221   5.449  0.1610  1.2225 -3.8519
  135OSM    C1414600   1.249   6.209   5.665  0.0831 -0.3243  0.7598
  135OSM   H14A14601   1.322   6.203   5.586 -0.5297 -0.8532  0.2233
  135OSM   H14B14602   1.198   6.114   5.662 -1.1426  0.3486 -0.4755
  135OSM   H14C14603   1.290   6.224   5.764 -1.1158  0.8245  1.1076
  135OSM    C1314604   1.211   6.444   5.677 -0.1985 -0.9935  0.0043
  135OSM   H13A14605   1.217   6.441   5.785  1.0451 -1.1104 -0.0523
  135OSM   H13B14606   1.143   6.520   5.641  1.2300  0.5628  0.4587
  135OSM   H13C14607   1.307   6.460   5.630  0.3048  0.5422  1.4779
  135OSM    C1214608   1.025   6.275   5.719  0.6708  0.3724  0.7251
  135OSM   H12A14609   1.060   6.257   5.820 -1.4892 -3.0389  1.0473
  135OSM   H12B14610   0.982   6.178   5.699  0.5588  0.9399 -2.2753
  135OSM    C1114611   0.899   6.376   5.735 -0.0518  0.3373 -0.3920
  135OSM   H11A14612   0.841   6.325   5.816  0.1562  0.7876  0.0424
  135OSM   H11B14613   0.844   6.367   5.639 -1.5295 -0.4240  0.4713
  135OSM      P14614   0.855   6.599   5.869  0.0041  0.1727  0.0215
  135OSM    O1314615   0.950   6.692   5.939  0.6812 -0.1457 -0.1483
  135OSM    O1414616   0.746   6.651   5.780  0.0852  0.1755 -0.1083
  135OSM    O1114617   0.806   6.496   5.983  0.9224  0.4814 -0.0528
  135OSM    O1214618   0.940   6.514   5.769  0.4482  0.7721  0.6338
  135OSM    C1S14619   0.893   6.409   6.057  0.6983 -0.0339  0.2189
  135OSM    H1S14620   0.994   6.397   6.011  0.3627 -1.5563 -0.1628
  135OSM    H1T14621   0.847   6.309   6.059 -0.3900  0.3583 -2.1052
  135OSM     NF14622   1.007   6.389   6.276 -0.3327 -0.4541 -0.8927
  135OSM    HNF14623   0.991   6.347   6.365  3.8416 -1.7005 -0.5232
  135OSM    C2S14624   0.909   6.467   6.205  0.5317 -1.0605  0.4731
  135OSM    H2S14625   0.947   6.567   6.177  0.8613 -1.7157 -1.5409
  135OSM    C3S14626   0.773   6.484   6.284 -0.1402  0.7944 -0.9474
  135OSM    H3S14627   0.740   6.380   6.307  0.3216  0.5176 -1.5146
  135OSM     O314628   0.666   6.540   6.202  0.1536  0.5753  0.6254
  135OSM    HO314629   0.703   6.548   6.114 -0.4510  2.2281  0.4749
  135OSM    C4S14630   0.796   6.540   6.423 -0.4050  0.2288 -0.8934
  135OSM    H4S14631   0.804   6.468   6.506  0.2280  0.6478 -0.5836
  135OSM    C5S14632   0.805   6.671   6.443 -0.3068 -0.3221  0.8108
  135OSM    H5S14633   0.788   6.754   6.373 -1.2096 -0.0576  1.3366
  135OSM    C6S14634   0.817   6.734   6.570  0.0258 -0.1259  0.0493
  135OSM    H6S14635   0.731   6.798   6.599  1.9780  2.4110  0.5740
  135OSM    H6T14636   0.898   6.808   6.557  2.6732 -2.6936  0.6916
  135OSM    C7S14637   0.842   6.650   6.694 -0.3438 -0.4098  0.0676
  135OSM    H7S14638   0.937   6.595   6.676  0.4093  1.7121 -3.3552
  135OSM    H7T14639   0.769   6.568   6.704 -0.6886 -0.3398 -1.5960
  135OSM    C8S14640   0.859   6.747   6.810 -0.1847 -0.4995  0.3237
  135OSM    H8S14641   0.769   6.802   6.845 -0.3459  0.4642 -1.4892
  135OSM    H8T14642   0.940   6.821   6.794  1.6258 -1.9265  2.2587
  135OSM    C9S14643   0.899   6.667   6.935 -0.0757 -1.1092  0.2821
  135OSM    H9S14644   0.996   6.615   6.916  1.3152  1.9175 -1.5938
  135OSM    H9T14645   0.813   6.598   6.947 -0.0587 -1.2934 -0.6259
  135OSM   C10S14646   0.908   6.753   7.063 -0.2670  0.1553  0.3010
  135OSM   H10S14647   0.831   6.833   7.054 -1.5246 -1.1790 -1.5570
  135OSM   H10T14648   1.008   6.802   7.065 -0.3461  0.3235  0.2192
  135OSM   C11S14649   0.884   6.664   7.190 -0.3332  0.3740  0.6232
  135OSM   H11S14650   0.934   6.564   7.192 -0.8460  0.0981  0.1425
  135OSM   H11T14651   0.778   6.634   7.201  0.3765 -1.3280  4.2367
  135OSM   C12S14652   0.929   6.733   7.319  0.5004  0.9119  0.2498
  135OSM   H12S14653   0.870   6.827   7.326  0.3999  1.0985 -2.1626
  135OSM   H12T14654   1.035   6.766   7.306  0.9651 -1.5369 -3.6940
  135OSM   C13S14655   0.906   6.654   7.454 -0.0187 -0.1531 -0.0572
  135OSM   H13S14656   0.959   6.556   7.445 -3.6275 -2.0879 -3.8036
  135OSM   H13T14657   0.801   6.621   7.465  0.6999 -2.8479 -0.5266
  135OSM   C14S14658   0.946   6.733   7.576 -0.4119  1.4975  0.7724
  135OSM   H14S14659   0.890   6.829   7.572  0.9304  2.2579 -1.2853
  135OSM   H14T14660   1.051   6.766   7.593  0.2147 -0.6718  1.4041
  135OSM   C15S14661   0.908   6.666   7.710  0.2119  0.4273  0.2506
  135OSM   H15S14662   0.979   6.584   7.736  0.8405  1.1776  0.9567
  135OSM   H15T14663   0.809   6.617   7.704 -0.7196  2.3372 -0.7308
  135OSM   C16S14664   0.919   6.771   7.818  0.4793 -0.1200  0.3686
  135OSM   H16S14665   0.865   6.865   7.794  1.1164  0.1098 -0.1720
  135OSM   H16T14666   1.017   6.822   7.830 -0.6993  2.3157  0.2340
  135OSM   C17S14667   0.889   6.722   7.968 -0.1840 -0.6429  0.1329
  135OSM   H17S14668   0.976   6.657   7.991  1.8681  1.6824 -0.5964
  135OSM   H17T14669   0.803   6.652   7.960 -1.7919  1.2693 -0.1766
  135OSM   C18S14670   0.877   6.832   8.072 -0.4662  0.1861 -0.5719
  135OSM   H18S14671   0.969   6.894   8.077 -0.7650  0.6387 -0.6937
  135OSM   H18T14672   0.857   6.782   8.170 -1.0000  0.9599 -0.2723
  135OSM   H18U14673   0.789   6.897   8.054  1.7038  3.0974 -1.2954
  135OSM    C1F14674   1.137   6.374   6.243  0.2276 -0.5080 -0.2089
  135OSM     OF14675   1.178   6.407   6.131  0.2621  0.4666 -0.5003
  135OSM    C2F14676   1.223   6.300   6.335  0.2244  0.2894  0.3947
  135OSM    H2F14677   1.235   6.196   6.300 -0.4962  0.0461  0.8582
  135OSM    H2G14678   1.175   6.290   6.435  1.3278 -1.5796  0.7738
  135OSM    C3F14679   1.359   6.380   6.348  0.3063  0.4208  0.4053
  135OSM    H3F14680   1.345   6.490   6.339 -0.7826  0.2821  0.2573
  135OSM    H3G14681   1.427   6.360   6.262 -0.9787 -1.0741 -0.3146
  135OSM    C4F14682   1.437   6.344   6.473  0.2318 -0.1635  0.1823
  135OSM    H4F14683   1.447   6.235   6.488  0.6461  0.0745  1.8630
  135OSM    H4G14684   1.373   6.367   6.561 -0.8157 -0.5134 -0.4660
  135OSM    C5F14685   1.580   6.409   6.477 -0.4909 -0.4516  0.6019
  135OSM    H5F14686   1.578   6.517   6.503  0.3048 -0.9909  3.1364
  135OSM    H5G14687   1.619   6.416   6.373 -0.6536  1.5457  0.6310
  135OSM    C6F14688   1.678   6.353   6.575  0.3418  0.3001  0.3698
  135OSM    H6F14689   1.773   6.411   6.575 -0.3614  1.4778  0.2921
  135OSM    H6G14690   1.714   6.251   6.552  1.5683  0.7048  0.4384
  135OSM    C7F14691   1.612   6.354   6.715  0.0714  0.2873  0.4462
  135OSM    H7F14692   1.519   6.293   6.713  0.4804 -0.3674  0.9144
  135OSM    H7G14693   1.584   6.451   6.761  0.0272  0.3027  0.3872
  135OSM    C8F14694   1.700   6.281   6.822 -0.3526  0.7351 -0.1606
  135OSM    H8F14695   1.775   6.351   6.864 -0.9706  0.2460  1.8452
  135OSM    H8G14696   1.758   6.204   6.768 -0.3254 -0.7865  1.9275
  135OSM    C9F14697   1.614   6.214   6.924  0.1446 -0.0399 -0.0806
  135OSM    H9F14698   1.555   6.133   6.878 -3.0614  2.8724 -1.5209
  135OSM   C10F14699   1.606   6.249   7.054 -0.2365 -0.0372 -0.2249
  135OSM   H10F14700   1.535   6.197   7.120  0.2799 -2.0018 -1.1398
  135OSM   C11F14701   1.692   6.368   7.102  0.8475  0.0170 -0.4074
  135OSM   H11F14702   1.669   6.465   7.053 -1.0945 -0.0140  0.3443
  135OSM   H11G14703   1.801   6.347   7.100  0.7260 -1.0948  1.9675
  135OSM   C12F14704   1.645   6.399   7.247 -0.2831  0.0464  0.8046
  135OSM   H12F14705   1.538   6.374   7.260 -0.8038  0.4897 -1.9920
  135OSM   H12G14706   1.651   6.507   7.273 -1.9549  1.4499 -3.7009
  135OSM   C13F14707   1.717   6.314   7.353 -0.3073 -0.0782 -0.4972
  135OSM   H13F14708   1.827   6.319   7.339 -0.1709 -0.1637  0.4660
  135OSM   H13G14709   1.679   6.210   7.367  0.1597 -0.3769 -1.3561
  135OSM   C14F14710   1.698   6.381   7.492  0.6042  0.5183  0.2739
  135OSM   H14F14711   1.591   6.409   7.499  0.9315  1.4973  1.8549
  135OSM   H14G14712   1.755   6.476   7.484 -0.8980  1.5125  1.1444
  135OSM   C15F14713   1.742   6.305   7.618  0.1306 -0.0994  0.1181
  135OSM   H15F14714   1.846   6.273   7.596  0.6372 -0.9210  3.2242
  135OSM   H15G14715   1.669   6.222   7.629  0.9790 -0.5574  2.7420
  135OSM   C16F14716   1.739   6.397   7.737 -0.1193 -0.5341 -0.5773
  135OSM   H16F14717   1.630   6.406   7.758  0.1059 -0.0769  0.4791
  135OSM   H16G14718   1.770   6.498   7.705  0.4019  0.4134  2.5450
  135OSM   C17F14719   1.820   6.342   7.858 -0.1079  0.1061 -0.9760
  135OSM   H17F14720   1.820   6.421   7.937  1.4000  3.3903 -4.0106
  135OSM   H17G14721   1.925   6.325   7.827 -0.0389 -0.3628 -0.5068
  135OSM   C18F14722   1.762   6.208   7.911 -0.2749 -0.4269  0.3184
  135OSM   H18F14723   1.655   6.221   7.939 -1.1563 -1.2596 -2.3772
  135OSM   H18G14724   1.823   6.163   7.993 -0.5283  0.1937  0.8569
  135OSM   H18H14725   1.767   6.137   7.825 -1.2441  1.7282 -1.6183
  136OSM      N14726   4.977   0.785   5.626 -0.4589  0.1287 -0.1365
  136OSM    C1514727   5.026   0.908   5.556 -0.4384 -0.0398  0.0763
  136OSM   H15A14728   4.999   0.926   5.454  1.1697  0.4894 -0.2836
  136OSM   H15B14729   5.134   0.911   5.552 -0.4529  1.3686  0.1876
  136OSM   H15C14730   4.992   0.993   5.614  0.7889 -0.2837  1.2023
  136OSM    C1414731   4.825   0.781   5.615 -0.4450 -0.1430 -0.2586
  136OSM   H14A14732   4.778   0.848   5.685  0.9408 -2.1809  2.8158
  136OSM   H14B14733   4.788   0.680   5.623  0.1852 -0.4924 -1.4580
  136OSM   H14C14734   4.786   0.822   5.523 -1.5164  1.4788  0.8716
  136OSM    C1314735   5.023   0.666   5.555 -0.7485  0.1031 -0.1016
  136OSM   H13A14736   4.987   0.651   5.454  2.4065 -0.4767 -1.2635
  136OSM   H13B14737   4.990   0.583   5.615 -0.1439  0.8906  1.3672
  136OSM   H13C14738   5.129   0.648   5.559 -0.5568  0.9993 -0.7166
  136OSM    C1214739   5.012   0.785   5.779  0.5106  0.6137 -0.3328
  136OSM   H12A14740   5.004   0.885   5.818 -1.3764 -0.2609  1.7738
  136OSM   H12B14741   5.114   0.756   5.799 -0.4266 -0.6441  3.4172
  136OSM    C1114742   4.923   0.683   5.859  0.1967 -0.1568 -0.4115
  136OSM   H11A14743   4.818   0.721   5.853  0.0735  0.0183  1.8445
  136OSM   H11B14744   4.951   0.692   5.966 -1.9305  1.9698  0.0578
  136OSM      P14745   4.833   0.443   5.861 -0.2688 -0.0511 -0.1494
  136OSM    O1314746   4.710   0.483   5.804  0.3278 -0.3466 -0.0028
  136OSM    O1414747   4.877   0.308   5.823  0.3930 -0.2446 -0.4584
  136OSM    O1114748   4.835   0.457   6.021  0.0017 -0.2523  0.3750
  136OSM    O1214749   4.944   0.551   5.811 -0.2626  0.0206  0.0546
  136OSM    C1S14750   4.953   0.418   6.095  0.3032 -0.1796  0.2250
  136OSM    H1S14751   5.031   0.493   6.070 -1.1753  1.0173 -1.0315
  136OSM    H1T14752   4.989   0.316   6.071  0.9275  0.5393 -2.0622
  136OSM     NF14753   5.031   0.383   6.334  0.1003 -0.2964 -0.3025
  136OSM    HNF14754   5.015   0.305   6.394  0.3431 -0.3252 -0.2747
  136OSM    C2S14755   4.917   0.415   6.253  0.1506  0.1684  0.4689
  136OSM    H2S14756   4.895   0.523   6.268  0.9144  0.4557 -0.4252
  136OSM    C3S14757   4.787   0.324   6.285 -0.6517  0.3715 -0.1442
  136OSM    H3S14758   4.824   0.224   6.256 -0.3410  0.2554  0.6291
  136OSM     O314759   4.670   0.349   6.207  0.5181 -0.1798  0.5082
  136OSM    HO314760   4.708   0.369   6.121 -1.2674  3.4863  0.3599
  136OSM    C4S14761   4.748   0.315   6.430 -0.0205 -0.1274 -0.2233
  136OSM    H4S14762   4.811   0.244   6.485  1.7940  1.0449 -0.7035
  136OSM    C5S14763   4.671   0.400   6.494 -0.2069  0.3882 -0.5504
  136OSM    H5S14764   4.645   0.493   6.441 -0.2629  0.4970 -0.3349
  136OSM    C6S14765   4.645   0.401   6.645 -0.2811  0.1647 -0.6128
  136OSM    H6S14766   4.546   0.360   6.675 -0.1858  0.1669 -0.2934
  136OSM    H6T14767   4.634   0.503   6.688 -1.7693 -0.3957  0.4242
  136OSM    C7S14768   4.756   0.334   6.726  0.0191 -0.7339 -0.0888
  136OSM    H7S14769   4.854   0.374   6.694 -0.9416  0.2681 -1.9014
  136OSM    H7T14770   4.745   0.224   6.714  0.2198 -0.5294 -2.5534
  136OSM    C8S14771   4.747   0.353   6.879 -0.5580 -0.4875 -0.3116
  136OSM    H8S14772   4.738   0.462   6.894  3.3542 -0.2391  1.4459
  136OSM    H8T14773   4.839   0.314   6.927 -1.4269 -2.5784 -0.1975
  136OSM    C9S14774   4.629   0.273   6.943  0.4576  0.0866 -0.1773
  136OSM    H9S14775   4.649   0.172   6.901  2.1581  0.0040  0.7604
  136OSM    H9T14776   4.530   0.304   6.902 -0.6578 -2.4877  0.4069
  136OSM   C10S14777   4.609   0.264   7.102  0.4570 -0.6300 -0.0801
  136OSM   H10S14778   4.696   0.228   7.160  1.6183  0.2032 -1.2659
  136OSM   H10T14779   4.520   0.205   7.134  0.1466  1.4617  3.4793
  136OSM   C11S14780   4.590   0.407   7.163 -0.3468 -0.3354  0.3726
  136OSM   H11S14781   4.499   0.449   7.115  0.5009  0.4310 -0.5878
  136OSM   H11T14782   4.683   0.464   7.143  0.6710 -2.1340 -0.3157
  136OSM   C12S14783   4.558   0.392   7.317  0.6809 -0.4028 -0.2609
  136OSM   H12S14784   4.643   0.353   7.378 -0.3160  0.0754  1.5087
  136OSM   H12T14785   4.468   0.327   7.325  0.3251 -0.0021 -0.9526
  136OSM   C13S14786   4.518   0.534   7.371  0.4392 -0.0288 -0.1216
  136OSM   H13S14787   4.428   0.569   7.315  0.5510 -0.8619 -0.8499
  136OSM   H13T14788   4.597   0.610   7.352  0.1963  0.6331  1.4079
  136OSM   C14S14789   4.486   0.549   7.523 -0.4726  0.4529  0.3051
  136OSM   H14S14790   4.566   0.508   7.589 -1.2580  0.1049  1.0615
  136OSM   H14T14791   4.390   0.499   7.545 -0.6067  0.9992  0.9734
  136OSM   C15S14792   4.464   0.690   7.567  0.5489  0.0869 -0.4244
  136OSM   H15S14793   4.405   0.740   7.488  0.4505  2.1599  0.8804
  136OSM   H15T14794   4.561   0.743   7.581  0.0390  0.7676  0.6672
  136OSM   C16S14795   4.379   0.697   7.705 -0.2608  0.1298  0.2263
  136OSM   H16S14796   4.277   0.658   7.689  0.1994 -1.4014  0.8952
  136OSM   H16T14797   4.385   0.804   7.736 -1.3135 -0.0538  1.1081
  136OSM   C17S14798   4.438   0.616   7.816  0.1521  0.2085 -0.0924
  136OSM   H17S14799   4.538   0.658   7.837  0.9084 -1.5013 -0.0583
  136OSM   H17T14800   4.465   0.512   7.784  1.3848  0.5411 -0.1848
  136OSM   C18S14801   4.346   0.622   7.936  0.5868  0.5183 -0.0986
  136OSM   H18S14802   4.360   0.538   8.008  1.4427 -0.9787 -1.9434
  136OSM   H18T14803   4.246   0.599   7.895 -0.3153 -1.2579  2.7577
  136OSM   H18U14804   4.356   0.722   7.984  0.5767  0.8871 -0.8499
  136OSM    C1F14805   5.141   0.449   6.343  0.1422 -0.6335 -0.1388
  136OSM     OF14806   5.154   0.542   6.262  0.0766  0.5460  0.1411
  136OSM    C2F14807   5.239   0.427   6.451 -0.1680 -0.3229  0.0017
  136OSM    H2F14808   5.339   0.416   6.403 -0.9678  1.5231 -2.2675
  136OSM    H2G14809   5.218   0.329   6.499 -2.7324 -0.2504 -0.8247
  136OSM    C3F14810   5.241   0.537   6.563  0.5128  0.6303  0.4517
  136OSM    H3F14811   5.136   0.562   6.587 -0.7516 -0.5719 -3.1446
  136OSM    H3G14812   5.280   0.632   6.522  2.2119 -0.5921 -0.9747
  136OSM    C4F14813   5.323   0.485   6.682 -0.0787 -1.2899 -0.7940
  136OSM    H4F14814   5.430   0.475   6.655 -0.3673 -0.0894 -2.5578
  136OSM    H4G14815   5.270   0.397   6.725 -0.7923 -0.2998  0.4214
  136OSM    C5F14816   5.332   0.609   6.776 -0.0718 -0.3122 -0.0732
  136OSM    H5F14817   5.229   0.634   6.808  1.1497  1.3631  3.0369
  136OSM    H5G14818   5.359   0.698   6.715  1.0846 -0.8695 -0.4052
  136OSM    C6F14819   5.426   0.601   6.895  0.4820 -1.1202  0.5376
  136OSM    H6F14820   5.420   0.700   6.946  1.8378  0.1876 -1.6497
  136OSM    H6G14821   5.533   0.591   6.865  1.2502  1.1032  2.1767
  136OSM    C7F14822   5.384   0.492   6.999 -0.8185 -0.5292 -0.2622
  136OSM    H7F14823   5.385   0.395   6.944  2.3718 -2.1619  2.3161
  136OSM    H7G14824   5.286   0.526   7.040  0.1949  0.7612  1.2151
  136OSM    C8F14825   5.481   0.479   7.113 -0.6126 -0.1376 -0.5192
  136OSM    H8F14826   5.587   0.473   7.082 -0.6225 -3.6745 -0.2300
  136OSM    H8G14827   5.464   0.388   7.174 -3.1705 -0.0181 -0.9431
  136OSM    C9F14828   5.487   0.607   7.197 -0.7794 -0.1127 -0.2744
  136OSM    H9F14829   5.546   0.693   7.160 -0.9893 -1.2555 -3.6390
  136OSM   C10F14830   5.423   0.631   7.314  0.5115  0.8446  0.5223
  136OSM   H10F14831   5.442   0.725   7.367  3.2787  2.7478 -3.3160
  136OSM   C11F14832   5.340   0.525   7.383  0.1350  0.7282 -0.1956
  136OSM   H11F14833   5.333   0.429   7.329 -1.1149  0.5312  0.2862
  136OSM   H11G14834   5.236   0.563   7.396 -0.4873  0.1898 -2.9789
  136OSM   C12F14835   5.396   0.482   7.522 -0.6677 -0.2600 -0.7404
  136OSM   H12F14836   5.505   0.473   7.499 -0.5433 -2.3735  0.3644
  136OSM   H12G14837   5.361   0.378   7.539  0.6244 -0.3619  1.8841
  136OSM   C13F14838   5.358   0.586   7.634 -0.7378  0.5132 -0.2239
  136OSM   H13F14839   5.254   0.556   7.659 -1.1668  1.9512 -0.2345
  136OSM   H13G14840   5.354   0.692   7.601 -1.5769  1.9620  3.9209
  136OSM   C14F14841   5.442   0.580   7.756  0.4581  0.5729 -0.0965
  136OSM   H14F14842   5.512   0.666   7.763 -0.6781  1.4733  0.7284
  136OSM   H14G14843   5.510   0.493   7.754  0.5448  0.6478 -0.6520
  136OSM   C15F14844   5.355   0.589   7.872  0.1660  0.0556 -0.7034
  136OSM   H15F14845   5.405   0.561   7.967 -0.0985  1.6056 -0.0821
  136OSM   H15G14846   5.269   0.518   7.874  0.0165  0.2508  0.3237
  136OSM   C16F14847   5.314   0.736   7.894 -0.2354  0.0429 -0.4139
  136OSM   H16F14848   5.277   0.779   7.798  0.8897 -0.9002 -1.2991
  136OSM   H16G14849   5.410   0.792   7.904 -0.3276 -0.1379  1.9158
  136OSM   C17F14850   5.206   0.766   7.998 -0.5529  0.3379  1.0430
  136OSM   H17F14851   5.242   0.744   8.101  1.1373 -2.8528 -0.1062
  136OSM   H17G14852   5.119   0.705   7.968  0.2988 -0.7791  0.7866
  136OSM   C18F14853   5.174   0.920   7.997  0.4414 -0.2713  0.4747
  136OSM   H18F14854   5.087   0.950   8.058  0.8946  0.5221  0.7386
  136OSM   H18G14855   5.150   0.951   7.893 -0.9240 -0.4372  0.7207
  136OSM   H18H14856   5.261   0.983   8.024  0.5363  0.6820 -1.8072
  137OSM      N14857   1.833   5.592   5.813 -0.0071  0.2354  0.2008
  137OSM    C1514858   1.894   5.710   5.739  1.1523 -0.2468  0.6139
  137OSM   H15A14859   1.810   5.775   5.720  1.0588 -0.6350 -0.3269
  137OSM   H15B14860   1.930   5.684   5.641 -1.7147 -4.2776  0.4174
  137OSM   H15C14861   1.974   5.760   5.792  1.9723 -1.7280  0.8259
  137OSM    C1414862   1.738   5.509   5.726  0.0582  0.0952  0.0225
  137OSM   H14A14863   1.790   5.472   5.639  2.0047 -0.4514  1.3455
  137OSM   H14B14864   1.649   5.565   5.702  1.0469  1.4548 -0.5741
  137OSM   H14C14865   1.704   5.424   5.784  1.5538  0.4182  1.4367
  137OSM    C1314866   1.945   5.499   5.848 -0.5190 -0.2172  0.1930
  137OSM   H13A14867   1.907   5.405   5.887  0.4271 -1.1577 -1.0654
  137OSM   H13B14868   2.021   5.546   5.908 -1.5138  1.2881  0.3104
  137OSM   H13C14869   1.996   5.467   5.758  1.2792  2.4793  0.1464
  137OSM    C1214870   1.760   5.640   5.936  0.3905 -0.1027  0.7349
  137OSM   H12A14871   1.683   5.707   5.901  0.3917 -0.4262  0.0930
  137OSM   H12B14872   1.818   5.702   6.003 -1.0866  0.7550  1.2608
  137OSM    C1114873   1.699   5.530   6.024 -0.2757 -0.4780 -0.5027
  137OSM   H11A14874   1.649   5.574   6.112 -0.0759 -1.3422  0.0562
  137OSM   H11B14875   1.783   5.465   6.058 -1.7688 -1.4086  1.6321
  137OSM      P14876   1.447   5.492   5.937  0.5513 -0.4990  0.2776
  137OSM    O1314877   1.422   5.632   5.888 -0.1849 -0.0335 -0.6448
  137OSM    O1414878   1.376   5.393   5.855  0.3074 -0.4278  0.8735
  137OSM    O1114879   1.393   5.477   6.080 -0.5827  0.4389 -0.0073
  137OSM    O1214880   1.607   5.460   5.952 -0.3825  0.2574  0.0979
  137OSM    C1S14881   1.404   5.346   6.148  0.1580 -0.0239  0.1657
  137OSM    H1S14882   1.509   5.322   6.173  0.7076  1.0127 -1.0268
  137OSM    H1T14883   1.358   5.261   6.093  2.2971 -0.3557 -1.2361
  137OSM     NF14884   1.372   5.234   6.372  0.1687  0.0220  0.6371
  137OSM    HNF14885   1.303   5.163   6.385  1.1537 -0.9280  0.8091
  137OSM    C2S14886   1.328   5.349   6.288 -0.5563  0.1802 -0.3011
  137OSM    H2S14887   1.359   5.446   6.332 -1.2403  0.9488 -1.4675
  137OSM    C3S14888   1.179   5.364   6.276  0.2185 -0.4205  0.4551
  137OSM    H3S14889   1.136   5.273   6.229 -0.0709 -0.1770  0.2460
  137OSM     O314890   1.153   5.480   6.201  0.8855 -0.8557 -0.6384
  137OSM    HO314891   1.240   5.504   6.169  1.9270 -1.4087  1.6081
  137OSM    C4S14892   1.114   5.377   6.414  0.3626  0.4129 -0.8124
  137OSM    H4S14893   1.120   5.478   6.456  0.0737  0.7377 -1.5354
  137OSM    C5S14894   1.033   5.296   6.481  0.2404  0.3123 -0.6214
  137OSM    H5S14895   0.999   5.210   6.422 -2.0066  0.7848 -0.1220
  137OSM    C6S14896   0.961   5.310   6.610 -1.1741  1.0408  0.3982
  137OSM    H6S14897   0.940   5.209   6.652 -0.1597 -0.0502 -1.5395
  137OSM    H6T14898   0.870   5.371   6.596 -0.9995  1.3294  0.5089
  137OSM    C7S14899   1.040   5.403   6.710 -0.2657  0.1249  0.6443
  137OSM    H7S14900   1.015   5.508   6.681  0.1270 -0.0286 -0.2883
  137OSM    H7T14901   1.149   5.382   6.706 -0.6025 -2.3641  2.3481
  137OSM    C8S14902   0.988   5.374   6.855 -0.0802 -0.2610 -0.2404
  137OSM    H8S14903   0.877   5.384   6.856 -0.0816 -0.2627 -0.3573
  137OSM    H8T14904   1.030   5.455   6.920 -1.7982  0.1963  0.3732
  137OSM    C9S14905   1.034   5.235   6.908 -0.6150  0.3818  0.2745
  137OSM    H9S14906   1.135   5.221   6.863 -0.6163  2.2513 -0.4252
  137OSM    H9T14907   0.961   5.163   6.867 -0.3474  0.0383  0.3903
  137OSM   C10S14908   1.035   5.223   7.061  0.1837  0.2392 -0.2656
  137OSM   H10S14909   1.057   5.119   7.096 -0.7025 -0.1874 -0.9378
  137OSM   H10T14910   0.934   5.246   7.101  1.1575  3.4774  0.6651
  137OSM   C11S14911   1.126   5.315   7.136 -0.2800  0.2232 -0.8297
  137OSM   H11S14912   1.096   5.422   7.133  2.1971  1.0183 -0.0184
  137OSM   H11T14913   1.231   5.311   7.100 -0.4355  0.6825 -1.3397
  137OSM   C12S14914   1.140   5.275   7.287 -0.3957  0.2011 -0.5577
  137OSM   H12S14915   1.170   5.169   7.297  1.4810  0.8337  1.2540
  137OSM   H12T14916   1.037   5.278   7.330  0.3424 -2.6443  1.7389
  137OSM   C13S14917   1.236   5.359   7.378  0.0474 -0.0157  0.5012
  137OSM   H13S14918   1.207   5.465   7.362  2.0266  1.0514  3.2333
  137OSM   H13T14919   1.338   5.344   7.335 -0.7642 -2.1694 -0.8598
  137OSM   C14S14920   1.217   5.335   7.524  0.0306  0.8550  0.1886
  137OSM   H14S14921   1.121   5.374   7.563  0.1090  1.7510 -0.4891
  137OSM   H14T14922   1.297   5.380   7.586 -0.0419 -1.1250  1.8253
  137OSM   C15S14923   1.208   5.184   7.559 -0.3461  0.1080 -0.0502
  137OSM   H15S14924   1.302   5.140   7.520  0.1191  0.5796  0.5245
  137OSM   H15T14925   1.125   5.131   7.507 -2.0126  1.9977  0.5826
  137OSM   C16S14926   1.187   5.165   7.709 -0.0015  0.2139  0.1700
  137OSM   H16S14927   1.078   5.178   7.727 -1.1028 -1.4781 -4.0081
  137OSM   H16T14928   1.243   5.231   7.779  0.4067 -0.8844  0.9079
  137OSM   C17S14929   1.233   5.016   7.739 -1.1595  0.3542 -0.7007
  137OSM   H17S14930   1.343   5.000   7.740 -1.1031  0.7309  0.2721
  137OSM   H17T14931   1.186   4.950   7.664 -2.3853 -1.8561  1.8593
  137OSM   C18S14932   1.186   4.979   7.877 -0.0650  0.2918  0.2532
  137OSM   H18S14933   1.076   4.997   7.871 -0.3982 -0.3438  3.0529
  137OSM   H18T14934   1.242   5.039   7.953  0.5022 -1.0145  0.8954
  137OSM   H18U14935   1.197   4.872   7.904  0.7561  0.9463  2.8750
  137OSM    C1F14936   1.503   5.223   6.407  0.2934  0.2453 -0.2086
  137OSM     OF14937   1.585   5.309   6.384 -0.3998 -0.5440  0.2101
  137OSM    C2F14938   1.540   5.090   6.461  0.0557  0.1364 -0.2940
  137OSM    H2F14939   1.624   5.043   6.406  0.5067  2.4554 -1.6904
  137OSM    H2G14940   1.454   5.020   6.466 -0.8125  1.0225 -1.9366
  137OSM    C3F14941   1.594   5.099   6.608  0.4045 -0.0339 -0.6223
  137OSM    H3F14942   1.695   5.145   6.600  0.1480  0.3617 -1.9825
  137OSM    H3G14943   1.597   4.992   6.638 -1.9446  0.0725  0.1722
  137OSM    C4F14944   1.498   5.180   6.704  0.0238 -0.0016 -0.7046
  137OSM    H4F14945   1.393   5.155   6.679 -0.5963  1.3464  0.3671
  137OSM    H4G14946   1.510   5.287   6.675 -0.6535  0.1836 -0.3167
  137OSM    C5F14947   1.537   5.164   6.858 -0.3579 -0.4343 -0.3882
  137OSM    H5F14948   1.520   5.055   6.872  2.1128 -0.7033  1.1733
  137OSM    H5G14949   1.454   5.213   6.913 -1.9739 -0.1766 -2.9007
  137OSM    C6F14950   1.685   5.187   6.901  0.0961  0.1894 -0.2848
  137OSM    H6F14951   1.721   5.264   6.831 -3.3058 -0.1889 -2.7272
  137OSM    H6G14952   1.731   5.091   6.871 -0.1398  1.1378 -4.1619
  137OSM    C7F14953   1.699   5.217   7.051 -0.0598 -0.0663  0.2038
  137OSM    H7F14954   1.651   5.308   7.094  0.8374  0.7461 -0.4593
  137OSM    H7G14955   1.808   5.224   7.067 -0.2124  0.1717  1.2324
  137OSM    C8F14956   1.671   5.085   7.138  0.0775 -0.4298 -0.5700
  137OSM    H8F14957   1.731   5.104   7.230 -0.2212  0.0041 -0.4604
  137OSM    H8G14958   1.718   4.997   7.090  0.9547 -1.9998  2.8682
  137OSM    C9F14959   1.534   5.051   7.182 -0.1002  0.1938 -0.0566
  137OSM    H9F14960   1.466   5.009   7.106  0.6344 -4.1875  1.3974
  137OSM   C10F14961   1.493   5.056   7.310 -0.1532 -0.7393 -1.0120
  137OSM   H10F14962   1.391   5.029   7.342 -0.1394  0.9036  0.5761
  137OSM   C11F14963   1.577   5.098   7.426  0.9691 -0.0219  0.4597
  137OSM   H11F14964   1.680   5.060   7.417 -0.0584 -2.5951 -1.4555
  137OSM   H11G14965   1.535   5.048   7.516 -0.9834  0.6486 -0.0139
  137OSM   C12F14966   1.578   5.257   7.461  0.1272  0.1897  0.1680
  137OSM   H12F14967   1.475   5.284   7.495  0.7528 -0.7881  3.1223
  137OSM   H12G14968   1.603   5.315   7.369  2.2063  1.2832  1.3389
  137OSM   C13F14969   1.669   5.307   7.580  0.1869  0.1618 -0.4697
  137OSM   H13F14970   1.697   5.412   7.558  1.7608  0.0122  0.6594
  137OSM   H13G14971   1.763   5.249   7.587  0.6482  0.9315 -0.1949
  137OSM   C14F14972   1.601   5.305   7.719  0.6911 -0.2168 -0.0039
  137OSM   H14F14973   1.544   5.211   7.733 -2.3498  0.8936 -3.3248
  137OSM   H14G14974   1.527   5.387   7.733  2.3110  1.0854  1.2138
  137OSM   C15F14975   1.698   5.339   7.826  0.1274  0.1751 -0.1020
  137OSM   H15F14976   1.734   5.444   7.812 -0.7629  0.6115  0.7961
  137OSM   H15G14977   1.784   5.269   7.834  0.3928  0.4765 -0.2573
  137OSM   C16F14978   1.624   5.338   7.961 -0.1479 -0.0957  0.0648
  137OSM   H16F14979   1.561   5.248   7.977  0.3518 -0.8211 -1.7366
  137OSM   H16G14980   1.556   5.426   7.960 -2.3195 -1.5883 -3.3804
  137OSM   C17F14981   1.726   5.353   8.076  0.2741  0.0612  0.1405
  137OSM   H17F14982   1.766   5.455   8.058 -1.7405  1.0765  1.1083
  137OSM   H17G14983   1.805   5.278   8.053 -1.9469 -1.8452 -1.7573
  137OSM   C18F14984   1.668   5.344   8.216 -0.6023  0.2353 -0.1988
  137OSM   H18F14985   1.745   5.369   8.293  0.9391 -0.3071 -1.4978
  137OSM   H18G14986   1.634   5.240   8.237  1.1079 -0.4719 -0.6878
  137OSM   H18H14987   1.595   5.424   8.242 -0.1139  0.6977 -0.2248
  138OSM      N14988   2.996   1.586   5.203 -0.1448 -0.0383 -0.0895
  138OSM    C1514989   2.976   1.482   5.099  0.5388  0.3303  0.2452
  138OSM   H15A14990   3.075   1.451   5.069  0.2149  0.7190 -1.2925
  138OSM   H15B14991   2.918   1.519   5.016  2.6269  2.3184 -0.4437
  138OSM   H15C14992   2.926   1.400   5.148 -0.4623  0.9468  0.2922
  138OSM    C1414993   3.099   1.690   5.169  0.2081  0.1992  0.4917
  138OSM   H14A14994   3.200   1.653   5.180  1.2696  2.7233 -0.0612
  138OSM   H14B14995   3.097   1.774   5.237 -1.3738 -0.9299  1.9189
  138OSM   H14C14996   3.089   1.724   5.067  0.6554 -0.3218  0.2685
  138OSM    C1314997   2.858   1.655   5.219 -0.1718  0.0974  0.7297
  138OSM   H13A14998   2.774   1.588   5.203 -0.0671  0.4750 -1.9545
  138OSM   H13B14999   2.856   1.751   5.169  0.8034 -0.5127 -0.5159
  138OSM   H13C15000   2.858   1.681   5.324  2.4584 -1.4603  1.1764
  138OSM    C1215001   3.033   1.516   5.336 -0.0175  0.6313 -0.0520
  138OSM   H12A15002   3.128   1.464   5.331 -0.5316 -0.2826 -0.3200
  138OSM   H12B15003   2.957   1.445   5.365  1.3384 -1.7137 -1.8265
  138OSM    C1115004   3.053   1.610   5.464  0.5536  0.4959 -0.1894
  138OSM   H11A15005   3.127   1.689   5.440  0.6280  0.0946 -1.3474
  138OSM   H11B15006   3.092   1.555   5.552  1.4534 -0.1166 -0.9475
  138OSM      P15007   2.899   1.733   5.644 -0.6178  0.0485 -0.0314
  138OSM    O1315008   3.019   1.790   5.715 -0.1955 -0.4641 -0.8230
  138OSM    O1415009   2.789   1.840   5.633  0.5888 -0.3932  0.0882
  138OSM    O1115010   2.840   1.616   5.725  0.4084 -0.3319  0.2415
  138OSM    O1215011   2.931   1.676   5.496  0.4455 -0.3260 -0.0230
  138OSM    C1S15012   2.927   1.517   5.785 -0.1128  0.3035  0.0996
  138OSM    H1S15013   3.028   1.560   5.803  0.1436 -0.0566 -0.4513
  138OSM    H1T15014   2.927   1.427   5.720 -0.6922 -1.1036  1.9671
  138OSM     NF15015   2.963   1.367   5.984  0.2045 -0.3777  0.1882
  138OSM    HNF15016   2.915   1.284   6.012 -1.0887 -0.2983 -1.5845
  138OSM    C2S15017   2.866   1.461   5.922  0.3490  0.2653  1.5238
  138OSM    H2S15018   2.857   1.545   5.994 -1.4998 -0.5691  2.3224
  138OSM    C3S15019   2.726   1.401   5.900 -0.0041 -0.0471 -0.6253
  138OSM    H3S15020   2.733   1.319   5.826  2.9475  1.0732 -1.7531
  138OSM     O315021   2.631   1.495   5.852 -0.4257  0.4245  0.0208
  138OSM    HO315022   2.690   1.556   5.808 -2.1206  1.7114 -0.5824
  138OSM    C4S15023   2.669   1.332   6.021  0.1380  0.3303 -0.9627
  138OSM    H4S15024   2.697   1.226   6.032 -0.1935  0.1621 -1.6440
  138OSM    C5S15025   2.607   1.398   6.116 -0.0038 -0.0914 -0.0979
  138OSM    H5S15026   2.607   1.507   6.110  1.5659  0.1412  2.6191
  138OSM    C6S15027   2.546   1.351   6.241 -0.5295  0.5371 -0.2327
  138OSM    H6S15028   2.546   1.240   6.246 -2.1207  0.4554 -1.2789
  138OSM    H6T15029   2.439   1.381   6.247 -0.8745 -0.6443 -0.3553
  138OSM    C7S15030   2.623   1.388   6.364 -0.1082  0.5746 -0.2296
  138OSM    H7S15031   2.558   1.364   6.450  1.5084 -0.3794  0.7872
  138OSM    H7T15032   2.646   1.495   6.383 -0.4685  0.8195 -1.1130
  138OSM    C8S15033   2.756   1.298   6.374 -0.3887 -0.2844  0.3477
  138OSM    H8S15034   2.847   1.355   6.345  0.7845 -2.2514  0.0309
  138OSM    H8T15035   2.738   1.218   6.299  0.1458 -1.3375  1.3339
  138OSM    C9S15036   2.768   1.241   6.515 -0.3753 -0.6833 -0.6513
  138OSM    H9S15037   2.851   1.167   6.517  0.3713  0.1450  0.4048
  138OSM    H9T15038   2.681   1.184   6.553 -0.7864  0.7963  0.7395
  138OSM   C10S15039   2.806   1.353   6.627  0.2736  0.2993  0.1450
  138OSM   H10S15040   2.717   1.416   6.647  0.7419  0.9571  0.2256
  138OSM   H10T15041   2.880   1.423   6.582 -0.7871  1.7966  0.6561
  138OSM   C11S15042   2.851   1.280   6.757 -0.5001 -0.4230  0.3183
  138OSM   H11S15043   2.905   1.355   6.819 -3.1095  0.4910  1.5938
  138OSM   H11T15044   2.915   1.191   6.734 -1.0188 -0.6011 -0.4914
  138OSM   C12S15045   2.732   1.231   6.840 -0.0579  0.7813 -0.6157
  138OSM   H12S15046   2.669   1.156   6.787 -1.7139 -0.1589  2.4009
  138OSM   H12T15047   2.667   1.321   6.847  0.7756  1.5255 -2.0629
  138OSM   C13S15048   2.777   1.161   6.971  0.9093  0.3555  0.3985
  138OSM   H13S15049   2.828   1.063   6.959  0.6760  0.3150 -0.3121
  138OSM   H13T15050   2.692   1.154   7.043 -0.0200  1.7935 -0.5127
  138OSM   C14S15051   2.878   1.246   7.043  0.4875  0.2520  0.2079
  138OSM   H14S15052   2.838   1.349   7.037 -0.0822  0.0873  1.0251
  138OSM   H14T15053   2.981   1.247   7.002 -0.0771 -0.4547 -1.3205
  138OSM   C15S15054   2.906   1.212   7.192  0.0681 -0.0755 -0.2312
  138OSM   H15S15055   2.936   1.106   7.197  0.0596 -0.1067 -0.7629
  138OSM   H15T15056   2.809   1.221   7.245 -0.3873  0.1216 -1.0808
  138OSM   C16S15057   3.002   1.308   7.271  0.2253  0.4801  0.1166
  138OSM   H16S15058   2.969   1.413   7.254 -3.1918  0.2055  3.5975
  138OSM   H16T15059   3.105   1.292   7.231  1.3294  3.9988  1.1390
  138OSM   C17S15060   2.997   1.282   7.419  0.2504  0.2452 -0.5385
  138OSM   H17S15061   3.084   1.340   7.458  0.6900  0.3680 -1.6693
  138OSM   H17T15062   3.006   1.174   7.445  1.3682  0.6370  0.8901
  138OSM   C18S15063   2.877   1.349   7.483 -0.0637 -0.6921 -0.4161
  138OSM   H18S15064   2.775   1.306   7.476 -0.3008 -0.3231  0.5695
  138OSM   H18T15065   2.862   1.451   7.444  0.2856 -0.9310 -1.1836
  138OSM   H18U15066   2.888   1.354   7.594 -0.8645 -3.0987 -0.1710
  138OSM    C1F15067   3.094   1.385   6.012 -0.1959  0.3661 -0.2869
  138OSM     OF15068   3.154   1.485   5.992  0.6238  0.0663 -0.1863
  138OSM    C2F15069   3.153   1.274   6.106  0.7169 -0.2490 -0.1177
  138OSM    H2F15070   3.213   1.211   6.037 -1.0489 -1.0611 -0.9818
  138OSM    H2G15071   3.074   1.202   6.137 -0.3217  1.6707  2.0400
  138OSM    C3F15072   3.240   1.324   6.226  0.6394 -0.4290  0.4574
  138OSM    H3F15073   3.312   1.404   6.198  0.6765  0.3544  2.6245
  138OSM    H3G15074   3.305   1.244   6.266 -0.1685 -0.2990  2.1012
  138OSM    C4F15075   3.151   1.379   6.342  0.2931  0.5552  0.3276
  138OSM    H4F15076   3.078   1.297   6.360  0.9576 -0.3331 -0.7896
  138OSM    H4G15077   3.100   1.473   6.313 -1.0399  0.1428  1.2686
  138OSM    C5F15078   3.235   1.404   6.462  0.2474 -0.7420 -0.4032
  138OSM    H5F15079   3.306   1.484   6.430 -1.0146  1.4332  1.7964
  138OSM    H5G15080   3.295   1.325   6.511 -0.8729 -1.4653 -0.1768
  138OSM    C6F15081   3.164   1.467   6.580  0.3587 -0.3096 -0.4315
  138OSM    H6F15082   3.101   1.392   6.631 -1.1460 -0.8133 -2.9082
  138OSM    H6G15083   3.095   1.543   6.537  0.5530  2.0475  2.9661
  138OSM    C7F15084   3.252   1.553   6.667 -0.5360 -0.0322 -0.5366
  138OSM    H7F15085   3.324   1.607   6.601  0.4999 -1.8558 -0.9744
  138OSM    H7G15086   3.316   1.484   6.725  2.3295  2.6313 -0.2400
  138OSM    C8F15087   3.177   1.651   6.751 -1.1103 -0.8538 -0.2678
  138OSM    H8F15088   3.112   1.715   6.689 -1.9365  1.0901  2.4034
  138OSM    H8G15089   3.246   1.717   6.809 -3.3884  1.4340  0.0023
  138OSM    C9F15090   3.105   1.575   6.859  0.0742 -0.1023 -0.1660
  138OSM    H9F15091   3.002   1.550   6.829  0.5704  0.2004 -2.2348
  138OSM   C10F15092   3.160   1.549   6.979  0.2458 -0.3833 -0.3150
  138OSM   H10F15093   3.111   1.470   7.037  0.1381 -1.3798 -1.7175
  138OSM   C11F15094   3.294   1.595   7.037  0.2148 -0.1853  1.0229
  138OSM   H11F15095   3.301   1.702   7.005 -0.9262 -1.1474 -3.0740
  138OSM   H11G15096   3.380   1.549   6.984  1.3395  0.5263  2.1828
  138OSM   C12F15097   3.316   1.579   7.187 -0.2440 -0.3108  1.0771
  138OSM   H12F15098   3.318   1.469   7.205 -0.2568 -0.5267 -0.1328
  138OSM   H12G15099   3.217   1.607   7.229  0.4237  0.1554  2.3899
  138OSM   C13F15100   3.423   1.665   7.234 -0.4954  0.6815  0.0425
  138OSM   H13F15101   3.428   1.765   7.187  1.3647  0.2792 -0.7106
  138OSM   H13G15102   3.522   1.618   7.217 -1.8350 -1.7003 -1.9196
  138OSM   C14F15103   3.407   1.679   7.388 -0.2535  0.1780 -0.8738
  138OSM   H14F15104   3.429   1.579   7.433 -1.0095 -0.3824 -1.7137
  138OSM   H14G15105   3.301   1.703   7.410  0.6635  2.3571  1.7152
  138OSM   C15F15106   3.489   1.794   7.453 -0.0257 -1.0599 -0.0376
  138OSM   H15F15107   3.472   1.888   7.396  2.5260 -1.1215 -1.0256
  138OSM   H15G15108   3.596   1.772   7.438  0.6614  1.9139 -0.0437
  138OSM   C16F15109   3.467   1.807   7.599  0.2204 -0.1660 -0.9343
  138OSM   H16F15110   3.474   1.708   7.649 -0.9261  0.3721  0.3423
  138OSM   H16G15111   3.361   1.831   7.618 -0.2550 -1.7231 -1.4545
  138OSM   C17F15112   3.567   1.904   7.663  0.7987 -0.1234 -0.3669
  138OSM   H17F15113   3.588   1.988   7.593  0.6140 -0.1047 -0.3998
  138OSM   H17G15114   3.664   1.852   7.679 -0.1768 -1.6183  1.0712
  138OSM   C18F15115   3.515   1.959   7.799  0.4132  0.2843 -0.0701
  138OSM   H18F15116   3.602   2.006   7.852  0.3405 -2.0580  2.3173
  138OSM   H18G15117   3.474   1.876   7.860  1.3423  0.5211  0.9126
  138OSM   H18H15118   3.434   2.034   7.786  0.4551  0.1566 -1.1556
  139OSM      N15119   1.762   6.779   5.262  0.5413 -0.4586  0.9075
  139OSM    C1515120   1.648   6.742   5.173 -0.0442 -0.1200  0.0272
  139OSM   H15A15121   1.558   6.728   5.232 -2.2927  1.3171 -2.8297
  139OSM   H15B15122   1.665   6.650   5.121 -1.5960  0.0104 -0.7896
  139OSM   H15C15123   1.625   6.812   5.094 -1.0430 -0.1413  0.2756
  139OSM    C1415124   1.885   6.794   5.183  0.3839  0.0562  0.2222
  139OSM   H14A15125   1.894   6.706   5.121 -2.0915 -0.5117  0.5877
  139OSM   H14B15126   1.972   6.815   5.243  1.3077  0.4724 -1.2083
  139OSM   H14C15127   1.862   6.869   5.108 -0.4476 -0.1476  0.2697
  139OSM    C1315128   1.723   6.911   5.317  0.3699  0.2884 -0.5230
  139OSM   H13A15129   1.777   6.924   5.410  2.1532  0.6361 -1.5557
  139OSM   H13B15130   1.622   6.920   5.354  0.8847  1.0739  0.7450
  139OSM   H13C15131   1.752   6.998   5.260  2.4129  0.2847  0.4036
  139OSM    C1215132   1.777   6.674   5.358  0.0804  0.4101 -1.0424
  139OSM   H12A15133   1.801   6.576   5.318  1.6895  0.2179  0.3151
  139OSM   H12B15134   1.678   6.652   5.395  0.2829 -0.8084 -1.1686
  139OSM    C1115135   1.869   6.700   5.486  0.3762  0.1352  0.1415
  139OSM   H11A15136   1.972   6.688   5.447  0.3327  0.4462 -0.0726
  139OSM   H11B15137   1.850   6.612   5.551 -0.1397 -0.1212 -0.3444
  139OSM      P15138   1.738   6.846   5.654  0.4004  0.0477  0.1394
  139OSM    O1315139   1.735   6.995   5.671 -0.6556  0.0602  0.9205
  139OSM    O1415140   1.612   6.783   5.601 -0.8040 -0.5723 -0.2997
  139OSM    O1115141   1.796   6.776   5.779  0.4748  0.2056 -0.6922
  139OSM    O1215142   1.858   6.824   5.557  0.1383  0.3247  0.4164
  139OSM    C1S15143   1.923   6.814   5.845  0.3428  0.3747  0.5163
  139OSM    H1S15144   1.969   6.903   5.799  2.2525  0.3980  2.3200
  139OSM    H1T15145   1.993   6.730   5.824  0.0461  0.6728 -1.9238
  139OSM     NF15146   2.047   6.849   6.055 -0.0640  0.5155 -0.3396
  139OSM    HNF15147   2.063   6.798   6.139  0.3631  0.1211 -0.6569
  139OSM    C2S15148   1.914   6.819   6.000  1.0322  0.0473  0.6334
  139OSM    H2S15149   1.853   6.911   6.010 -0.4052 -0.4822 -2.2261
  139OSM    C3S15150   1.834   6.698   6.058  0.9150 -0.2511 -0.0421
  139OSM    H3S15151   1.896   6.607   6.044  1.1311  0.2452 -3.1091
  139OSM     O315152   1.712   6.653   5.995 -0.8253  0.1369 -0.4909
  139OSM    HO315153   1.705   6.697   5.910 -0.8444  2.1263  0.4703
  139OSM    C4S15154   1.807   6.716   6.208 -0.1319  0.6023 -0.4456
  139OSM    H4S15155   1.889   6.668   6.264 -0.6808 -0.2995 -0.4027
  139OSM    C5S15156   1.699   6.766   6.272 -0.3032 -0.1571 -0.4097
  139OSM    H5S15157   1.617   6.797   6.205  1.1847  1.4603 -1.5619
  139OSM    C6S15158   1.683   6.769   6.425  0.0102 -0.7149  0.3706
  139OSM    H6S15159   1.593   6.716   6.463 -1.9712  0.7732 -1.9767
  139OSM    H6T15160   1.654   6.873   6.451 -1.4349 -0.7745 -0.8614
  139OSM    C7S15161   1.793   6.723   6.520  0.6932 -0.0136 -0.0014
  139OSM    H7S15162   1.884   6.786   6.510  0.6831  0.1604  0.8847
  139OSM    H7T15163   1.823   6.620   6.492  0.2144  0.4898 -2.6280
  139OSM    C8S15164   1.741   6.720   6.669 -0.5587 -0.8956  0.0907
  139OSM    H8S15165   1.659   6.646   6.676 -0.4311 -1.1593 -0.9991
  139OSM    H8T15166   1.704   6.823   6.690 -0.5573 -0.1968 -2.8803
  139OSM    C9S15167   1.853   6.691   6.771 -0.1977 -0.1461 -0.9311
  139OSM    H9S15168   1.960   6.705   6.743 -0.4413 -1.5970 -2.7707
  139OSM    H9T15169   1.866   6.581   6.772 -2.3385 -0.5020 -2.9925
  139OSM   C10S15170   1.827   6.744   6.911 -0.9844 -0.0616 -0.2927
  139OSM   H10S15171   1.717   6.743   6.925 -0.7124  0.1554  2.3256
  139OSM   H10T15172   1.873   6.844   6.909  0.9708 -0.8939  0.5886
  139OSM   C11S15173   1.899   6.662   7.015  0.1535 -0.1550 -0.1453
  139OSM   H11S15174   2.005   6.649   6.984  0.7784  0.6212  1.5250
  139OSM   H11T15175   1.860   6.559   7.023 -0.6515 -0.2601 -3.8507
  139OSM   C12S15176   1.892   6.719   7.159 -0.3548  0.0171  0.1506
  139OSM   H12S15177   1.796   6.723   7.214 -0.4134  2.6506  0.0035
  139OSM   H12T15178   1.924   6.825   7.151 -0.1478  0.2581  3.1777
  139OSM   C13S15179   1.999   6.655   7.244 -0.2312 -0.2340 -0.8766
  139OSM   H13S15180   2.101   6.679   7.207  0.7283 -4.0267 -1.1194
  139OSM   H13T15181   1.987   6.546   7.260 -2.3694  0.0277 -0.3855
  139OSM   C14S15182   1.989   6.717   7.380  0.2040 -0.2309  0.1996
  139OSM   H14S15183   1.882   6.727   7.408 -0.6044 -2.3030 -1.8098
  139OSM   H14T15184   2.029   6.820   7.385 -0.0189 -0.1999  1.7611
  139OSM   C15S15185   2.053   6.633   7.487 -0.3344  0.1227  0.2564
  139OSM   H15S15186   2.151   6.593   7.453 -1.2844 -1.2381 -0.9518
  139OSM   H15T15187   1.995   6.541   7.508 -1.6356  0.8029 -0.2414
  139OSM   C16S15188   2.060   6.719   7.609 -0.2219 -0.1343 -0.1114
  139OSM   H16S15189   1.958   6.728   7.652 -0.8514  2.0972 -1.8705
  139OSM   H16T15190   2.094   6.818   7.572 -3.2579  0.4434 -1.6635
  139OSM   C17S15191   2.162   6.661   7.714 -0.7195  0.7811 -0.2620
  139OSM   H17S15192   2.204   6.566   7.674 -1.3406 -1.1224  3.2184
  139OSM   H17T15193   2.102   6.617   7.796 -1.7266 -1.0830 -1.9113
  139OSM   C18S15194   2.278   6.752   7.750  0.3259  0.1501 -0.0493
  139OSM   H18S15195   2.353   6.695   7.810  0.4074 -0.6455 -0.8827
  139OSM   H18T15196   2.241   6.834   7.815 -0.4944  1.8701 -2.5617
  139OSM   H18U15197   2.340   6.784   7.664 -0.1547 -1.1018 -0.8869
  139OSM    C1F15198   2.128   6.959   6.030 -0.5848  1.1388  0.5868
  139OSM     OF15199   2.104   7.031   5.938  0.3430 -0.5085 -0.4563
  139OSM    C2F15200   2.254   6.972   6.119  0.0262 -0.3692  0.6672
  139OSM    H2F15201   2.313   6.878   6.114 -0.3897 -0.5879 -0.3067
  139OSM    H2G15202   2.210   6.994   6.220  0.0098 -1.9183  1.0162
  139OSM    C3F15203   2.336   7.098   6.077  0.1349 -0.0700  0.2274
  139OSM    H3F15204   2.267   7.185   6.075 -0.3275 -0.3791  1.7760
  139OSM    H3G15205   2.377   7.096   5.973 -0.6743  2.2315 -0.1848
  139OSM    C4F15206   2.442   7.130   6.183 -0.2216 -0.0023 -0.4243
  139OSM    H4F15207   2.498   7.223   6.159 -0.2766  0.0474 -0.3587
  139OSM    H4G15208   2.513   7.044   6.185 -0.0096  0.1278 -1.5572
  139OSM    C5F15209   2.396   7.152   6.327  0.0755 -0.4562 -0.2709
  139OSM    H5F15210   2.347   7.065   6.376  0.2708  0.8953  2.5025
  139OSM    H5G15211   2.327   7.238   6.334  0.7690  0.0107  1.1577
  139OSM    C6F15212   2.516   7.177   6.415 -0.4692  0.1250 -0.5335
  139OSM    H6F15213   2.483   7.232   6.506  0.7302 -0.8583  0.5317
  139OSM    H6G15214   2.591   7.249   6.375  0.7776  1.3314  3.4719
  139OSM    C7F15215   2.588   7.054   6.467  0.2010  0.1159  0.8486
  139OSM    H7F15216   2.640   7.008   6.380 -0.6518  0.3830  0.1723
  139OSM    H7G15217   2.510   6.983   6.501 -0.5425  0.8162  0.6541
  139OSM    C8F15218   2.692   7.074   6.583  0.7931  0.2910  0.0571
  139OSM    H8F15219   2.765   7.150   6.549  0.6150  0.6377  0.4396
  139OSM    H8G15220   2.742   6.976   6.599 -0.3816 -0.1815  1.0791
  139OSM    C9F15221   2.617   7.110   6.717  0.3174 -0.2164 -0.0135
  139OSM    H9F15222   2.528   7.046   6.725  0.9190 -0.8981  1.8246
  139OSM   C10F15223   2.639   7.189   6.816  0.3141 -0.0274 -0.5874
  139OSM   H10F15224   2.571   7.198   6.902  2.4332  0.8572  1.0872
  139OSM   C11F15225   2.765   7.278   6.825  0.7227  0.0055 -0.1716
  139OSM   H11F15226   2.731   7.384   6.826 -0.2897 -0.3026 -0.5745
  139OSM   H11G15227   2.828   7.258   6.736  0.5260 -1.0050 -0.0924
  139OSM   C12F15228   2.849   7.251   6.950 -0.3081 -0.6463 -0.0128
  139OSM   H12F15229   2.940   7.314   6.949  0.3299 -1.3316 -4.0199
  139OSM   H12G15230   2.887   7.147   6.945  1.0712 -0.1074 -2.1410
  139OSM   C13F15231   2.773   7.277   7.086 -0.9842 -0.3456 -1.2022
  139OSM   H13F15232   2.721   7.184   7.116  1.0391 -1.2408 -0.3056
  139OSM   H13G15233   2.697   7.358   7.079  0.2987  1.1469  0.9749
  139OSM   C14F15234   2.869   7.312   7.198  0.0107 -0.4615  0.4660
  139OSM   H14F15235   2.927   7.404   7.178  0.4166 -0.7805  0.1537
  139OSM   H14G15236   2.948   7.233   7.191  1.1122  0.7452 -2.4849
  139OSM   C15F15237   2.802   7.317   7.335 -0.0357  0.1796  0.3321
  139OSM   H15F15238   2.702   7.362   7.323  0.8633  2.2235  0.1479
  139OSM   H15G15239   2.870   7.379   7.397  2.2281 -1.6795 -0.1214
  139OSM   C16F15240   2.783   7.179   7.406 -0.1835  0.1091 -0.7801
  139OSM   H16F15241   2.877   7.122   7.423  1.1415  2.2550 -0.4615
  139OSM   H16G15242   2.727   7.107   7.343  0.3796 -0.9155 -0.1371
  139OSM   C17F15243   2.697   7.189   7.537  0.1086  0.1087  0.2938
  139OSM   H17F15244   2.657   7.086   7.554  2.6696 -1.0172 -0.0145
  139OSM   H17G15245   2.622   7.268   7.517 -0.6332 -0.8250 -0.7693
  139OSM   C18F15246   2.769   7.231   7.665  0.8570  0.2895 -0.0970
  139OSM   H18F15247   2.856   7.297   7.646  0.2951  0.6521 -1.4874
  139OSM   H18G15248   2.804   7.149   7.732 -2.9274 -0.2627  1.4542
  139OSM   H18H15249   2.696   7.289   7.726 -0.9034 -3.4318  1.6880
  140OSM      N15250   0.215   2.048   5.408  0.1400  0.7082  0.6920
  140OSM    C1515251   0.133   2.158   5.352 -0.1424 -0.4413  0.9558
  140OSM   H15A15252   0.173   2.258   5.357 -1.7590  0.2400  0.7297
  140OSM   H15B15253   0.032   2.151   5.390 -1.3463  1.0024 -1.7044
  140OSM   H15C15254   0.115   2.143   5.247 -0.4108 -0.6039  1.0255
  140OSM    C1415255   0.144   1.922   5.397  0.2097 -0.1736  0.3285
  140OSM   H14A15256   0.049   1.939   5.444  0.4280  1.4140  0.2747
  140OSM   H14B15257   0.189   1.833   5.437  0.3893  0.3644  1.3617
  140OSM   H14C15258   0.129   1.911   5.290 -0.1848  1.9386  0.1184
  140OSM    C1315259   0.342   2.044   5.343  0.6069  0.1176  0.3433
  140OSM   H13A15260   0.416   1.979   5.389 -3.9913 -2.9242  4.3914
  140OSM   H13B15261   0.378   2.145   5.338 -0.7805  0.6246  0.1668
  140OSM   H13C15262   0.333   2.013   5.240  0.9639 -0.7344  0.5582
  140OSM    C1215263   0.240   2.079   5.554  0.8019 -0.4874  0.3712
  140OSM   H12A15264   0.259   2.185   5.563 -0.2774 -0.4186  2.6448
  140OSM   H12B15265   0.340   2.044   5.578  0.6678 -2.3082 -1.4600
  140OSM    C1115266   0.134   2.032   5.658  0.2242 -0.2727  0.1843
  140OSM   H11A15267   0.165   2.074   5.756  0.0837  1.4531 -0.4611
  140OSM   H11B15268   0.131   1.921   5.667 -1.5129 -0.3282 -0.6585
  140OSM      P15269  -0.031   2.228   5.655 -0.1016 -0.0475 -0.5386
  140OSM    O1315270   0.088   2.318   5.688 -0.5959  0.2374  0.0374
  140OSM    O1415271  -0.118   2.274   5.554  0.0506 -0.7917  0.4984
  140OSM    O1115272  -0.110   2.224   5.793  0.6073  0.4985 -0.6182
  140OSM    O1215273  -0.002   2.075   5.630  0.0074  0.3607 -0.5398
  140OSM    C1S15274  -0.065   2.128   5.895  0.6577  0.2080 -0.7366
  140OSM    H1S15275   0.044   2.141   5.913  0.3582  1.9335  0.0835
  140OSM    H1T15276  -0.088   2.021   5.877  1.4174 -0.2716  0.9698
  140OSM     NF15277  -0.077   2.052   6.131  0.3604 -0.9255  1.1450
  140OSM    HNF15278  -0.107   1.959   6.114 -1.5003  0.0120 -1.2534
  140OSM    C2S15279  -0.143   2.138   6.034  0.0566 -0.0498  0.4851
  140OSM    H2S15280  -0.130   2.243   6.066  0.7363 -0.3171  1.1175
  140OSM    C3S15281  -0.299   2.109   6.004  0.6636  0.4770 -0.1774
  140OSM    H3S15282  -0.314   1.999   6.009  0.0928  0.5524 -0.2481
  140OSM     O315283  -0.346   2.157   5.886 -0.1763  0.2957  0.1894
  140OSM    HO315284  -0.265   2.186   5.843  0.0613 -0.5739  0.0187
  140OSM    C4S15285  -0.376   2.165   6.126  0.5756 -0.3605  0.4223
  140OSM    H4S15286  -0.342   2.265   6.156  2.3198 -1.2459  1.5688
  140OSM    C5S15287  -0.456   2.101   6.208  0.1341  1.0128 -0.4996
  140OSM    H5S15288  -0.483   1.996   6.188 -0.0137  0.9601 -0.0237
  140OSM    C6S15289  -0.516   2.146   6.332 -0.1163 -0.6558  0.1007
  140OSM    H6S15290  -0.620   2.109   6.330 -0.6091  0.6929 -0.7738
  140OSM    H6T15291  -0.528   2.256   6.348 -0.8716 -0.8372  0.8157
  140OSM    C7S15292  -0.439   2.098   6.456  0.2126  0.6658 -0.2236
  140OSM    H7S15293  -0.336   2.139   6.452 -0.7409  3.1961 -0.4084
  140OSM    H7T15294  -0.433   1.987   6.456 -0.4218  0.6027 -1.8995
  140OSM    C8S15295  -0.505   2.145   6.589  0.3993 -0.8127 -0.2397
  140OSM    H8S15296  -0.615   2.133   6.594  0.2870 -1.3095 -2.7965
  140OSM    H8T15297  -0.503   2.256   6.586  1.7095 -0.8440 -1.2981
  140OSM    C9S15298  -0.426   2.091   6.710  0.5796  0.1149 -0.7368
  140OSM    H9S15299  -0.318   2.096   6.687  0.7658 -0.6590 -0.0799
  140OSM    H9T15300  -0.469   1.990   6.729  2.2502 -0.6846 -1.0204
  140OSM   C10S15301  -0.452   2.171   6.837 -0.2326 -0.0352  0.6662
  140OSM   H10S15302  -0.560   2.166   6.862  0.2461 -0.1936  2.9004
  140OSM   H10T15303  -0.443   2.281   6.826  0.2026 -0.0419  0.9206
  140OSM   C11S15304  -0.365   2.114   6.953  0.3926 -0.2152  0.2295
  140OSM   H11S15305  -0.265   2.101   6.908 -0.1360 -0.2248 -0.9939
  140OSM   H11T15306  -0.402   2.014   6.986  1.3584 -0.7344 -0.2259
  140OSM   C12S15307  -0.384   2.194   7.084 -0.0080  0.4501  0.0219
  140OSM   H12S15308  -0.392   2.304   7.078 -2.1591  0.4580  1.8870
  140OSM   H12T15309  -0.294   2.167   7.144 -0.2551  2.5920  1.4545
  140OSM   C13S15310  -0.498   2.144   7.175 -0.0158  0.3224 -0.1958
  140OSM   H13S15311  -0.505   2.033   7.179  0.7682  0.2888  0.4530
  140OSM   H13T15312  -0.594   2.185   7.137  0.9473  3.5398  0.5497
  140OSM   C14S15313  -0.489   2.194   7.319 -0.0471  0.7860 -0.3014
  140OSM   H14S15314  -0.477   2.304   7.328 -0.6300  0.8146  0.1799
  140OSM   H14T15315  -0.397   2.167   7.374 -0.7701 -0.7052  0.2273
  140OSM   C15S15316  -0.611   2.149   7.398 -0.2599  0.3911  0.1597
  140OSM   H15S15317  -0.612   2.038   7.405  1.8982  0.3175  0.0326
  140OSM   H15T15318  -0.705   2.174   7.345  0.2838  2.6243  0.1164
  140OSM   C16S15319  -0.606   2.202   7.536 -0.1336 -1.4235  0.2180
  140OSM   H16S15320  -0.624   2.311   7.520  1.0572 -0.8832  2.2307
  140OSM   H16T15321  -0.503   2.193   7.576  0.5020 -0.3686 -1.0673
  140OSM   C17S15322  -0.707   2.148   7.635 -0.8824 -0.1291 -0.0753
  140OSM   H17S15323  -0.680   2.044   7.666 -2.0815  0.0346  1.6655
  140OSM   H17T15324  -0.803   2.150   7.580 -0.4394  0.2632 -0.8486
  140OSM   C18S15325  -0.727   2.218   7.776  0.4109 -0.0711 -0.7821
  140OSM   H18S15326  -0.774   2.150   7.850 -0.5064  1.8523  0.4841
  140OSM   H18T15327  -0.788   2.309   7.760 -1.6252 -0.9736  1.3050
  140OSM   H18U15328  -0.625   2.238   7.815  0.8580 -2.1872 -0.7684
  140OSM    C1F15329   0.026   2.092   6.208  0.2319 -0.9554 -0.0768
  140OSM     OF15330   0.059   2.211   6.215  0.5990  0.5340 -0.5793
  140OSM    C2F15331   0.104   1.982   6.278  0.3234 -0.5470 -0.0893
  140OSM    H2F15332   0.212   1.998   6.261 -0.0699  0.7690 -1.5557
  140OSM    H2G15333   0.073   1.884   6.236  0.0441 -1.1151  1.3584
  140OSM    C3F15334   0.086   1.984   6.430  0.3236  0.4966  0.4584
  140OSM    H3F15335   0.133   2.065   6.490  0.3371 -0.8208  2.3012
  140OSM    H3G15336   0.135   1.892   6.470  0.1569  0.2525  0.1036
  140OSM    C4F15337  -0.052   1.969   6.487 -0.0734 -0.2692 -0.4672
  140OSM    H4F15338  -0.109   1.897   6.424 -0.6981 -3.3878  3.2717
  140OSM    H4G15339  -0.105   2.065   6.471  0.3196 -0.4602 -3.5864
  140OSM    C5F15340  -0.055   1.914   6.633  0.8939  0.8575 -0.0398
  140OSM    H5F15341  -0.162   1.921   6.661  0.8675  0.1690  0.0623
  140OSM    H5G15342  -0.016   1.989   6.704  2.1322  0.8533 -0.6890
  140OSM    C6F15343  -0.011   1.763   6.658  0.2753 -0.0847 -0.4817
  140OSM    H6F15344   0.099   1.754   6.654  0.4871  2.1869 -1.7164
  140OSM    H6G15345  -0.061   1.699   6.583  0.6061  0.3921 -1.1232
  140OSM    C7F15346  -0.041   1.725   6.802 -0.1300  0.7596 -0.2942
  140OSM    H7F15347  -0.147   1.736   6.831 -0.7147  0.1726 -2.0814
  140OSM    H7G15348   0.027   1.783   6.868  0.4908 -1.8218  1.4893
  140OSM    C8F15349   0.011   1.579   6.837  0.8385  0.0282 -0.1818
  140OSM    H8F15350  -0.010   1.571   6.945 -1.0409 -1.2755 -0.6018
  140OSM    H8G15351   0.121   1.569   6.818  1.1469 -0.3541  1.5911
  140OSM    C9F15352  -0.064   1.470   6.754 -0.1552 -0.4871 -0.0949
  140OSM    H9F15353  -0.042   1.486   6.648  0.2361  2.6165  0.3620
  140OSM   C10F15354  -0.131   1.364   6.797  0.1546 -0.4490  0.1739
  140OSM   H10F15355  -0.185   1.316   6.714 -0.0275  2.1801 -1.3134
  140OSM   C11F15356  -0.144   1.300   6.933 -0.3433 -0.2645 -0.0626
  140OSM   H11F15357  -0.042   1.303   6.976 -0.2475  0.8061 -0.3308
  140OSM   H11G15358  -0.179   1.194   6.927  0.3125 -0.5738  1.2931
  140OSM   C12F15359  -0.234   1.393   7.020 -0.2476 -0.5391  0.3397
  140OSM   H12F15360  -0.343   1.378   7.005  0.0293 -0.3552 -2.2176
  140OSM   H12G15361  -0.213   1.500   7.000 -0.3436 -0.5602  0.1306
  140OSM   C13F15362  -0.211   1.366   7.165 -0.3675  0.0732 -0.2073
  140OSM   H13F15363  -0.281   1.414   7.237  1.9275  0.8299  1.6254
  140OSM   H13G15364  -0.112   1.403   7.197  0.0868 -1.0935 -0.1892
  140OSM   C14F15365  -0.213   1.215   7.189  0.7676 -0.1764  0.2764
  140OSM   H14F15366  -0.122   1.164   7.152 -1.1510 -2.5605 -1.4579
  140OSM   H14G15367  -0.294   1.173   7.126 -0.8737 -1.2295  2.8861
  140OSM   C15F15368  -0.250   1.188   7.325  0.3711 -0.1280  0.1551
  140OSM   H15F15369  -0.307   1.092   7.319  2.2666 -1.2264 -1.0491
  140OSM   H15G15370  -0.328   1.250   7.376 -0.6801  0.0759 -1.6223
  140OSM   C16F15371  -0.134   1.168   7.408 -0.6807 -0.4043 -0.4769
  140OSM   H16F15372  -0.089   1.266   7.435 -1.0935 -0.6380  1.2101
  140OSM   H16G15373  -0.052   1.121   7.349 -1.2635 -0.0025 -1.6361
  140OSM   C17F15374  -0.156   1.074   7.531 -0.2567 -0.2116 -0.0854
  140OSM   H17F15375  -0.060   1.022   7.552  0.1876  0.7088  0.2076
  140OSM   H17G15376  -0.241   1.006   7.507 -0.1455  0.1089 -1.4680
  140OSM   C18F15377  -0.201   1.146   7.659  0.3731 -0.7064 -0.4728
  140OSM   H18F15378  -0.230   1.069   7.733 -1.2157 -1.3230 -1.6743
  140OSM   H18G15379  -0.287   1.216   7.654 -0.0393 -0.7247  3.4755
  140OSM   H18H15380  -0.116   1.202   7.703  1.3262 -3.2334  1.0944
  141OSM      N15381   0.069   6.124   5.838 -0.0207  0.2053 -0.1995
  141OSM    C1515382   0.207   6.183   5.823 -0.3472  0.0958  0.6245
  141OSM   H15A15383   0.217   6.283   5.863  0.8544  1.4303 -2.6250
  141OSM   H15B15384   0.230   6.182   5.717  0.7872 -0.2243  0.8553
  141OSM   H15C15385   0.277   6.120   5.876 -0.3422 -1.6040 -1.2844
  141OSM    C1415386   0.014   6.161   5.971  0.0751  0.1903  0.0250
  141OSM   H14A15387  -0.008   6.265   5.987  0.5603  0.3854 -0.5419
  141OSM   H14B15388   0.073   6.130   6.056  1.0494 -0.6029 -0.9105
  141OSM   H14C15389  -0.080   6.112   5.992  0.0882  0.2611  0.2481
  141OSM    C1315390  -0.031   6.173   5.741 -0.0515 -0.0398  0.1500
  141OSM   H13A15391  -0.123   6.118   5.750 -0.8887  1.3692  0.4983
  141OSM   H13B15392   0.013   6.154   5.644 -1.4352  0.8860 -0.6847
  141OSM   H13C15393  -0.053   6.278   5.750 -0.3640  0.3206 -3.4079
  141OSM    C1215394   0.078   5.972   5.829 -0.4068 -0.6328 -0.3457
  141OSM   H12A15395   0.095   5.934   5.729 -0.6568 -0.8458 -0.3076
  141OSM   H12B15396  -0.021   5.945   5.860 -0.5121 -1.5911 -1.4551
  141OSM    C1115397   0.189   5.896   5.916  1.2417 -0.7293  0.0234
  141OSM   H11A15398   0.171   5.786   5.915 -0.6361 -0.4481 -1.1928
  141OSM   H11B15399   0.184   5.925   6.023 -0.5853 -1.9704  0.3198
  141OSM      P15400   0.411   5.819   5.796 -0.0480 -0.0321  0.3430
  141OSM    O1315401   0.352   5.778   5.666 -0.1006  0.1134  0.2774
  141OSM    O1415402   0.554   5.866   5.794 -0.1876  0.5863 -0.1028
  141OSM    O1115403   0.404   5.690   5.893 -0.3774 -0.6192  0.1198
  141OSM    O1215404   0.316   5.924   5.867  0.6468  0.4134 -0.4751
  141OSM    C1S15405   0.426   5.693   6.034  0.5327  0.4946 -0.1934
  141OSM    H1S15406   0.385   5.785   6.082 -3.3799 -1.5490  0.9134
  141OSM    H1T15407   0.534   5.680   6.053  0.0248 -1.1654  2.0776
  141OSM     NF15408   0.390   5.567   6.250  1.0736 -0.7460 -0.2445
  141OSM    HNF15409   0.437   5.486   6.281  0.4909 -0.9789  0.0301
  141OSM    C2S15410   0.359   5.572   6.111 -0.7016 -0.1384  0.7044
  141OSM    H2S15411   0.248   5.582   6.105 -0.5971  0.5831 -0.4846
  141OSM    C3S15412   0.401   5.435   6.034 -0.0226  0.3697  0.0852
  141OSM    H3S15413   0.511   5.423   6.048 -0.1999 -1.0873  0.4786
  141OSM     O315414   0.367   5.433   5.893  0.6518 -0.2707 -0.2339
  141OSM    HO315415   0.364   5.527   5.876  1.1644 -0.5270 -1.9619
  141OSM    C4S15416   0.325   5.311   6.093  0.3998 -0.4603 -0.6091
  141OSM    H4S15417   0.216   5.321   6.104  0.5732  0.7473  0.2543
  141OSM    C5S15418   0.387   5.206   6.154 -0.3344  0.7496  0.7506
  141OSM    H5S15419   0.496   5.194   6.159 -0.3368  0.3624  0.0356
  141OSM    C6S15420   0.316   5.083   6.207 -0.0388 -0.5631 -0.2096
  141OSM    H6S15421   0.353   5.050   6.306 -0.8141 -1.6017 -0.2485
  141OSM    H6T15422   0.324   5.000   6.134 -1.9874 -0.3354 -0.7532
  141OSM    C7S15423   0.163   5.094   6.229 -0.2093 -0.2232 -0.3872
  141OSM    H7S15424   0.113   5.104   6.130  1.6086 -0.3019 -1.3463
  141OSM    H7T15425   0.143   5.189   6.284 -0.7203 -0.4662 -0.1403
  141OSM    C8S15426   0.103   4.971   6.301 -0.0122  0.1668 -0.6596
  141OSM    H8S15427   0.167   4.881   6.288  1.5112  0.3017  3.9262
  141OSM    H8T15428  -0.001   4.952   6.265 -0.9464  0.3189  1.7265
  141OSM    C9S15429   0.099   4.993   6.449 -0.3201  0.0142  0.7623
  141OSM    H9S15430   0.053   5.093   6.466 -0.6870  0.2630 -1.3490
  141OSM    H9T15431   0.197   4.995   6.501 -0.7291 -1.5037  1.6492
  141OSM   C10S15432   0.034   4.879   6.516 -0.2872  0.2294  0.4043
  141OSM   H10S15433   0.091   4.786   6.496  3.0704  2.5176 -1.6721
  141OSM   H10T15434  -0.070   4.867   6.480 -0.8622 -0.0035  2.0576
  141OSM   C11S15435   0.014   4.895   6.667  0.3823 -0.0768 -0.8281
  141OSM   H11S15436  -0.035   4.992   6.688  0.6423  0.2968 -1.9008
  141OSM   H11T15437   0.110   4.889   6.722  0.2916  0.1395 -0.6447
  141OSM   C12S15438  -0.075   4.779   6.721  0.8283 -0.3486 -0.0333
  141OSM   H12S15439  -0.014   4.688   6.699  0.3620 -1.2429  2.0805
  141OSM   H12T15440  -0.181   4.769   6.687  0.9084 -1.3285 -0.0289
  141OSM   C13S15441  -0.082   4.776   6.873 -0.3767 -0.3533 -0.0936
  141OSM   H13S15442  -0.121   4.875   6.906  0.4523  0.6717 -2.0054
  141OSM   H13T15443   0.023   4.759   6.904  0.0488  1.4567 -0.4086
  141OSM   C14S15444  -0.170   4.667   6.930 -0.6318 -0.2963  0.4303
  141OSM   H14S15445  -0.144   4.568   6.887 -1.4777 -0.7244  0.9035
  141OSM   H14T15446  -0.273   4.694   6.899  0.5846  1.4188 -2.6921
  141OSM   C15S15447  -0.173   4.663   7.083  1.0532 -0.4115  0.3180
  141OSM   H15S15448  -0.188   4.769   7.115  1.4380 -0.2563 -0.0082
  141OSM   H15T15449  -0.075   4.626   7.119  1.9454 -0.1075 -1.6478
  141OSM   C16S15450  -0.296   4.592   7.153 -0.6865 -0.5791 -0.8156
  141OSM   H16S15451  -0.295   4.484   7.126  1.1977 -1.0513  0.9164
  141OSM   H16T15452  -0.396   4.638   7.133  0.4313  1.9613 -0.9827
  141OSM   C17S15453  -0.275   4.598   7.306 -0.1346  1.4551 -0.3150
  141OSM   H17S15454  -0.238   4.695   7.347 -0.0536  0.9948  0.7282
  141OSM   H17T15455  -0.200   4.524   7.341 -1.5149  0.1452 -0.0437
  141OSM   C18S15456  -0.404   4.554   7.381 -0.4470  0.0313  0.1863
  141OSM   H18S15457  -0.387   4.535   7.489 -3.2118  0.0181  0.7057
  141OSM   H18T15458  -0.450   4.457   7.355 -1.1106  0.8274 -1.8046
  141OSM   H18U15459  -0.490   4.622   7.363 -0.6534 -0.2470  0.1221
  141OSM    C1F15460   0.356   5.657   6.338  0.3155 -1.2896  0.0313
  141OSM     OF15461   0.266   5.739   6.308 -0.2820 -0.1286 -0.1295
  141OSM    C2F15462   0.429   5.654   6.466  0.1646 -0.4313 -0.0750
  141OSM    H2F15463   0.462   5.755   6.499  0.1112 -0.5904  0.4900
  141OSM    H2G15464   0.524   5.601   6.443  0.2752 -0.2132 -0.1223
  141OSM    C3F15465   0.363   5.574   6.582  0.7901 -0.3297  0.5518
  141OSM    H3F15466   0.259   5.604   6.605  0.9348 -0.0020  0.7952
  141OSM    H3G15467   0.425   5.595   6.672 -2.0104 -0.4454  2.6514
  141OSM    C4F15468   0.361   5.421   6.569  0.0685  0.1822  0.3865
  141OSM    H4F15469   0.467   5.390   6.580  0.3948  0.8361 -0.7656
  141OSM    H4G15470   0.338   5.397   6.463  1.8384 -0.9268  0.2083
  141OSM    C5F15471   0.266   5.333   6.658 -0.0067  0.4986  0.3726
  141OSM    H5F15472   0.272   5.225   6.635  1.0727 -0.2726  3.6556
  141OSM    H5G15473   0.163   5.371   6.639 -0.3883 -0.3839  0.6505
  141OSM    C6F15474   0.282   5.341   6.811  0.3845 -0.7437 -0.0921
  141OSM    H6F15475   0.309   5.447   6.830 -0.6040 -0.9581  3.1038
  141OSM    H6G15476   0.364   5.279   6.854  1.9555  0.9342 -0.5577
  141OSM    C7F15477   0.152   5.328   6.893 -0.3020  0.0377  0.2237
  141OSM    H7F15478   0.073   5.397   6.856 -0.3009 -0.9753 -1.7865
  141OSM    H7G15479   0.181   5.365   6.994 -1.6652  0.6987  0.3876
  141OSM    C8F15480   0.106   5.185   6.912 -0.5064  0.9735 -0.6782
  141OSM    H8F15481   0.193   5.131   6.956  0.0689  2.8113  0.5894
  141OSM    H8G15482   0.073   5.137   6.818 -1.1831  1.0130 -0.4642
  141OSM    C9F15483  -0.010   5.171   7.001 -0.2936  0.5521 -0.0950
  141OSM    H9F15484  -0.094   5.233   6.968 -0.3496 -1.0208 -3.2464
  141OSM   C10F15485  -0.013   5.096   7.113 -0.0038 -0.1544  0.0693
  141OSM   H10F15486  -0.107   5.098   7.170 -1.2754 -0.1463 -1.9345
  141OSM   C11F15487   0.098   5.008   7.168 -0.5077 -0.9505 -0.7736
  141OSM   H11F15488   0.195   5.045   7.130 -1.1077  2.1276  0.4144
  141OSM   H11G15489   0.081   4.903   7.135  1.1620 -0.5105 -3.2695
  141OSM   C12F15490   0.117   4.994   7.327  0.0101  0.4305  0.2794
  141OSM   H12F15491   0.134   4.886   7.349 -2.6463 -0.6146 -2.2391
  141OSM   H12G15492   0.013   5.009   7.365  0.2667 -2.4827  2.5461
  141OSM   C13F15493   0.219   5.081   7.391 -0.3355 -0.3352 -0.1065
  141OSM   H13F15494   0.322   5.055   7.359 -0.8801 -1.0168 -1.3609
  141OSM   H13G15495   0.219   5.060   7.500 -0.1831 -0.0176 -0.0431
  141OSM   C14F15496   0.185   5.229   7.365  1.0109  0.4720  0.2374
  141OSM   H14F15497   0.089   5.253   7.415  0.7162 -0.7108  0.2675
  141OSM   H14G15498   0.167   5.239   7.256 -1.2964 -3.0106  0.1341
  141OSM   C15F15499   0.284   5.343   7.414  0.4186 -0.5310  0.0505
  141OSM   H15F15500   0.246   5.437   7.370  0.8241 -0.2001  0.4008
  141OSM   H15G15501   0.381   5.320   7.364 -0.2164 -0.5163 -1.2336
  141OSM   C16F15502   0.293   5.359   7.569  0.2008 -0.1453 -0.0625
  141OSM   H16F15503   0.308   5.255   7.605 -1.6336 -1.6981 -3.3554
  141OSM   H16G15504   0.195   5.402   7.600 -0.0517 -0.2122 -0.7521
  141OSM   C17F15505   0.394   5.468   7.616  0.1124 -0.1769 -0.3283
  141OSM   H17F15506   0.422   5.546   7.542  0.7248 -0.5087 -0.4580
  141OSM   H17G15507   0.491   5.415   7.633  0.1998 -0.3192 -1.2102
  141OSM   C18F15508   0.351   5.535   7.741  0.7788 -0.0333  0.5977
  141OSM   H18F15509   0.343   5.468   7.829  0.2684 -0.8559 -0.0566
  141OSM   H18G15510   0.262   5.599   7.724 -1.2010 -2.0213  2.7277
  141OSM   H18H15511   0.432   5.605   7.770  1.7865 -1.5584  1.5889
  142OSM      N15512   2.232   4.518   5.911  0.6237  0.2102  0.2111
  142OSM    C1515513   2.160   4.440   5.804  0.4529 -0.4559 -0.0332
  142OSM   H15A15514   2.224   4.371   5.751  0.9704 -0.6933  0.8731
  142OSM   H15B15515   2.128   4.520   5.740  0.6609  0.2789  0.7582
  142OSM   H15C15516   2.064   4.395   5.825 -2.1444  3.7105 -1.7963
  142OSM    C1415517   2.296   4.429   6.007 -0.3773 -0.4420 -0.1777
  142OSM   H14A15518   2.348   4.488   6.081  2.0234  0.2807 -2.2909
  142OSM   H14B15519   2.369   4.364   5.961 -1.3519 -1.3526 -0.4734
  142OSM   H14C15520   2.232   4.363   6.064  2.4211 -1.7450  1.7038
  142OSM    C1315521   2.334   4.609   5.854  0.0211 -0.4965  0.3252
  142OSM   H13A15522   2.399   4.565   5.781 -0.2951 -1.2542  0.4975
  142OSM   H13B15523   2.397   4.646   5.933 -1.2113  0.1750  1.0324
  142OSM   H13C15524   2.292   4.699   5.810 -0.3583 -1.0574 -0.4883
  142OSM    C1215525   2.129   4.599   5.983 -0.7102 -0.2732  0.4049
  142OSM   H12A15526   2.162   4.649   6.073 -1.0220 -1.6610  1.3246
  142OSM   H12B15527   2.049   4.536   6.019  0.4127 -1.6517  0.5796
  142OSM    C1115528   2.048   4.709   5.898  0.2187 -0.0473  0.6638
  142OSM   H11A15529   1.963   4.738   5.964 -0.4220 -1.7547  0.6367
  142OSM   H11B15530   2.005   4.654   5.812  0.4254  0.4584  0.2265
  142OSM      P15531   2.159   4.939   5.959 -0.3736 -0.2504  0.1538
  142OSM    O1315532   2.306   4.944   5.970 -0.0368  0.0379 -0.2632
  142OSM    O1415533   2.089   5.065   5.921 -0.7587  0.0926  0.2792
  142OSM    O1115534   2.106   4.893   6.100  0.1290 -0.5068  0.1360
  142OSM    O1215535   2.123   4.823   5.867 -0.2824 -0.1471 -0.0963
  142OSM    C1S15536   2.095   4.989   6.207  0.2850 -0.1069  0.3764
  142OSM    H1S15537   2.038   5.080   6.177 -1.1574 -1.2164 -0.4275
  142OSM    H1T15538   2.194   5.012   6.251 -0.3001  0.4659  1.4506
  142OSM     NF15539   2.060   5.000   6.449  0.5559  0.0079 -0.6319
  142OSM    HNF15540   2.113   4.953   6.519 -2.3282  1.6328  2.9907
  142OSM    C2S15541   2.017   4.925   6.334  0.0720 -0.1982  0.2526
  142OSM    H2S15542   1.909   4.951   6.331 -0.2210 -1.1428  1.6767
  142OSM    C3S15543   2.026   4.772   6.347 -0.1113 -0.1310 -0.2676
  142OSM    H3S15544   2.134   4.749   6.349  0.2417  1.4259  1.4067
  142OSM     O315545   1.969   4.711   6.231 -0.1104  0.1077  0.0277
  142OSM    HO315546   1.947   4.784   6.174 -1.3287  0.2852  0.6820
  142OSM    C4S15547   1.948   4.732   6.470 -0.3942  0.2641 -0.2609
  142OSM    H4S15548   2.007   4.744   6.563 -0.8768 -0.3027  0.1269
  142OSM    C5S15549   1.819   4.702   6.481 -0.7619  0.0878 -0.7071
  142OSM    H5S15550   1.764   4.707   6.386 -0.5679 -2.1079 -0.9894
  142OSM    C6S15551   1.742   4.689   6.608  0.6303 -0.2038 -0.4064
  142OSM    H6S15552   1.706   4.584   6.621 -0.4441  0.3674  1.6353
  142OSM    H6T15553   1.645   4.742   6.599 -0.1900 -1.5424  0.2357
  142OSM    C7S15554   1.808   4.735   6.733 -0.8357  0.7724 -0.1978
  142OSM    H7S15555   1.822   4.844   6.714  0.3470  1.2531  2.8429
  142OSM    H7T15556   1.900   4.675   6.749 -0.8997  0.7835  0.2115
  142OSM    C8S15557   1.723   4.723   6.857 -0.5793 -0.3829 -0.1984
  142OSM    H8S15558   1.662   4.631   6.869 -1.3453 -0.0668 -1.4822
  142OSM    H8T15559   1.639   4.796   6.854  0.1292  0.4040 -1.1281
  142OSM    C9S15560   1.802   4.729   6.982 -0.2071  0.8345 -0.2183
  142OSM    H9S15561   1.849   4.829   6.995 -0.5090  1.0441 -0.7484
  142OSM    H9T15562   1.891   4.665   6.964  0.3536  1.9281 -1.5376
  142OSM   C10S15563   1.719   4.694   7.109 -0.1868  0.3978  1.2126
  142OSM   H10S15564   1.688   4.588   7.127 -0.0026  0.0132 -0.5602
  142OSM   H10T15565   1.622   4.746   7.112 -1.0660 -1.1846  1.7112
  142OSM   C11S15566   1.810   4.727   7.229  0.7979  0.1937 -0.3373
  142OSM   H11S15567   1.858   4.827   7.220 -1.3473  1.3542  0.5184
  142OSM   H11T15568   1.880   4.644   7.252 -0.6103 -0.6374  1.1540
  142OSM   C12S15569   1.725   4.738   7.362 -0.3690  0.6304  0.3167
  142OSM   H12S15570   1.662   4.646   7.367 -1.5412  1.3483 -0.7730
  142OSM   H12T15571   1.647   4.817   7.358 -0.8283  0.1518 -0.7043
  142OSM   C13S15572   1.815   4.747   7.484  0.4627 -0.0065  0.2070
  142OSM   H13S15573   1.871   4.843   7.478  0.8654 -0.1823  1.0103
  142OSM   H13T15574   1.875   4.655   7.503 -0.6121 -0.3366  2.3258
  142OSM   C14S15575   1.734   4.770   7.616 -0.2352  0.8866 -0.1785
  142OSM   H14S15576   1.665   4.686   7.637  0.5185  0.2731 -0.1226
  142OSM   H14T15577   1.672   4.862   7.611 -1.1439  0.2443 -1.0025
  142OSM   C15S15578   1.828   4.784   7.739  0.0153  0.3949 -0.4780
  142OSM   H15S15579   1.906   4.855   7.704 -1.0787  1.6799 -0.3779
  142OSM   H15T15580   1.875   4.685   7.761 -0.2228  0.4612  0.3707
  142OSM   C16S15581   1.759   4.841   7.862 -0.0276 -0.1888 -0.8768
  142OSM   H16S15582   1.733   4.947   7.842 -1.0241 -0.7532 -2.8751
  142OSM   H16T15583   1.833   4.841   7.944 -1.3113  0.5482  0.3173
  142OSM   C17S15584   1.635   4.755   7.910  0.2577 -0.5847 -0.0332
  142OSM   H17S15585   1.676   4.655   7.933  1.9564  0.4358  1.6762
  142OSM   H17T15586   1.558   4.745   7.830  0.1925 -1.2379  0.1073
  142OSM   C18S15587   1.547   4.818   8.020  0.8700 -0.7099  0.0103
  142OSM   H18S15588   1.503   4.910   7.976 -0.1465 -0.8811  0.6527
  142OSM   H18T15589   1.608   4.851   8.107 -0.2601  2.9282 -0.3794
  142OSM   H18U15590   1.481   4.737   8.057  1.7849 -1.1990  0.6030
  142OSM    C1F15591   2.059   5.132   6.480  0.0033  0.2225 -0.7461
  142OSM     OF15592   2.022   5.208   6.392 -0.4428 -0.4680  0.6459
  142OSM    C2F15593   2.108   5.177   6.609 -0.0064  0.5765 -0.1397
  142OSM    H2F15594   2.104   5.288   6.610 -0.5025  0.6173  2.6728
  142OSM    H2G15595   2.216   5.155   6.625 -0.4919 -1.0183  1.2939
  142OSM    C3F15596   2.022   5.126   6.728 -0.0868  0.1857 -0.4632
  142OSM    H3F15597   2.009   5.016   6.719  0.7986  0.0534 -0.2213
  142OSM    H3G15598   1.917   5.160   6.728 -0.2777 -0.3849 -0.0396
  142OSM    C4F15599   2.081   5.171   6.864 -0.2866  0.0016  0.0059
  142OSM    H4F15600   2.033   5.265   6.898  3.3191  2.1083 -0.1752
  142OSM    H4G15601   2.190   5.192   6.857  0.6542 -3.7395  0.9412
  142OSM    C5F15602   2.068   5.050   6.954  0.7774 -0.2805 -0.1985
  142OSM    H5F15603   2.141   4.972   6.924  1.5047 -0.2920  1.4859
  142OSM    H5G15604   1.968   5.005   6.938  0.8892 -0.8704  0.6733
  142OSM    C6F15605   2.095   5.084   7.096 -0.0888  0.0506  0.0908
  142OSM    H6F15606   2.092   4.988   7.152  0.6096 -1.8131 -2.8365
  142OSM    H6G15607   2.010   5.149   7.128 -1.4572 -0.1834 -2.7596
  142OSM    C7F15608   2.226   5.156   7.122  0.3629  0.6769  0.7855
  142OSM    H7F15609   2.247   5.247   7.062  3.1560  0.5466  1.3963
  142OSM    H7G15610   2.310   5.084   7.107  0.2212  0.6890 -0.1461
  142OSM    C8F15611   2.241   5.201   7.265  0.1267 -0.0918  0.0881
  142OSM    H8F15612   2.151   5.256   7.297  0.4919 -0.9270  2.8669
  142OSM    H8G15613   2.327   5.271   7.276 -0.5564  0.8020 -0.1811
  142OSM    C9F15614   2.250   5.078   7.357 -0.2095  0.2036 -0.0483
  142OSM    H9F15615   2.328   5.004   7.329  0.2380 -0.4639  2.7304
  142OSM   C10F15616   2.170   5.056   7.464 -0.0120 -0.2665 -0.6654
  142OSM   H10F15617   2.196   4.971   7.528  2.3717  1.4069  0.7703
  142OSM   C11F15618   2.073   5.156   7.517 -0.5943  0.0935  0.7500
  142OSM   H11F15619   1.965   5.136   7.499 -1.4081  1.1823  3.7935
  142OSM   H11G15620   2.085   5.259   7.479  0.7533  0.9310  3.2136
  142OSM   C12F15621   2.072   5.157   7.676 -0.2195 -0.4024  0.7980
  142OSM   H12F15622   2.062   5.058   7.726 -0.9302 -1.0124 -0.5100
  142OSM   H12G15623   1.990   5.228   7.704 -0.9764 -0.9950  0.1386
  142OSM   C13F15624   2.209   5.220   7.718  0.2615 -0.3516 -0.5107
  142OSM   H13F15625   2.239   5.286   7.634  0.1155  1.1344  0.5755
  142OSM   H13G15626   2.274   5.131   7.739 -0.2338 -0.2778  1.5787
  142OSM   C14F15627   2.187   5.306   7.841 -0.4554  0.2474 -1.0597
  142OSM   H14F15628   2.161   5.234   7.922  2.7065  0.9385  0.7370
  142OSM   H14G15629   2.099   5.372   7.830  0.2920  1.2499 -1.1002
  142OSM   C15F15630   2.320   5.373   7.883  0.2051 -0.5611  0.2888
  142OSM   H15F15631   2.359   5.456   7.820  0.4860 -0.8240  0.1158
  142OSM   H15G15632   2.397   5.293   7.887 -0.0114 -0.8515 -1.0323
  142OSM   C16F15633   2.313   5.416   8.032  0.2377  0.0509  0.0987
  142OSM   H16F15634   2.418   5.408   8.067  0.7429  1.2340 -1.0693
  142OSM   H16G15635   2.244   5.341   8.075  1.2031 -1.4594 -0.9140
  142OSM   C17F15636   2.251   5.558   8.053 -0.8346 -0.2840 -0.4747
  142OSM   H17F15637   2.201   5.565   8.152  0.3832 -0.1932  0.1452
  142OSM   H17G15638   2.170   5.593   7.985 -0.3282 -0.2377 -1.0619
  142OSM   C18F15639   2.359   5.668   8.061 -0.8184  0.2330 -0.3808
  142OSM   H18F15640   2.425   5.683   7.973  1.2645  0.0102  1.0749
  142OSM   H18G15641   2.432   5.647   8.142 -1.8786  0.2323  0.6009
  142OSM   H18H15642   2.316   5.769   8.081  1.2140  1.1043 -0.1165
  143OSM      N15643   2.496   2.862   5.606 -0.0087 -0.6970 -0.2728
  143OSM    C1515644   2.502   2.997   5.672  0.7133 -1.0252  0.1952
  143OSM   H15A15645   2.453   3.071   5.611  0.6865 -2.0996 -1.1186
  143OSM   H15B15646   2.607   3.023   5.682  0.5076  1.1356 -2.2209
  143OSM   H15C15647   2.456   2.988   5.769  2.7453 -2.7460  1.0915
  143OSM    C1415648   2.344   2.822   5.612 -0.0126 -0.3547 -0.2697
  143OSM   H14A15649   2.303   2.822   5.712 -1.5193 -0.5297 -0.8621
  143OSM   H14B15650   2.336   2.721   5.574 -1.4847 -0.1091 -0.6721
  143OSM   H14C15651   2.293   2.895   5.551  1.4464  0.1075 -0.9802
  143OSM    C1315652   2.540   2.883   5.466 -0.8051 -0.3692  0.2178
  143OSM   H13A15653   2.481   2.959   5.416 -1.2560 -0.2426  0.9218
  143OSM   H13B15654   2.524   2.792   5.411  1.3432 -1.0954  0.6899
  143OSM   H13C15655   2.635   2.929   5.445  0.2556 -1.7540  1.6940
  143OSM    C1215656   2.574   2.756   5.679 -0.2291 -0.5149  0.5455
  143OSM   H12A15657   2.669   2.802   5.702  0.1149 -1.4200  0.9860
  143OSM   H12B15658   2.593   2.670   5.617  1.7144  0.4275 -0.2469
  143OSM    C1115659   2.523   2.718   5.821  0.5780 -0.1244 -0.7146
  143OSM   H11A15660   2.478   2.616   5.823  4.3339 -1.9805 -0.7813
  143OSM   H11B15661   2.452   2.793   5.861  1.9327  0.6364  0.3718
  143OSM      P15662   2.711   2.852   5.958  0.1073  0.0898  0.2358
  143OSM    O1315663   2.841   2.810   6.011 -0.0431  0.3651 -0.6935
  143OSM    O1415664   2.723   2.954   5.848  0.0912  0.3110 -0.5205
  143OSM    O1115665   2.616   2.895   6.076  0.2608 -0.3431 -0.3861
  143OSM    O1215666   2.642   2.715   5.899 -0.4501 -0.2169 -0.0436
  143OSM    C1S15667   2.535   2.801   6.152 -0.0675  0.4352  0.1063
  143OSM    H1S15668   2.580   2.700   6.139 -0.8590 -0.0717  1.1195
  143OSM    H1T15669   2.435   2.790   6.106 -0.6480 -1.2938  1.6526
  143OSM     NF15670   2.472   2.720   6.372  0.0074  0.0538 -0.1890
  143OSM    HNF15671   2.375   2.728   6.395 -0.2413 -2.0046 -0.3047
  143OSM    C2S15672   2.527   2.836   6.303  0.5674 -0.2118 -0.8455
  143OSM    H2S15673   2.632   2.854   6.334  1.0196  0.4329 -2.5931
  143OSM    C3S15674   2.448   2.966   6.327 -0.0367 -0.2779  0.2116
  143OSM    H3S15675   2.348   2.952   6.281  0.8718 -2.6714 -1.2252
  143OSM     O315676   2.493   3.081   6.246 -0.1784  0.1283  0.5057
  143OSM    HO315677   2.563   3.042   6.194 -0.3511  2.3093 -1.5148
  143OSM    C4S15678   2.449   2.990   6.470  0.3012  0.1309  0.3764
  143OSM    H4S15679   2.348   2.998   6.514 -0.0082  1.2207 -0.4777
  143OSM    C5S15680   2.550   3.035   6.544  0.1416 -0.2004  0.1445
  143OSM    H5S15681   2.646   3.052   6.492 -0.9218 -0.4492 -2.0232
  143OSM    C6S15682   2.547   3.081   6.687  0.0806  0.3221 -0.3874
  143OSM    H6S15683   2.457   3.136   6.721 -0.5360 -1.1212  0.4105
  143OSM    H6T15684   2.626   3.153   6.715  0.2599  0.2896 -0.7937
  143OSM    C7S15685   2.568   2.960   6.782 -0.2440 -0.1126  0.9061
  143OSM    H7S15686   2.661   2.911   6.745 -0.2444  1.9425 -2.1842
  143OSM    H7T15687   2.487   2.893   6.749  0.3796 -0.7817  0.7025
  143OSM    C8S15688   2.568   2.993   6.930  0.3961  0.6249 -0.2284
  143OSM    H8S15689   2.607   2.898   6.972 -1.3426  0.1239  0.3558
  143OSM    H8T15690   2.467   3.010   6.974 -0.1901 -1.4458 -0.6870
  143OSM    C9S15691   2.675   3.098   6.967 -0.3041 -0.2094 -0.2747
  143OSM    H9S15692   2.620   3.194   6.959 -0.2439 -0.0303  1.2126
  143OSM    H9T15693   2.760   3.087   6.896 -1.1598 -0.9682 -1.2233
  143OSM   C10S15694   2.726   3.087   7.109 -0.6119 -0.1945 -1.1213
  143OSM   H10S15695   2.708   2.984   7.146 -1.7622  0.0310 -1.0070
  143OSM   H10T15696   2.664   3.141   7.184  0.7407 -0.9636  0.6141
  143OSM   C11S15697   2.878   3.107   7.116  0.3133 -0.5608 -0.2231
  143OSM   H11S15698   2.913   3.175   7.035 -0.3993  1.7160  1.2920
  143OSM   H11T15699   2.932   3.010   7.121  0.7724 -0.2619  1.1427
  143OSM   C12S15700   2.920   3.200   7.230  0.3370 -0.1397 -0.6644
  143OSM   H12S15701   2.858   3.292   7.217  0.4867 -0.0666 -0.8779
  143OSM   H12T15702   3.027   3.232   7.223  0.5413 -0.9645 -1.5633
  143OSM   C13S15703   2.899   3.142   7.375 -0.2987 -0.1009 -0.2825
  143OSM   H13S15704   2.974   3.063   7.395 -0.4154  0.1760  1.3993
  143OSM   H13T15705   2.795   3.104   7.377 -1.6426  3.1226 -1.1730
  143OSM   C14S15706   2.903   3.252   7.483  0.5540 -0.1629  0.0555
  143OSM   H14S15707   2.818   3.321   7.464  1.7766  0.9197 -1.8692
  143OSM   H14T15708   2.993   3.316   7.473 -0.4257  1.2861  0.2163
  143OSM   C15S15709   2.919   3.190   7.624 -0.5247 -0.7025 -0.6373
  143OSM   H15S15710   3.014   3.136   7.643 -1.0468 -0.8984  1.6178
  143OSM   H15T15711   2.845   3.112   7.650 -1.4969  0.6493  0.8116
  143OSM   C16S15712   2.904   3.300   7.724  0.2120 -0.5920 -0.7989
  143OSM   H16S15713   2.796   3.325   7.724  0.2279 -0.3032  1.6290
  143OSM   H16T15714   2.961   3.387   7.684 -1.4472  1.0642  0.2480
  143OSM   C17S15715   2.953   3.270   7.870  0.9301  0.1271  0.1506
  143OSM   H17S15716   2.975   3.362   7.928 -2.3352 -0.5497  2.7408
  143OSM   H17T15717   3.054   3.224   7.865  0.7172 -0.6123  1.9289
  143OSM   C18S15718   2.852   3.188   7.948  0.1570  0.3628 -0.4346
  143OSM   H18S15719   2.759   3.240   7.978 -0.4200 -0.6042 -0.5123
  143OSM   H18T15720   2.906   3.147   8.036  1.7610  1.5511 -0.8094
  143OSM   H18U15721   2.813   3.106   7.885 -0.3221 -1.1177  1.6946
  143OSM    C1F15722   2.545   2.611   6.391  0.7919 -0.0093 -0.1492
  143OSM     OF15723   2.662   2.608   6.365  0.3594  0.0331 -0.1941
  143OSM    C2F15724   2.479   2.491   6.457  0.0214 -0.0706 -0.4719
  143OSM    H2F15725   2.567   2.428   6.482 -1.6336 -1.0828  3.3598
  143OSM    H2G15726   2.436   2.424   6.379  1.5542 -0.3097 -1.1476
  143OSM    C3F15727   2.385   2.507   6.578  0.4095 -0.0883  0.2444
  143OSM    H3F15728   2.332   2.410   6.587  0.4482 -0.0631  0.7475
  143OSM    H3G15729   2.305   2.579   6.552 -0.3426 -0.4825  1.4370
  143OSM    C4F15730   2.453   2.546   6.706  0.2481 -0.4567 -0.6156
  143OSM    H4F15731   2.482   2.651   6.690  0.9775 -0.6470 -0.5740
  143OSM    H4G15732   2.547   2.488   6.712 -1.0201 -2.5866  0.0064
  143OSM    C5F15733   2.375   2.531   6.844 -0.4172 -0.3191 -0.6759
  143OSM    H5F15734   2.373   2.422   6.867  1.5475 -0.5622 -1.4527
  143OSM    H5G15735   2.277   2.582   6.836  0.3079  0.9120 -1.9994
  143OSM    C6F15736   2.445   2.593   6.961  1.1196 -0.3806 -0.1329
  143OSM    H6F15737   2.384   2.584   7.054 -0.0337  0.1815 -0.8218
  143OSM    H6G15738   2.451   2.702   6.941 -1.6276 -0.2649 -0.8014
  143OSM    C7F15739   2.584   2.534   6.977 -0.4475 -0.2569 -1.0126
  143OSM    H7F15740   2.651   2.541   6.890  0.2676 -1.9603 -0.6391
  143OSM    H7G15741   2.584   2.423   6.985  0.3495 -0.2194 -0.4383
  143OSM    C8F15742   2.654   2.591   7.100 -0.2784  1.0707 -0.5346
  143OSM    H8F15743   2.595   2.579   7.193 -0.3532 -0.6584 -0.7704
  143OSM    H8G15744   2.652   2.702   7.099 -0.5428  1.0757  0.1128
  143OSM    C9F15745   2.800   2.560   7.104  0.6815 -0.2835  1.2776
  143OSM    H9F15746   2.835   2.539   7.002  1.0971  3.7663  0.4138
  143OSM   C10F15747   2.875   2.554   7.212  0.0769 -0.2979  0.3806
  143OSM   H10F15748   2.982   2.528   7.209  0.4609  1.2193 -0.1038
  143OSM   C11F15749   2.832   2.601   7.350 -0.6375  0.1860  0.5942
  143OSM   H11F15750   2.825   2.508   7.411  2.6451 -0.1476  0.6528
  143OSM   H11G15751   2.737   2.657   7.335 -1.1139 -0.9531 -0.9362
  143OSM   C12F15752   2.945   2.692   7.388  0.0435  0.3085  0.3177
  143OSM   H12F15753   2.979   2.759   7.306  0.9747 -1.7159 -1.0296
  143OSM   H12G15754   3.037   2.631   7.401 -1.3266 -1.8816  0.3055
  143OSM   C13F15755   2.920   2.780   7.515 -0.1237 -0.3655  0.2126
  143OSM   H13F15756   2.820   2.829   7.505  0.9802  1.7387 -1.1419
  143OSM   H13G15757   3.006   2.850   7.512 -0.1167 -0.3803  0.0699
  143OSM   C14F15758   2.933   2.701   7.648  0.3200 -0.3797  0.0773
  143OSM   H14F15759   3.009   2.621   7.635  1.1585  0.1094  1.7691
  143OSM   H14G15760   2.835   2.653   7.667 -0.6903  2.2061  2.0763
  143OSM   C15F15761   2.950   2.790   7.773 -0.1732  0.4747  0.6366
  143OSM   H15F15762   2.901   2.749   7.864  1.5774  0.7788  1.7713
  143OSM   H15G15763   2.901   2.890   7.770 -0.2984  0.3987 -2.4271
  143OSM   C16F15764   3.092   2.813   7.806 -0.0316 -0.1743 -0.6431
  143OSM   H16F15765   3.158   2.854   7.726 -0.0096 -0.3648 -0.7228
  143OSM   H16G15766   3.129   2.718   7.851 -0.8998  0.6303  1.9300
  143OSM   C17F15767   3.113   2.911   7.916  0.0767 -0.0295 -0.6203
  143OSM   H17F15768   3.099   2.866   8.017  0.9670 -2.8473 -1.6304
  143OSM   H17G15769   3.056   3.004   7.896  1.5065  0.8622 -0.6870
  143OSM   C18F15770   3.256   2.966   7.917  0.7813 -0.0355 -0.2077
  143OSM   H18F15771   3.269   3.018   8.014 -0.2672 -1.2302  0.6012
  143OSM   H18G15772   3.273   3.039   7.834 -1.1811 -2.4180 -2.9265
  143OSM   H18H15773   3.330   2.885   7.899 -2.6144 -2.9271 -2.5340
  144OSM      N15774   1.572   1.291   6.115  0.2903  0.2050  0.3009
  144OSM    C1515775   1.642   1.235   6.233  0.8500  0.4997  0.5899
  144OSM   H15A15776   1.733   1.197   6.189  0.3470 -1.1797  0.9312
  144OSM   H15B15777   1.585   1.157   6.281  1.3818 -0.0328  0.3592
  144OSM   H15C15778   1.665   1.310   6.307  0.1271  1.5159 -0.1876
  144OSM    C1415779   1.673   1.372   6.040  0.1677  0.8259 -0.0187
  144OSM   H14A15780   1.727   1.303   5.978 -0.2526  1.7848 -1.5059
  144OSM   H14B15781   1.744   1.427   6.100 -0.1134 -1.9225  3.1293
  144OSM   H14C15782   1.631   1.441   5.968 -0.3410 -1.1173 -1.6788
  144OSM    C1315783   1.538   1.177   6.024 -0.4535  0.6567 -0.5311
  144OSM   H13A15784   1.629   1.124   6.001 -2.1037 -3.5077  1.4691
  144OSM   H13B15785   1.501   1.203   5.926 -4.5478 -1.3456  0.2635
  144OSM   H13C15786   1.478   1.097   6.066  2.4237 -2.5253 -2.0707
  144OSM    C1215787   1.443   1.367   6.152 -0.8244 -0.0263 -0.2347
  144OSM   H12A15788   1.473   1.444   6.221  1.9811 -0.9461 -0.3223
  144OSM   H12B15789   1.388   1.292   6.206 -0.0301 -0.5885 -0.1889
  144OSM    C1115790   1.349   1.418   6.040 -0.0491  0.1119 -0.3076
  144OSM   H11A15791   1.270   1.482   6.085  0.3049  0.0931  0.3586
  144OSM   H11B15792   1.296   1.331   5.997  0.1502  0.1351 -0.6042
  144OSM      P15793   1.432   1.642   5.911 -0.2737 -0.0653 -0.1324
  144OSM    O1315794   1.557   1.660   5.832  0.3365  1.1553 -0.2948
  144OSM    O1415795   1.306   1.693   5.843 -0.7865  0.2547 -1.6955
  144OSM    O1115796   1.449   1.715   6.049 -0.1205  0.6360 -0.9192
  144OSM    O1215797   1.423   1.486   5.935  0.1182  0.0098 -0.1437
  144OSM    C1S15798   1.352   1.803   6.107 -0.6531  0.2348  0.3619
  144OSM    H1S15799   1.267   1.827   6.041  1.5931  0.3512 -2.7046
  144OSM    H1T15800   1.408   1.896   6.134  1.5738 -0.6382 -0.9587
  144OSM     NF15801   1.169   1.845   6.276  0.1770  1.0457 -0.0515
  144OSM    HNF15802   1.185   1.907   6.352  2.2962  1.4607 -0.7469
  144OSM    C2S15803   1.285   1.758   6.242  0.3093 -0.0385  0.1151
  144OSM    H2S15804   1.231   1.662   6.226 -0.6352  0.1613  1.8299
  144OSM    C3S15805   1.405   1.724   6.335  0.6821  0.6603 -0.3534
  144OSM    H3S15806   1.463   1.819   6.335  0.3428  0.9206  1.6026
  144OSM     O315807   1.488   1.625   6.286 -0.8651  0.0049 -0.4273
  144OSM    HO315808   1.477   1.625   6.191 -0.2285 -2.5394 -0.5787
  144OSM    C4S15809   1.356   1.677   6.471  0.4784 -0.2045 -0.2472
  144OSM    H4S15810   1.311   1.580   6.495 -3.7398  2.1419  2.5385
  144OSM    C5S15811   1.371   1.756   6.585  0.0177  0.0109  0.5882
  144OSM    H5S15812   1.417   1.856   6.580 -1.6695  0.9373  2.1068
  144OSM    C6S15813   1.322   1.737   6.719 -0.0687  0.7293 -0.0092
  144OSM    H6S15814   1.250   1.653   6.727  2.5599 -1.6536  0.5953
  144OSM    H6T15815   1.270   1.827   6.759 -1.1055  0.3936 -0.5766
  144OSM    C7S15816   1.440   1.702   6.807 -0.8207 -0.3063 -0.5344
  144OSM    H7S15817   1.516   1.783   6.818  2.1688 -3.1966  2.0529
  144OSM    H7T15818   1.492   1.617   6.758 -2.2494 -1.0835 -0.7681
  144OSM    C8S15819   1.396   1.668   6.945 -0.1871 -0.1221 -0.8746
  144OSM    H8S15820   1.333   1.578   6.926  1.5455 -1.6886  0.4818
  144OSM    H8T15821   1.335   1.752   6.983 -2.6846 -0.7783 -3.1303
  144OSM    C9S15822   1.508   1.629   7.043 -0.2085 -0.7750  0.2589
  144OSM    H9S15823   1.547   1.722   7.091 -1.1452 -1.0282  1.5679
  144OSM    H9T15824   1.595   1.585   6.989 -1.0489 -0.2571 -1.5946
  144OSM   C10S15825   1.465   1.544   7.156  0.0936  0.1082  0.5628
  144OSM   H10S15826   1.437   1.442   7.124  1.8743 -0.6074  1.1555
  144OSM   H10T15827   1.374   1.586   7.203  0.3916  2.3228 -0.6690
  144OSM   C11S15828   1.564   1.540   7.271 -0.0780 -0.0971  0.6894
  144OSM   H11S15829   1.573   1.644   7.310 -0.0073  0.6928 -1.3017
  144OSM   H11T15830   1.664   1.526   7.225 -0.1107  1.3271  0.1219
  144OSM   C12S15831   1.526   1.456   7.390  0.0785 -0.4069  0.4802
  144OSM   H12S15832   1.501   1.352   7.360 -1.6718 -0.3242  1.4977
  144OSM   H12T15833   1.437   1.509   7.430  0.1713  1.2919 -1.4152
  144OSM   C13S15834   1.635   1.447   7.492  0.3835  0.0018  0.5110
  144OSM   H13S15835   1.629   1.543   7.547 -0.9783  0.7830 -0.8928
  144OSM   H13T15836   1.735   1.424   7.450  1.1411  2.9914  0.4475
  144OSM   C14S15837   1.600   1.337   7.593 -0.4250 -0.7377  0.5873
  144OSM   H14S15838   1.576   1.243   7.539 -1.3131  0.1414 -0.6021
  144OSM   H14T15839   1.510   1.357   7.655  1.3566 -1.2317  3.5294
  144OSM   C15S15840   1.719   1.278   7.677 -0.5797 -0.3793 -0.0633
  144OSM   H15S15841   1.782   1.220   7.607 -0.4013 -1.5251  1.0223
  144OSM   H15T15842   1.683   1.208   7.756  2.2515 -1.4438  0.4142
  144OSM   C16S15843   1.808   1.384   7.745  0.0840  0.4583 -0.5274
  144OSM   H16S15844   1.736   1.456   7.791 -1.6363 -1.9157  0.7317
  144OSM   H16T15845   1.864   1.448   7.673  1.7900  2.8268  2.6652
  144OSM   C17S15846   1.897   1.312   7.834 -0.7011 -0.1575 -1.1408
  144OSM   H17S15847   1.963   1.232   7.793 -0.9416 -1.8931  1.6239
  144OSM   H17T15848   1.844   1.254   7.913 -0.8160  1.9898  0.4300
  144OSM   C18S15849   1.988   1.413   7.907 -0.3129  0.3175  0.4617
  144OSM   H18S15850   1.923   1.488   7.958 -0.8374  0.1260  0.0818
  144OSM   H18T15851   2.062   1.466   7.844 -0.3209 -0.6908 -0.4160
  144OSM   H18U15852   2.049   1.361   7.984  1.3823 -1.2082 -1.7780
  144OSM    C1F15853   1.056   1.852   6.208 -0.6982  0.2020 -0.8620
  144OSM     OF15854   1.019   1.770   6.124 -0.2597  0.2738  0.0611
  144OSM    C2F15855   0.987   1.974   6.240  0.2403 -0.2957 -0.4428
  144OSM    H2F15856   1.048   2.060   6.206 -0.3693  0.9547  1.4219
  144OSM    H2G15857   0.964   1.987   6.348 -1.8758 -0.3864 -0.8230
  144OSM    C3F15858   0.852   1.987   6.171  0.2914  0.0324 -0.0850
  144OSM    H3F15859   0.782   1.907   6.205 -0.6384  0.5747 -0.6694
  144OSM    H3G15860   0.860   1.988   6.060  2.4865  2.4056  0.0053
  144OSM    C4F15861   0.791   2.135   6.186  0.3695  0.7046 -0.0514
  144OSM    H4F15862   0.708   2.158   6.115 -0.5028 -0.5285  0.5352
  144OSM    H4G15863   0.866   2.212   6.156 -0.7176  1.9798  0.4067
  144OSM    C5F15864   0.733   2.169   6.327  0.2343 -0.0162 -0.1679
  144OSM    H5F15865   0.700   2.274   6.312  0.6534 -0.1971 -3.0366
  144OSM    H5G15866   0.810   2.173   6.406 -2.7368  0.6294  2.9392
  144OSM    C6F15867   0.622   2.081   6.374  0.6925  0.6791  0.0777
  144OSM    H6F15868   0.640   1.972   6.386 -0.5064  0.4519 -0.1404
  144OSM    H6G15869   0.535   2.086   6.305 -0.2423  2.7690  1.3301
  144OSM    C7F15870   0.569   2.130   6.512  0.1874  0.0981  0.2499
  144OSM    H7F15871   0.578   2.240   6.520  3.9011 -0.1373  0.9709
  144OSM    H7G15872   0.645   2.113   6.591  0.6222  0.7390 -0.0218
  144OSM    C8F15873   0.432   2.072   6.556  0.5928  0.0368  0.0313
  144OSM    H8F15874   0.359   2.121   6.489  1.6087  3.3328  1.1753
  144OSM    H8G15875   0.405   2.100   6.660  0.5330 -0.5308  0.1751
  144OSM    C9F15876   0.422   1.925   6.526 -0.0838 -0.4368 -0.8306
  144OSM    H9F15877   0.425   1.907   6.418  0.3440 -1.3556 -0.6768
  144OSM   C10F15878   0.387   1.823   6.607 -0.2702 -0.9681 -0.3642
  144OSM   H10F15879   0.387   1.721   6.566 -0.3388 -1.1929  0.1960
  144OSM   C11F15880   0.352   1.837   6.757 -0.1216  0.1666 -0.0181
  144OSM   H11F15881   0.288   1.755   6.798 -3.0922  1.7992 -1.0853
  144OSM   H11G15882   0.290   1.925   6.786 -1.5693 -1.5781  2.6397
  144OSM   C12F15883   0.484   1.831   6.832 -0.0456 -0.7880 -0.3294
  144OSM   H12F15884   0.547   1.912   6.791 -2.7342  0.6354 -1.9537
  144OSM   H12G15885   0.537   1.740   6.795 -1.3973 -1.8952  0.3455
  144OSM   C13F15886   0.464   1.831   6.988  0.1253  0.3864  0.2371
  144OSM   H13F15887   0.397   1.749   7.021  1.7700 -1.6462 -1.2260
  144OSM   H13G15888   0.415   1.930   6.998  0.1345  0.6467 -1.7733
  144OSM   C14F15889   0.588   1.824   7.074 -0.2867 -0.5417  0.3102
  144OSM   H14F15890   0.645   1.919   7.086  1.2301 -1.5811  1.9617
  144OSM   H14G15891   0.647   1.746   7.022 -2.5449 -0.5823 -2.3833
  144OSM   C15F15892   0.550   1.778   7.215 -0.0077 -0.1920  0.5189
  144OSM   H15F15893   0.518   1.673   7.202 -2.3159  0.5240 -0.1057
  144OSM   H15G15894   0.455   1.828   7.246  0.1332  0.9035 -0.6983
  144OSM   C16F15895   0.661   1.789   7.323 -0.4982  0.6773  0.5391
  144OSM   H16F15896   0.761   1.755   7.287 -1.4320 -0.6961 -0.8968
  144OSM   H16G15897   0.639   1.722   7.409 -3.5394  0.1715 -0.5299
  144OSM   C17F15898   0.696   1.937   7.362  0.6522 -0.5350 -0.6499
  144OSM   H17F15899   0.613   2.009   7.381  1.9767  0.8988  0.0033
  144OSM   H17G15900   0.746   1.977   7.271 -0.6347  0.2928 -1.0197
  144OSM   C18F15901   0.797   1.953   7.478  0.5013 -0.0268  0.5569
  144OSM   H18F15902   0.754   1.913   7.573 -0.5905  0.5066  0.3006
  144OSM   H18G15903   0.836   2.056   7.490 -0.6394  0.6271 -1.0628
  144OSM   H18H15904   0.883   1.886   7.458  0.9093  0.2371  1.3517
  145SAPE     N15905   2.644   0.971  10.327 -0.2136 -0.2988 -0.0612
  145SAPE   HN115906   2.743   0.993  10.303  0.8566 -3.0525  1.3632
  145SAPE   HN215907   2.611   0.899  10.260  2.0654 -1.0304 -0.4815
  145SAPE   HN315908   2.573   1.045  10.309 -0.2029 -0.6273 -1.5920
  145SAPE   C1215909   2.652   0.914  10.467  0.6593  0.2058  0.5124
  145SAPE  H12A15910   2.549   0.916  10.509 -0.1539  0.6345 -1.3828
  145SAPE  H12B15911   2.707   0.983  10.534 -1.8739  0.0061  3.0150
  145SAPE   C1115912   2.708   0.774  10.448  0.1871 -0.0390  0.0757
  145SAPE  H11A15913   2.649   0.708  10.381 -0.4409  0.3937  0.2008
  145SAPE  H11B15914   2.709   0.725  10.548 -2.0600 -1.9130 -0.7565
  145SAPE     P15915   2.956   0.678  10.430  0.0122 -0.1716 -0.2144
  145SAPE   O1315916   3.008   0.705  10.567 -0.1145 -0.0188  0.4887
  145SAPE   O1415917   2.907   0.539  10.398 -0.0794 -0.4362 -0.0414
  145SAPE   O1215918   2.841   0.781  10.385  0.3702  0.1138  0.1675
  145SAPE   O1115919   3.071   0.699  10.321 -0.5635 -0.3866  0.2829
  145SAPE    C115920   3.095   0.824  10.262 -0.0640 -0.6273 -0.0368
  145SAPE    HA15921   3.083   0.910  10.331  0.6519  1.3455 -2.2378
  145SAPE    HB15922   3.201   0.829  10.227 -0.9089  0.4327 -2.6953
  145SAPE    C215923   3.027   0.840  10.120  0.2428 -0.0937  0.0014
  145SAPE    HS15924   2.925   0.867  10.152  0.8850  1.9494  0.4846
  145SAPE   O2115925   3.046   0.717  10.048 -0.4748  0.2875  0.3787
  145SAPE   C2115926   2.950   0.707   9.959 -0.5212  0.2433  0.3059
  145SAPE   O2215927   2.866   0.791   9.929 -0.5343 -0.0574 -0.5382
  145SAPE   C2215928   2.948   0.575   9.884  0.1729  1.2572 -0.2483
  145SAPE   H2R15929   3.055   0.555   9.857 -0.0608 -2.8172  1.0637
  145SAPE   H2S15930   2.924   0.492   9.954 -0.3076  1.0191 -0.6854
  145SAPE    C315931   3.106   0.956  10.049 -0.7986 -0.1758  0.1319
  145SAPE    HX15932   3.206   0.916  10.025 -0.5543  0.7932 -0.5338
  145SAPE    HY15933   3.132   1.031  10.127  0.7339 -0.6056  0.0624
  145SAPE   O3115934   3.046   1.018   9.933 -0.0817 -0.2123 -0.2548
  145SAPE   C3115935   3.091   0.978   9.820  0.0169 -0.2447 -0.1256
  145SAPE   O3215936   3.162   0.886   9.802 -0.2876  0.2815  0.7305
  145SAPE   C3215937   3.036   1.066   9.706  0.0586 -0.1717  0.0986
  145SAPE   H2X15938   3.035   1.172   9.741 -0.4688 -0.4815  1.0718
  145SAPE   H2Y15939   2.929   1.040   9.693  0.1409 -0.9308  0.8219
  145SAPE   C2315940   2.865   0.564   9.753  0.9237 -0.3528  0.0681
  145SAPE   H3R15941   2.902   0.640   9.681  0.1361 -2.0251 -2.2222
  145SAPE   H3S15942   2.760   0.581   9.783  1.1669 -0.4403  0.9934
  145SAPE   C2415943   2.877   0.432   9.677  0.8007  0.2986 -0.3419
  145SAPE   H4R15944   2.862   0.347   9.746  0.3932  0.3465 -0.3714
  145SAPE   H4S15945   2.984   0.431   9.647  0.6317 -0.1967 -0.9326
  145SAPE   C2515946   2.794   0.418   9.556 -0.5026 -0.5316  0.3209
  145SAPE   H5R15947   2.695   0.453   9.588  0.4117  0.8897  1.8256
  145SAPE   C2615948   2.824   0.384   9.428  0.6082  1.1871  0.3963
  145SAPE   H6R15949   2.748   0.379   9.349  1.7230 -3.0762 -0.6309
  145SAPE   C2715950   2.961   0.338   9.380 -0.3406 -0.1636  0.3295
  145SAPE   H7R15951   2.945   0.262   9.300 -1.1787  0.4817 -0.1331
  145SAPE   H7S15952   3.015   0.280   9.458 -0.3615  0.4915  0.8364
  145SAPE   C2815953   3.054   0.449   9.344 -0.5270 -0.7309  0.0210
  145SAPE   H8R15954   3.072   0.516   9.429 -2.8379  0.5595 -0.4011
  145SAPE   C2915955   3.088   0.495   9.220  0.9426  0.2821  0.1427
  145SAPE   H9R15956   3.141   0.592   9.218  2.0173 -0.2983 -0.7983
  145SAPE  C21015957   3.059   0.425   9.084  0.6633 -0.3333  0.6356
  145SAPE  H10R15958   2.962   0.469   9.054  0.6189 -1.3407 -0.8132
  145SAPE  H10S15959   3.053   0.315   9.100  2.4688 -0.6950 -0.7383
  145SAPE  C21115960   3.169   0.455   8.992  0.0034 -0.7414 -0.0350
  145SAPE  H11R15961   3.259   0.405   9.031  0.3516  0.7522  1.1460
  145SAPE  C21215962   3.154   0.517   8.876 -0.0665 -0.0587 -0.1464
  145SAPE  H12R15963   3.242   0.524   8.809 -0.5155  2.6131 -0.5685
  145SAPE  C21315964   3.029   0.566   8.808 -0.6620  0.4353 -0.4493
  145SAPE  H13R15965   3.050   0.673   8.788  1.5422 -0.2574 -2.1887
  145SAPE  H13S15966   2.935   0.567   8.867 -0.3339 -1.5818  0.1993
  145SAPE  C21415967   3.010   0.498   8.673  0.8992 -0.0228 -0.1277
  145SAPE  H14R15968   2.973   0.395   8.679 -2.3027  0.9287 -1.4844
  145SAPE  C21515969   3.027   0.547   8.547 -0.3465  0.3708 -0.3353
  145SAPE  H15R15970   3.017   0.478   8.463 -0.7648 -0.6833  0.5580
  145SAPE  C21615971   3.094   0.679   8.513  0.0505 -0.1169  0.0824
  145SAPE  H16R15972   3.123   0.720   8.612  2.2313 -0.7113 -0.2676
  145SAPE  H16S15973   3.021   0.751   8.469  0.9910  0.5985 -0.3403
  145SAPE  C21715974   3.224   0.668   8.417  0.1861 -0.1885 -0.7705
  145SAPE  H17R15975   3.281   0.580   8.454 -0.4997 -0.4151 -0.2313
  145SAPE  H17S15976   3.286   0.759   8.434 -0.3634 -0.4560  4.2151
  145SAPE  C21815977   3.191   0.643   8.267  0.0381  1.1251 -0.6267
  145SAPE  H18R15978   3.160   0.537   8.262  1.3658  0.6763  0.0568
  145SAPE  H18S15979   3.293   0.644   8.223  0.8638 -0.0388  1.1236
  145SAPE  C21915980   3.104   0.733   8.197  0.2074 -0.8982  0.2623
  145SAPE  H19R15981   3.150   0.831   8.220  0.2972 -0.9106  0.1348
  145SAPE  H19S15982   3.003   0.727   8.244  0.2556 -2.0644  0.2457
  145SAPE  C22015983   3.100   0.717   8.045  0.3201 -0.0598  0.3190
  145SAPE  H20R15984   3.013   0.780   8.014 -0.3960 -0.1521  2.0152
  145SAPE  H20S15985   3.082   0.611   8.018 -0.2489  0.0601  0.2048
  145SAPE  H20T15986   3.193   0.760   8.004 -0.4510  0.0921 -1.3572
  145SAPE   C3315987   3.098   1.044   9.568  0.9866 -0.4385  0.4106
  145SAPE   H3X15988   3.086   0.937   9.541 -1.0599 -0.1730  0.0981
  145SAPE   H3Y15989   3.207   1.065   9.580  0.6954  0.6801  1.2977
  145SAPE   C3415990   3.043   1.135   9.457 -0.4683  0.1581  0.0103
  145SAPE   H4X15991   3.060   1.242   9.481 -1.0756 -0.0731  1.5759
  145SAPE   H4Y15992   2.933   1.125   9.447 -0.4459 -0.1143  0.0315
  145SAPE   C3515993   3.108   1.112   9.317  0.3341  0.6231 -0.4882
  145SAPE   H5X15994   3.096   1.005   9.290  3.2040 -0.2691  1.3631
  145SAPE   H5Y15995   3.219   1.114   9.323  0.4943 -0.7684 -2.1758
  145SAPE   C3615996   3.062   1.213   9.218 -0.3864  0.5536 -0.0609
  145SAPE   H6X15997   3.089   1.316   9.250 -0.3815  1.0424 -1.5700
  145SAPE   H6Y15998   2.951   1.208   9.221 -0.3686 -2.1332 -1.4638
  145SAPE   C3715999   3.101   1.189   9.070 -0.3658  0.3525 -0.0256
  145SAPE   H7X16000   3.026   1.242   9.008 -1.4276  0.8239  1.6163
  145SAPE   H7Y16001   3.112   1.083   9.039 -1.8374  1.4578 -5.4776
  145SAPE   C3816002   3.235   1.260   9.038 -0.1171  0.2664 -0.7114
  145SAPE   H8X16003   3.317   1.206   9.091  1.0977  2.0726 -0.6510
  145SAPE   H8Y16004   3.232   1.362   9.083  1.9807  0.5061 -0.9705
  145SAPE   C3916005   3.261   1.274   8.891 -0.4092 -0.2690  0.0465
  145SAPE   H9X16006   3.166   1.310   8.846  0.2173 -0.6098 -1.6360
  145SAPE   H9Y16007   3.275   1.174   8.844  1.0577  0.7615 -1.8652
  145SAPE  C31016008   3.387   1.365   8.870  0.2929  0.0448 -0.0347
  145SAPE  H10X16009   3.474   1.333   8.930 -0.7092 -0.3591  1.2631
  145SAPE  H10Y16010   3.376   1.474   8.889 -0.8885  0.0036 -0.3680
  145SAPE  C31116011   3.431   1.349   8.718  0.8075  0.7323  0.1283
  145SAPE  H11X16012   3.367   1.408   8.649 -0.2159 -1.5299 -0.9766
  145SAPE  H11Y16013   3.425   1.240   8.698 -1.0239  0.6566  0.8234
  145SAPE  C31216014   3.576   1.386   8.692  0.6084  0.3527 -0.7450
  145SAPE  H12X16015   3.634   1.334   8.771 -0.2296 -0.3805 -0.5971
  145SAPE  H12Y16016   3.577   1.496   8.706 -0.6874  0.2049  0.6982
  145SAPE  C31316017   3.630   1.340   8.560 -0.1127 -0.1243 -0.0774
  145SAPE  H13X16018   3.574   1.379   8.471 -1.7680  0.3557  1.1253
  145SAPE  H13Y16019   3.611   1.232   8.574 -0.2487  0.1106  1.8174
  145SAPE  C31416020   3.781   1.361   8.550  0.2283 -0.8752 -0.2514
  145SAPE  H14X16021   3.835   1.295   8.623  2.9419 -1.5600 -2.6958
  145SAPE  H14Y16022   3.798   1.468   8.573 -2.1630 -0.5304  0.1278
  145SAPE  C31516023   3.837   1.310   8.419 -0.2545 -0.0878 -0.5022
  145SAPE  H15X16024   3.792   1.356   8.329  1.7907  0.1202 -1.4829
  145SAPE  H15Y16025   3.830   1.199   8.422 -0.9363 -0.0337  1.6088
  145SAPE  C31616026   3.987   1.360   8.400  0.2776 -0.1483  0.1719
  145SAPE  H16X16027   4.046   1.311   8.480  0.4764 -2.2635 -1.2060
  145SAPE  H16Y16028   3.991   1.471   8.397 -2.7216  0.0193 -0.4388
  145SAPE  C31716029   4.033   1.314   8.262  0.8562  0.0853  0.6235
  145SAPE  H17X16030   4.123   1.364   8.219 -0.0723  1.3506  0.0965
  145SAPE  H17Y16031   3.942   1.337   8.202 -0.7986  1.9525  3.6106
  145SAPE  C31816032   4.069   1.167   8.238  0.0055  0.5677 -0.0699
  145SAPE  H18X16033   3.987   1.101   8.273  1.7444  0.2734  3.9548
  145SAPE  H18Y16034   4.156   1.132   8.297  0.5133  1.5992 -0.1931
  145SAPE  H18Z16035   4.083   1.133   8.133 -0.5570  0.6171 -0.1632
  146SAPE     N16036   3.927   3.918  10.451 -0.0052  0.0714  0.7574
  146SAPE   HN116037   3.837   3.880  10.486 -0.9523 -0.5502 -2.0856
  146SAPE   HN216038   4.002   3.858  10.490  1.3204  1.2631  0.1459
  146SAPE   HN316039   3.946   4.015  10.485 -0.2438  0.0799  0.8686
  146SAPE   C1216040   3.941   3.913  10.297  0.0740  0.7099 -0.0608
  146SAPE  H12A16041   3.971   3.809  10.271  0.4795  1.0052 -0.8011
  146SAPE  H12B16042   4.027   3.978  10.269 -0.9248  0.7394 -3.4954
  146SAPE   C1116043   3.812   3.939  10.230 -0.2857 -0.3749  0.0178
  146SAPE  H11A16044   3.824   3.921  10.121 -0.8436  2.1433 -0.5233
  146SAPE  H11B16045   3.777   4.043  10.249  0.7358 -0.4318  2.6070
  146SAPE     P16046   3.603   3.792  10.210  0.1620  0.0194  0.1749
  146SAPE   O1316047   3.555   3.675  10.294  0.3377 -0.4978  0.3324
  146SAPE   O1416048   3.504   3.905  10.182 -0.4405 -0.0084 -0.8235
  146SAPE   O1216049   3.724   3.842  10.288  0.3326  0.4060  0.4021
  146SAPE   O1116050   3.664   3.740  10.071 -0.0136 -0.5005 -0.2500
  146SAPE    C116051   3.694   3.603  10.050 -0.2210  0.4760 -0.5205
  146SAPE    HA16052   3.786   3.606   9.989  1.1500  1.0766  1.4792
  146SAPE    HB16053   3.711   3.536  10.137 -0.8920 -0.3527 -1.0031
  146SAPE    C216054   3.590   3.532   9.958  0.4870  0.1160  0.4917
  146SAPE    HS16055   3.627   3.428   9.942 -1.3324 -0.5256  0.2124
  146SAPE   O2116056   3.562   3.612   9.845 -0.0222  0.4404  0.4734
  146SAPE   C2116057   3.642   3.589   9.746 -0.1339  0.9248  0.3573
  146SAPE   O2216058   3.746   3.521   9.756  0.0747 -0.3350  0.4533
  146SAPE   C2216059   3.598   3.666   9.618 -0.0022  0.4571 -0.5752
  146SAPE   H2R16060   3.490   3.691   9.623 -0.0512  0.0609  0.8238
  146SAPE   H2S16061   3.659   3.759   9.616 -2.2152  1.9911 -2.9197
  146SAPE    C316062   3.460   3.516  10.036 -0.5258  1.2115 -0.9204
  146SAPE    HX16063   3.417   3.615  10.063  0.5492  1.5420 -0.3602
  146SAPE    HY16064   3.480   3.460  10.130  0.1974  2.1037 -0.5217
  146SAPE   O3116065   3.369   3.443   9.951 -0.8336  0.1650  0.1650
  146SAPE   C3116066   3.378   3.311   9.937 -0.1095  0.3746  0.6700
  146SAPE   O3216067   3.471   3.238   9.969  0.0977 -0.4219 -0.5323
  146SAPE   C3216068   3.242   3.256   9.881 -0.1244  0.3054 -0.3904
  146SAPE   H2X16069   3.172   3.291   9.960  0.4327 -1.6228  1.0618
  146SAPE   H2Y16070   3.240   3.145   9.885  2.3042  0.2035 -0.0139
  146SAPE   C2316071   3.634   3.581   9.497  1.3119  0.3094  0.2714
  146SAPE   H3R16072   3.588   3.480   9.505  1.9842 -0.0435 -0.1811
  146SAPE   H3S16073   3.741   3.553   9.505  1.4220  0.7697  0.4146
  146SAPE   C2416074   3.578   3.655   9.366  0.2059 -0.5312  0.4734
  146SAPE   H4R16075   3.476   3.699   9.373  0.6048  0.5831 -0.3950
  146SAPE   H4S16076   3.574   3.586   9.279  0.0492  0.7173 -0.5412
  146SAPE   C2516077   3.674   3.769   9.338 -0.8923  0.4911  0.5709
  146SAPE   H5R16078   3.679   3.839   9.423  0.8672  0.6235  0.3856
  146SAPE   C2616079   3.756   3.785   9.230 -1.1352 -0.3056 -0.2175
  146SAPE   H6R16080   3.812   3.879   9.220 -2.7705  0.5758 -1.6657
  146SAPE   C2716081   3.776   3.681   9.120 -0.7733 -0.7137  0.4173
  146SAPE   H7R16082   3.744   3.580   9.155  0.2659 -0.4556  2.2578
  146SAPE   H7S16083   3.886   3.673   9.110 -0.5430  1.7812  0.2696
  146SAPE   C2816084   3.698   3.718   8.999 -0.1450 -0.1205 -0.1319
  146SAPE   H8R16085   3.593   3.738   9.022  0.2762  1.4398  0.5986
  146SAPE   C2916086   3.746   3.731   8.876  0.4835  0.1970 -0.0978
  146SAPE   H9R16087   3.673   3.744   8.795  1.6283  0.1045 -1.1815
  146SAPE  C21016088   3.885   3.714   8.822 -0.2599 -0.1365  0.2083
  146SAPE  H10R16089   3.868   3.633   8.749  0.3993 -0.8091  0.7824
  146SAPE  H10S16090   3.953   3.682   8.904  0.7596 -1.0734 -0.9812
  146SAPE  C21116091   3.950   3.836   8.768  0.4090 -0.1263 -0.7687
  146SAPE  H11R16092   3.905   3.930   8.802  2.7867  0.1692  1.9604
  146SAPE  C21216093   4.073   3.844   8.712  0.0344 -0.3799 -0.3316
  146SAPE  H12R16094   4.106   3.937   8.663  2.5621 -2.3523 -2.6909
  146SAPE  C21316095   4.156   3.724   8.686  0.8996  0.8763  0.4961
  146SAPE  H13R16096   4.135   3.654   8.769  0.0753 -0.0969 -0.5141
  146SAPE  H13S16097   4.264   3.753   8.679  1.4342 -1.3276 -2.7699
  146SAPE  C21416098   4.127   3.654   8.555  0.2903  0.4201  0.1585
  146SAPE  H14R16099   4.043   3.690   8.493  0.5197  0.0750 -0.3615
  146SAPE  C21516100   4.197   3.552   8.498  0.9707 -0.5323 -0.3738
  146SAPE  H15R16101   4.162   3.511   8.402 -2.3408  0.8852  0.0807
  146SAPE  C21616102   4.316   3.483   8.557  0.7172 -0.2089 -0.1774
  146SAPE  H16R16103   4.293   3.375   8.554 -0.1417 -0.2234  2.9671
  146SAPE  H16S16104   4.334   3.510   8.663 -0.2605  0.8877 -0.2733
  146SAPE  C21716105   4.441   3.494   8.466  0.6141  0.5208 -0.1474
  146SAPE  H17R16106   4.414   3.448   8.369  0.2236 -0.2970  0.3389
  146SAPE  H17S16107   4.513   3.425   8.515 -1.7436 -1.8273  0.2044
  146SAPE  C21816108   4.500   3.633   8.461 -0.4013  0.3782  0.0777
  146SAPE  H18R16109   4.530   3.675   8.560 -0.1981  1.8442 -0.5789
  146SAPE  H18S16110   4.431   3.701   8.407  0.3045  1.4963  0.5538
  146SAPE  C21916111   4.634   3.630   8.372  0.9344  0.1102 -0.2542
  146SAPE  H19R16112   4.642   3.725   8.316 -1.1370  0.3504 -0.2242
  146SAPE  H19S16113   4.618   3.560   8.287  0.1801 -0.4857  0.3625
  146SAPE  C22016114   4.766   3.593   8.445  0.2013  0.2191  0.0153
  146SAPE  H20R16115   4.758   3.504   8.510 -2.2875  0.2065 -0.2403
  146SAPE  H20S16116   4.801   3.673   8.514 -0.0823  1.3989 -1.1537
  146SAPE  H20T16117   4.828   3.572   8.354  0.8809  1.0776  0.2616
  146SAPE   C3316118   3.206   3.301   9.735  0.1251  0.0544  0.1137
  146SAPE   H3X16119   3.180   3.409   9.740 -3.6122 -0.6708 -0.7423
  146SAPE   H3Y16120   3.111   3.247   9.719 -0.0628  0.5356 -0.4520
  146SAPE   C3416121   3.316   3.290   9.624 -0.1352  0.4611  0.5538
  146SAPE   H4X16122   3.332   3.184   9.593 -1.7272  1.0101 -2.5739
  146SAPE   H4Y16123   3.405   3.340   9.666  1.0919  0.5588 -1.9500
  146SAPE   C3516124   3.276   3.362   9.489 -0.0854  0.5685  0.7282
  146SAPE   H5X16125   3.366   3.347   9.426 -0.9952  0.1476 -0.5054
  146SAPE   H5Y16126   3.272   3.473   9.499  1.4024  0.7439 -0.3433
  146SAPE   C3616127   3.154   3.308   9.403 -0.3645  0.4063 -1.1171
  146SAPE   H6X16128   3.072   3.298   9.477  2.0560  0.6205  1.7856
  146SAPE   H6Y16129   3.167   3.207   9.360 -0.6570  1.1256 -2.9964
  146SAPE   C3716130   3.099   3.403   9.299  0.2329 -0.5726  0.0982
  146SAPE   H7X16131   3.060   3.492   9.352  0.6601 -0.0922 -0.3810
  146SAPE   H7Y16132   3.014   3.361   9.242  1.8422 -1.3198 -1.8594
  146SAPE   C3816133   3.203   3.459   9.204 -0.5357  0.1210  0.3294
  146SAPE   H8X16134   3.264   3.373   9.169 -1.4434 -0.4613  0.1576
  146SAPE   H8Y16135   3.269   3.539   9.244 -1.4728  2.1811 -1.9897
  146SAPE   C3916136   3.151   3.517   9.079 -0.2675 -0.2200 -0.3091
  146SAPE   H9X16137   3.063   3.581   9.102 -0.5673 -0.3937 -0.9542
  146SAPE   H9Y16138   3.113   3.438   9.011 -1.6821  1.3993 -1.4590
  146SAPE  C31016139   3.256   3.613   9.020 -0.1185  0.1984  0.8203
  146SAPE  H10X16140   3.354   3.560   9.014  0.2699  0.7429  2.0646
  146SAPE  H10Y16141   3.268   3.690   9.100  1.0550  0.4263  0.4524
  146SAPE  C31116142   3.215   3.686   8.890 -0.8033  0.1303 -0.2707
  146SAPE  H11X16143   3.268   3.783   8.886 -2.8928  1.3369 -0.4746
  146SAPE  H11Y16144   3.104   3.694   8.889 -0.9899 -1.4098  1.9322
  146SAPE  C31216145   3.255   3.591   8.775 -0.1726  1.0392  0.3214
  146SAPE  H12X16146   3.202   3.493   8.783  2.9733 -0.7876  0.3578
  146SAPE  H12Y16147   3.361   3.565   8.796 -0.4928  0.2955  1.0822
  146SAPE  C31316148   3.248   3.645   8.632 -0.0755  0.7740 -0.1243
  146SAPE  H13X16149   3.300   3.574   8.564 -0.9129  0.0799 -0.0522
  146SAPE  H13Y16150   3.283   3.748   8.607  1.8472  0.2901  0.4339
  146SAPE  C31416151   3.105   3.640   8.571 -0.1160 -0.7513  0.0086
  146SAPE  H14X16152   3.037   3.713   8.620  1.3297  0.1836  0.7038
  146SAPE  H14Y16153   3.055   3.547   8.605 -1.3298  0.6674  2.3099
  146SAPE  C31516154   3.099   3.668   8.421 -0.4177 -0.4999 -0.0944
  146SAPE  H15X16155   3.159   3.600   8.357  0.6287  0.1540  0.1684
  146SAPE  H15Y16156   3.130   3.773   8.402  3.0350 -0.5235  3.9899
  146SAPE  C31616157   2.955   3.643   8.374  0.2948 -0.0345 -0.4044
  146SAPE  H16X16158   2.877   3.692   8.436  0.7812 -0.6086  0.7089
  146SAPE  H16Y16159   2.938   3.537   8.405  1.3257  0.5716  2.6133
  146SAPE  C31716160   2.941   3.655   8.225  0.4573  0.3361 -0.2765
  146SAPE  H17X16161   2.835   3.640   8.194  0.1546 -0.2477  1.0076
  146SAPE  H17Y16162   3.004   3.571   8.189  1.4085  1.0314 -0.2644
  146SAPE  C31816163   2.993   3.781   8.159 -0.5252 -0.3940  0.1241
  146SAPE  H18X16164   3.000   3.774   8.048  1.5163 -1.1856  0.2563
  146SAPE  H18Y16165   3.102   3.782   8.181 -0.1004  0.7787 -1.7628
  146SAPE  H18Z16166   2.938   3.873   8.189  1.3357  0.8390 -0.0382
  147SAPE     N16167   4.194   4.655  10.335  0.0121 -0.1464  0.2818
  147SAPE   HN116168   4.224   4.748  10.300  0.0472  0.2338  1.2809
  147SAPE   HN216169   4.114   4.618  10.279  0.6893  0.2186 -0.9451
  147SAPE   HN316170   4.175   4.675  10.436 -0.4317  2.5724 -0.2882
  147SAPE   C1216171   4.313   4.563  10.314  0.3820  0.3639  0.1196
  147SAPE  H12A16172   4.386   4.588  10.394  0.0254 -1.3697  1.0257
  147SAPE  H12B16173   4.363   4.584  10.216  2.0401 -0.8396  0.6736
  147SAPE   C1116174   4.260   4.408  10.324  0.4920 -0.2181 -0.5559
  147SAPE  H11A16175   4.201   4.387  10.416 -0.1865  0.7132 -0.7560
  147SAPE  H11B16176   4.347   4.341  10.336  1.1272  0.4595 -1.3152
  147SAPE     P16177   4.037   4.378  10.187 -0.0349  0.0100 -0.1826
  147SAPE   O1316178   3.978   4.283  10.279  0.0458 -0.3916  0.4242
  147SAPE   O1416179   4.007   4.521  10.217  0.2163  0.2369  0.4390
  147SAPE   O1216180   4.197   4.365  10.206 -0.4037 -0.2676  0.0951
  147SAPE   O1116181   4.009   4.337  10.034 -0.1336 -0.1157  0.2203
  147SAPE    C116182   3.983   4.200  10.003  0.1425 -0.6670 -0.4684
  147SAPE    HA16183   4.067   4.143  10.050  1.3024  1.1904 -0.1914
  147SAPE    HB16184   3.888   4.158  10.041 -0.2535  0.3391 -0.3223
  147SAPE    C216185   3.994   4.176   9.849  0.1306 -0.2172  0.4673
  147SAPE    HS16186   3.982   4.067   9.830 -2.3580  0.1098 -0.2277
  147SAPE   O2116187   4.115   4.230   9.795 -0.4662 -0.2994 -0.1631
  147SAPE   C2116188   4.214   4.146   9.814  0.1315  0.2154 -0.8526
  147SAPE   O2216189   4.207   4.035   9.856 -0.0850 -0.3826 -0.1985
  147SAPE   C2216190   4.348   4.218   9.773  0.8221  0.0087  0.1832
  147SAPE   H2R16191   4.356   4.323   9.809  4.7143  0.0145 -0.2289
  147SAPE   H2S16192   4.427   4.151   9.813  0.1293 -0.7740  0.2754
  147SAPE    C316193   3.864   4.246   9.793 -0.9329  0.0420  0.4504
  147SAPE    HX16194   3.857   4.352   9.827  1.0597  0.1895  0.5282
  147SAPE    HY16195   3.773   4.194   9.828 -0.3973 -1.2281  0.0274
  147SAPE   O3116196   3.870   4.241   9.649 -0.2979 -0.2165  0.5458
  147SAPE   C3116197   3.780   4.319   9.587  0.4395  0.2867 -0.8498
  147SAPE   O3216198   3.719   4.407   9.643 -0.1387 -0.8628 -0.6149
  147SAPE   C3216199   3.752   4.260   9.448  0.9030 -0.2218  0.7092
  147SAPE   H2X16200   3.757   4.150   9.457  1.6765 -0.1986  0.5778
  147SAPE   H2Y16201   3.830   4.304   9.382  2.0691 -0.9308  1.5825
  147SAPE   C2316202   4.358   4.221   9.618 -1.2127 -0.0696 -0.0758
  147SAPE   H3R16203   4.286   4.294   9.575 -1.9703 -1.8010 -1.9629
  147SAPE   H3S16204   4.344   4.118   9.578 -0.1654  0.9533 -3.4339
  147SAPE   C2416205   4.499   4.278   9.569 -0.1691  0.0134  0.3768
  147SAPE   H4R16206   4.514   4.381   9.607 -5.6647  1.1833  0.1448
  147SAPE   H4S16207   4.480   4.294   9.461 -1.1532 -1.4528  0.3068
  147SAPE   C2516208   4.615   4.183   9.583  0.1875 -0.2234  0.1784
  147SAPE   H5R16209   4.673   4.208   9.674  0.0467 -0.2460  0.2742
  147SAPE   C2616210   4.650   4.085   9.499  0.3373 -0.4545 -0.2659
  147SAPE   H6R16211   4.739   4.029   9.532 -0.1985 -0.1759  1.7777
  147SAPE   C2716212   4.575   4.046   9.375  0.0453  0.5027  0.6844
  147SAPE   H7R16213   4.475   4.092   9.369  0.6460  1.8280  0.5394
  147SAPE   H7S16214   4.553   3.938   9.362  1.6250  0.1565  0.6447
  147SAPE   C2816215   4.652   4.106   9.255  0.3024 -0.1721 -0.5557
  147SAPE   H8R16216   4.613   4.199   9.212 -0.3901 -0.7989 -1.3113
  147SAPE   C2916217   4.751   4.047   9.188  0.0829 -0.3709 -0.3955
  147SAPE   H9R16218   4.803   4.111   9.115  0.3989  0.2451  0.3522
  147SAPE  C21016219   4.804   3.914   9.223  0.1740  0.3708  0.5239
  147SAPE  H10R16220   4.739   3.832   9.187  0.1947 -0.4404  2.2513
  147SAPE  H10S16221   4.799   3.904   9.334 -0.2831  1.9456  0.6670
  147SAPE  C21116222   4.953   3.903   9.171  1.2756 -0.1511  0.2086
  147SAPE  H11R16223   5.025   3.966   9.226  0.8100  0.9645 -0.4354
  147SAPE  C21216224   4.977   3.812   9.075  0.3254 -0.0517  0.4362
  147SAPE  H12R16225   5.075   3.817   9.025  0.2387  0.5444  0.3236
  147SAPE  C21316226   4.876   3.715   9.019 -0.1505  0.0648  0.4571
  147SAPE  H13R16227   4.798   3.676   9.087 -3.4693  2.1409 -1.8616
  147SAPE  H13S16228   4.922   3.618   8.988 -0.0044 -0.1563  1.3581
  147SAPE  C21416229   4.815   3.778   8.897  0.6928  0.6576  1.4831
  147SAPE  H14R16230   4.861   3.871   8.860  4.7912 -1.6760  0.0302
  147SAPE  C21516231   4.717   3.721   8.823 -0.1975  0.8788  0.3775
  147SAPE  H15R16232   4.684   3.772   8.732 -2.0123 -0.2467  0.3608
  147SAPE  C21616233   4.646   3.592   8.851  0.2105 -0.8757 -0.0648
  147SAPE  H16R16234   4.692   3.519   8.922 -1.7583 -0.3397  1.8660
  147SAPE  H16S16235   4.640   3.543   8.752 -0.4359  0.4153 -0.6800
  147SAPE  C21716236   4.502   3.632   8.907 -0.1317  0.3759  0.0670
  147SAPE  H17R16237   4.433   3.552   8.871 -0.0236 -0.2234  1.1695
  147SAPE  H17S16238   4.474   3.736   8.879 -2.4356  0.2008  1.4704
  147SAPE  C21816239   4.500   3.620   9.060 -0.0215 -0.4478  0.0784
  147SAPE  H18R16240   4.587   3.668   9.110  1.1193 -0.0751 -2.1405
  147SAPE  H18S16241   4.505   3.512   9.084 -1.0208 -0.9042 -1.5920
  147SAPE  C21916242   4.384   3.694   9.123 -0.1295 -0.2869 -0.8754
  147SAPE  H19R16243   4.291   3.652   9.079 -1.1892  1.9188 -0.8790
  147SAPE  H19S16244   4.391   3.803   9.099 -1.9358  0.2119  0.5950
  147SAPE  C22016245   4.386   3.673   9.277  0.6902  0.0800 -0.0307
  147SAPE  H20R16246   4.434   3.580   9.315 -1.1945  0.2194  3.0523
  147SAPE  H20S16247   4.282   3.676   9.316  0.5301  1.7373 -0.5120
  147SAPE  H20T16248   4.439   3.753   9.332 -0.1070 -1.1998  2.7999
  147SAPE   C3316249   3.605   4.300   9.409  0.2695  0.4435  0.1425
  147SAPE   H3X16250   3.580   4.408   9.409  0.2132  0.4358  1.1270
  147SAPE   H3Y16251   3.542   4.256   9.489 -1.0782  1.3068 -0.4112
  147SAPE   C3416252   3.553   4.262   9.271  0.0806 -0.6763  0.0276
  147SAPE   H4X16253   3.458   4.319   9.264 -0.7811 -2.1126 -0.4460
  147SAPE   H4Y16254   3.523   4.156   9.280 -1.9023 -0.1383  0.0877
  147SAPE   C3516255   3.647   4.292   9.154 -0.3470 -0.5462  0.5303
  147SAPE   H5X16256   3.743   4.243   9.178  0.6288  0.6207 -0.7820
  147SAPE   H5Y16257   3.663   4.402   9.158 -0.2677 -0.4834 -0.8852
  147SAPE   C3616258   3.603   4.235   9.018 -0.1983 -0.8024 -0.0038
  147SAPE   H6X16259   3.679   4.264   8.943 -0.1031  0.1075  0.4356
  147SAPE   H6Y16260   3.506   4.284   8.994 -0.4549 -1.6251 -0.7241
  147SAPE   C3716261   3.582   4.090   9.029 -0.4351 -0.6590 -0.3010
  147SAPE   H7X16262   3.517   4.068   9.116  1.2641 -1.9750  0.7133
  147SAPE   H7Y16263   3.675   4.044   9.069  0.8791  2.0384  0.0280
  147SAPE   C3816264   3.539   4.021   8.902 -0.3489 -0.0848 -0.0610
  147SAPE   H8X16265   3.518   3.916   8.932  0.0744 -0.1006  0.1856
  147SAPE   H8Y16266   3.629   4.019   8.837 -0.3674  2.0305 -0.2353
  147SAPE   C3916267   3.411   4.087   8.836 -0.2100  0.3165  0.2117
  147SAPE   H9X16268   3.348   4.129   8.917 -0.0911 -0.6496  0.8219
  147SAPE   H9Y16269   3.379   3.993   8.785  3.2687  0.7309 -3.2072
  147SAPE  C31016270   3.441   4.180   8.720 -0.2999 -0.2350  0.4830
  147SAPE  H10X16271   3.519   4.254   8.748  2.7707 -3.2043  0.3384
  147SAPE  H10Y16272   3.347   4.229   8.687 -1.7456 -0.9446  3.2856
  147SAPE  C31116273   3.502   4.108   8.598 -0.1783 -0.1914 -1.1253
  147SAPE  H11X16274   3.431   4.037   8.552  0.6367  1.0044 -4.4571
  147SAPE  H11Y16275   3.598   4.059   8.626 -0.0172  0.7902  0.1615
  147SAPE  C31216276   3.530   4.210   8.491  0.5288  0.0534  0.2122
  147SAPE  H12X16277   3.586   4.304   8.515  1.4788  0.3997 -2.9136
  147SAPE  H12Y16278   3.433   4.249   8.455  1.0756  1.8578  0.5966
  147SAPE  C31316279   3.605   4.156   8.361  0.0238  0.5760  0.0495
  147SAPE  H13X16280   3.651   4.059   8.390  1.6791  1.6888  1.3139
  147SAPE  H13Y16281   3.695   4.217   8.337 -1.4404  3.3174  1.0222
  147SAPE  C31416282   3.525   4.144   8.226  0.2483  0.0941 -0.0181
  147SAPE  H14X16283   3.599   4.094   8.159  1.3639  1.3666  0.2253
  147SAPE  H14Y16284   3.510   4.245   8.182 -0.2008 -0.2467 -0.6679
  147SAPE  C31516285   3.386   4.070   8.236 -0.1166  0.3848  1.3518
  147SAPE  H15X16286   3.306   4.141   8.266 -1.4198  0.8005 -2.5725
  147SAPE  H15Y16287   3.380   3.979   8.300 -0.9932 -0.5031  0.0342
  147SAPE  C31616288   3.317   4.028   8.102 -0.0693  0.8335 -0.0004
  147SAPE  H16X16289   3.215   3.993   8.129  0.2375  0.6496  0.9333
  147SAPE  H16Y16290   3.376   3.947   8.054 -0.9934  0.4761 -0.5735
  147SAPE  C31716291   3.302   4.139   7.997  0.1391  0.0609  0.0455
  147SAPE  H17X16292   3.400   4.174   7.958 -0.5330  1.3387 -0.5715
  147SAPE  H17Y16293   3.256   4.232   8.037 -1.4484  0.3339 -2.2616
  147SAPE  C31816294   3.213   4.095   7.877  0.3040  1.0710  0.2973
  147SAPE  H18X16295   3.107   4.074   7.901  0.0113  1.1052 -0.8881
  147SAPE  H18Y16296   3.258   4.017   7.812  0.7816  1.6973 -0.1434
  147SAPE  H18Z16297   3.210   4.176   7.802 -0.1977  0.4791 -0.3363
  148SAPE     N16298   5.664   2.284  10.336  0.2832  0.6992  0.2227
  148SAPE   HN116299   5.637   2.377  10.298 -0.9121  0.7415  1.0927
  148SAPE   HN216300   5.645   2.278  10.439  0.5646  0.6238  0.2711
  148SAPE   HN316301   5.764   2.265  10.314 -0.3900 -2.8392 -0.3116
  148SAPE   C1216302   5.577   2.180  10.266 -1.1300  0.3844 -0.0882
  148SAPE  H12A16303   5.616   2.084  10.306  0.4887  0.7984 -0.6184
  148SAPE  H12B16304   5.610   2.175  10.160 -1.1365 -1.5786 -0.0352
  148SAPE   C1116305   5.424   2.203  10.266 -0.4601 -0.7820 -0.4197
  148SAPE  H11A16306   5.404   2.186  10.374  0.9104 -4.3425 -0.5672
  148SAPE  H11B16307   5.364   2.126  10.213 -2.9968  2.0782 -2.0001
  148SAPE     P16308   5.284   2.423  10.283  0.0650  0.2749 -0.1752
  148SAPE   O1316309   5.260   2.360  10.415 -0.0533  0.3458  0.0180
  148SAPE   O1416310   5.339   2.562  10.277  0.1017  0.4991 -0.4758
  148SAPE   O1216311   5.391   2.331  10.211 -1.0193  0.5681  0.3608
  148SAPE   O1116312   5.153   2.420  10.192 -0.3636  0.3645  0.2620
  148SAPE    C116313   5.162   2.466  10.051 -0.5463  0.2703 -0.8877
  148SAPE    HA16314   5.068   2.512  10.013  0.0921  0.7842 -1.8993
  148SAPE    HB16315   5.242   2.540  10.030 -0.7327  0.3197 -1.4401
  148SAPE    C216316   5.184   2.349   9.954 -0.6419  0.2435 -0.3383
  148SAPE    HS16317   5.272   2.291   9.989 -1.1170 -0.4937 -0.3424
  148SAPE   O2116318   5.198   2.403   9.815 -0.2314  0.4393 -0.1159
  148SAPE   C2116319   5.265   2.321   9.737  0.0863  0.0964 -0.2708
  148SAPE   O2216320   5.310   2.211   9.761 -0.4907  0.0605 -0.1367
  148SAPE   C2216321   5.282   2.385   9.599 -1.0116  0.1344 -0.5635
  148SAPE   H2R16322   5.304   2.492   9.617 -0.9711  0.0298  0.0314
  148SAPE   H2S16323   5.371   2.337   9.553  1.5270  0.8981  3.1176
  148SAPE    C316324   5.065   2.250   9.959 -0.7604 -0.3960  1.0997
  148SAPE    HX16325   4.977   2.304   9.918 -0.3605  0.7201  1.6889
  148SAPE    HY16326   5.038   2.231  10.065  1.6053  0.3374  1.8846
  148SAPE   O3116327   5.079   2.131   9.882  0.1531  0.6473 -0.4760
  148SAPE   C3116328   5.100   2.017   9.954 -0.9330 -0.0410 -0.5317
  148SAPE   O3216329   5.128   2.014  10.071 -0.7515 -0.1191 -0.2876
  148SAPE   C3216330   5.075   1.892   9.863  0.1717 -0.0527 -0.4429
  148SAPE   H2X16331   5.083   1.810   9.938  1.3523 -1.2811 -1.8671
  148SAPE   H2Y16332   5.159   1.892   9.791 -1.1704  0.8082 -2.0899
  148SAPE   C2316333   5.164   2.356   9.508  0.1394 -0.3910 -0.2293
  148SAPE   H3R16334   5.151   2.426   9.423  1.8647  1.1068  0.6802
  148SAPE   H3S16335   5.069   2.363   9.564 -0.2366 -1.5516 -0.6936
  148SAPE   C2416336   5.172   2.211   9.450 -0.1790  0.8344  0.1858
  148SAPE   H4R16337   5.071   2.180   9.417 -0.6592 -0.2518  2.4915
  148SAPE   H4S16338   5.196   2.134   9.526  1.3188 -0.1164 -1.1822
  148SAPE   C2516339   5.268   2.193   9.334  0.0167 -0.1010 -0.0060
  148SAPE   H5R16340   5.370   2.232   9.349  0.5153 -1.3249 -0.0247
  148SAPE   C2616341   5.244   2.127   9.214 -0.1893 -0.2105  0.6493
  148SAPE   H6R16342   5.327   2.117   9.142 -0.9605 -1.4854 -0.0859
  148SAPE   C2716343   5.118   2.044   9.172 -0.0560 -0.4959 -0.5227
  148SAPE   H7R16344   5.102   2.083   9.069  1.1476  1.2408 -0.0981
  148SAPE   H7S16345   5.031   2.080   9.231 -0.2411 -0.7186 -0.6575
  148SAPE   C2816346   5.143   1.898   9.186 -0.0553  0.5811  0.0640
  148SAPE   H8R16347   5.120   1.838   9.275 -1.2094 -1.3589 -1.4466
  148SAPE   C2916348   5.200   1.822   9.089  1.0026 -0.0339 -0.8320
  148SAPE   H9R16349   5.224   1.717   9.106 -0.6254 -0.1486  1.1034
  148SAPE  C21016350   5.239   1.875   8.948  0.8056 -0.8543  0.4614
  148SAPE  H10R16351   5.299   1.796   8.899  1.0820  0.5833 -1.6367
  148SAPE  H10S16352   5.284   1.977   8.945 -1.9886  0.4806  0.9235
  148SAPE  C21116353   5.116   1.892   8.855  0.1875  0.8047 -0.0895
  148SAPE  H11R16354   5.038   1.947   8.909  0.5396 -0.2371  1.5418
  148SAPE  C21216355   5.087   1.836   8.737 -0.1860 -0.6520 -0.2194
  148SAPE  H12R16356   4.999   1.875   8.685 -1.2320 -2.8024 -0.1442
  148SAPE  C21316357   5.176   1.753   8.643  0.3038  0.1260 -0.3113
  148SAPE  H13R16358   5.276   1.736   8.690 -0.3758  3.4776  2.8189
  148SAPE  H13S16359   5.197   1.808   8.549 -1.0508  0.6002 -0.3604
  148SAPE  C21416360   5.108   1.619   8.625 -0.0112 -0.5556  0.4974
  148SAPE  H14R16361   5.107   1.562   8.719  0.2198 -0.0623  0.8020
  148SAPE  C21516362   5.050   1.567   8.517 -0.2810 -0.1483  0.0075
  148SAPE  H15R16363   4.998   1.471   8.531 -3.0747  1.3132  0.4112
  148SAPE  C21616364   5.049   1.627   8.377  0.6007 -0.2618  0.2084
  148SAPE  H16R16365   5.139   1.681   8.341 -0.4273  0.2696 -1.7001
  148SAPE  H16S16366   4.968   1.704   8.381  0.6626 -0.2348  1.4838
  148SAPE  C21716367   5.019   1.524   8.264 -0.6818  0.2265  0.2141
  148SAPE  H17R16368   5.010   1.565   8.161 -5.8485 -1.5201 -0.3134
  148SAPE  H17S16369   4.921   1.482   8.296 -0.4842 -1.0216 -0.7342
  148SAPE  C21816370   5.123   1.405   8.270  0.1212 -0.6467 -0.0443
  148SAPE  H18R16371   5.122   1.344   8.363  0.1144 -1.1730 -0.3877
  148SAPE  H18S16372   5.221   1.456   8.268  0.4873 -1.3328 -2.7604
  148SAPE  C21916373   5.109   1.315   8.149 -0.2858  0.5379 -0.1100
  148SAPE  H19R16374   5.206   1.265   8.129 -2.2153 -3.7398  0.1797
  148SAPE  H19S16375   5.079   1.369   8.057  1.5623  2.7175  0.4761
  148SAPE  C22016376   5.002   1.200   8.175  0.5191 -0.5504  0.3415
  148SAPE  H20R16377   4.991   1.142   8.081 -2.6621 -1.5726  1.2103
  148SAPE  H20S16378   4.909   1.248   8.210  1.3271  0.7898  0.7197
  148SAPE  H20T16379   5.034   1.130   8.256 -2.8982 -0.9305  1.5194
  148SAPE   C3316380   4.945   1.888   9.795  0.3675 -0.7321  0.5080
  148SAPE   H3X16381   4.940   1.971   9.722 -0.3963  0.4139  1.8135
  148SAPE   H3Y16382   4.864   1.920   9.864  1.7604 -0.2556  1.9499
  148SAPE   C3416383   4.929   1.750   9.737  0.4216  0.1030 -0.1539
  148SAPE   H4X16384   4.921   1.677   9.820  1.0512 -0.8159 -0.8813
  148SAPE   H4Y16385   5.020   1.712   9.685  1.4631 -1.3207  2.5458
  148SAPE   C3516386   4.798   1.743   9.648 -0.4658  0.3318 -0.1600
  148SAPE   H5X16387   4.718   1.796   9.703 -0.0187 -1.1956  2.0608
  148SAPE   H5Y16388   4.770   1.642   9.612  0.2809  0.0961 -0.1110
  148SAPE   C3616389   4.813   1.830   9.524  0.7126  0.0782  0.2392
  148SAPE   H6X16390   4.905   1.805   9.468  0.6387  0.2179  0.0539
  148SAPE   H6Y16391   4.833   1.935   9.555  1.5599  1.2431 -3.6936
  148SAPE   C3716392   4.699   1.810   9.423  0.2775  0.2621 -0.6960
  148SAPE   H7X16393   4.698   1.706   9.385 -0.3363  0.8125 -2.2496
  148SAPE   H7Y16394   4.729   1.867   9.332  2.0496  0.1258 -0.2267
  148SAPE   C3816395   4.565   1.858   9.472 -0.5144 -0.5645 -0.3066
  148SAPE   H8X16396   4.559   1.968   9.478 -0.7747 -0.5706 -0.3982
  148SAPE   H8Y16397   4.556   1.823   9.577  1.2271 -1.3047 -0.3809
  148SAPE   C3916398   4.446   1.807   9.391 -0.4188 -0.3546  0.2762
  148SAPE   H9X16399   4.359   1.792   9.458  0.4583  1.8772  2.0138
  148SAPE   H9Y16400   4.464   1.702   9.357 -1.0716 -0.6130  0.6957
  148SAPE  C31016401   4.394   1.899   9.280  0.4508  0.0448 -0.4978
  148SAPE  H10X16402   4.467   1.918   9.199 -0.5476  2.9309 -0.8293
  148SAPE  H10Y16403   4.391   1.992   9.340 -0.0569 -1.5681  2.1772
  148SAPE  C31116404   4.252   1.872   9.227 -1.0018 -0.2648 -0.1980
  148SAPE  H11X16405   4.183   1.839   9.307 -1.7895  0.8830 -0.3768
  148SAPE  H11Y16406   4.249   1.779   9.167 -1.3250  0.2154 -0.9488
  148SAPE  C31216407   4.194   1.986   9.138 -1.1206 -0.2623 -0.0316
  148SAPE  H12X16408   4.278   2.015   9.071 -1.6577  0.8385 -0.2404
  148SAPE  H12Y16409   4.179   2.070   9.208 -0.9951 -0.7595  0.6028
  148SAPE  C31316410   4.048   1.953   9.091 -0.4184 -0.1556 -0.1325
  148SAPE  H13X16411   3.979   1.960   9.177  1.1763 -1.8575  1.3731
  148SAPE  H13Y16412   4.046   1.848   9.055 -0.6066  0.5139 -2.2117
  148SAPE  C31416413   4.020   2.038   8.965 -0.2351 -0.3562 -0.9087
  148SAPE  H14X16414   4.109   2.022   8.902  0.8521  5.5943 -1.4237
  148SAPE  H14Y16415   4.023   2.147   8.986  0.2371 -0.8319  1.9380
  148SAPE  C31516416   3.887   2.002   8.900  0.0169 -0.3597  0.3366
  148SAPE  H15X16417   3.812   2.076   8.938  0.6375 -0.9561  2.9485
  148SAPE  H15Y16418   3.863   1.900   8.937  2.3114 -2.0014 -2.3024
  148SAPE  C31616419   3.887   1.974   8.747 -0.2013 -0.4677 -0.5428
  148SAPE  H16X16420   3.963   1.898   8.719 -1.5892 -1.9224 -0.4578
  148SAPE  H16Y16421   3.913   2.068   8.693  2.0009 -0.8721 -0.2895
  148SAPE  C31716422   3.752   1.916   8.697 -0.4105 -0.6269 -0.4840
  148SAPE  H17X16423   3.684   1.995   8.734 -0.3930  0.5596 -2.8527
  148SAPE  H17Y16424   3.740   1.823   8.757 -0.5513 -0.2110  0.1503
  148SAPE  C31816425   3.736   1.911   8.548  0.6597  0.5464 -0.2069
  148SAPE  H18X16426   3.816   1.845   8.507 -0.6019 -2.5454  1.8887
  148SAPE  H18Y16427   3.744   2.007   8.493 -2.2811  0.5891 -0.7193
  148SAPE  H18Z16428   3.639   1.871   8.512  0.2788  0.5813  0.7595
  149SAPE     N16429   1.318   1.648  10.234  0.0147 -0.3251 -0.3300
  149SAPE   HN116430   1.261   1.564  10.211 -1.1895  0.2945  0.2641
  149SAPE   HN216431   1.374   1.635  10.320  1.6899 -0.3138 -1.3773
  149SAPE   HN316432   1.255   1.728  10.255  1.0786  0.0537  1.6609
  149SAPE   C1216433   1.406   1.700  10.125 -0.2913  0.3081  0.0357
  149SAPE  H12A16434   1.342   1.706  10.034 -0.5419 -1.4453  0.0502
  149SAPE  H12B16435   1.472   1.614  10.098 -0.1784  0.3128  0.2991
  149SAPE   C1116436   1.475   1.832  10.169 -0.3718 -0.5614  0.6395
  149SAPE  H11A16437   1.411   1.923  10.163  1.2954  0.5633 -1.4503
  149SAPE  H11B16438   1.558   1.849  10.097 -1.6183 -0.3740 -0.8080
  149SAPE     P16439   1.665   1.767  10.328  0.1598  0.1641  0.2345
  149SAPE   O1316440   1.763   1.880  10.331 -0.0660  0.3648 -0.2861
  149SAPE   O1416441   1.663   1.694  10.457 -0.4968  0.0559  0.4067
  149SAPE   O1216442   1.525   1.825  10.303  0.0035  0.5725  0.4520
  149SAPE   O1116443   1.689   1.671  10.207  0.1275  0.5413 -0.4227
  149SAPE    C116444   1.818   1.670  10.143 -0.1643 -0.2820 -0.9653
  149SAPE    HA16445   1.881   1.761  10.151  1.4120 -1.3449 -0.8307
  149SAPE    HB16446   1.881   1.591  10.190  1.2900  1.3885  0.0363
  149SAPE    C216447   1.797   1.612   9.996 -0.7640 -1.0959  0.1650
  149SAPE    HS16448   1.895   1.580   9.957 -0.8821 -1.3878  0.1096
  149SAPE   O2116449   1.727   1.708   9.918 -0.2686  0.0756  0.0961
  149SAPE   C2116450   1.799   1.816   9.889 -0.0374  0.6923  0.3185
  149SAPE   O2216451   1.913   1.840   9.922  0.2400  0.0170  0.1264
  149SAPE   C2216452   1.712   1.907   9.798  0.1328  0.3084  0.5778
  149SAPE   H2R16453   1.616   1.856   9.777  0.4171  0.3076 -0.8435
  149SAPE   H2S16454   1.687   2.005   9.844 -1.5772 -0.2564  0.9125
  149SAPE    C316455   1.719   1.478  10.011  0.2799 -0.5140 -0.1539
  149SAPE    HX16456   1.618   1.502  10.050  0.1756 -1.3350  0.1148
  149SAPE    HY16457   1.766   1.414  10.089 -0.4925  1.3052  1.9186
  149SAPE   O3116458   1.718   1.416   9.885  0.5959  0.1680 -0.4010
  149SAPE   C3116459   1.655   1.291   9.883 -1.0269  0.3488  0.2183
  149SAPE   O3216460   1.609   1.238   9.982 -0.2469 -0.9827  0.4898
  149SAPE   C3216461   1.652   1.238   9.741 -0.0843 -0.2643 -0.0629
  149SAPE   H2X16462   1.736   1.271   9.676 -0.8008  0.2234 -0.7615
  149SAPE   H2Y16463   1.555   1.274   9.699 -0.6640  1.2031  2.3527
  149SAPE   C2316464   1.762   1.924   9.655 -0.4359 -0.5100  0.1801
  149SAPE   H3R16465   1.852   1.989   9.659 -1.1510  0.4711  0.8170
  149SAPE   H3S16466   1.686   1.965   9.586 -0.2418  0.1194  0.3329
  149SAPE   C2416467   1.813   1.789   9.593  0.3977  0.1869 -0.0754
  149SAPE   H4R16468   1.900   1.751   9.650  0.9307 -1.0879 -1.6546
  149SAPE   H4S16469   1.859   1.813   9.494 -0.9597  1.4221 -0.4414
  149SAPE   C2516470   1.704   1.675   9.586 -0.3934 -0.5675  0.2170
  149SAPE   H5R16471   1.639   1.674   9.675  0.1065 -1.0099  0.5832
  149SAPE   C2616472   1.680   1.591   9.483 -0.5952  0.0859 -0.3814
  149SAPE   H6R16473   1.610   1.507   9.497  1.7451 -1.7056  1.0933
  149SAPE   C2716474   1.761   1.586   9.357  0.2023 -0.1048 -0.0605
  149SAPE   H7R16475   1.846   1.517   9.375 -0.4194 -0.8315  0.1232
  149SAPE   H7S16476   1.818   1.679   9.332  4.6432 -2.0932  1.5814
  149SAPE   C2816477   1.675   1.535   9.240 -0.8274  0.9981 -0.0192
  149SAPE   H8R16478   1.652   1.607   9.160 -1.3242  0.4517 -0.3802
  149SAPE   C2916479   1.650   1.398   9.222 -0.8093 -0.2780 -0.0203
  149SAPE   H9R16480   1.575   1.373   9.145 -0.1868 -1.4496 -0.2652
  149SAPE  C21016481   1.694   1.286   9.311 -0.1725 -0.1351  0.2996
  149SAPE  H10R16482   1.610   1.237   9.365 -1.4810 -2.7482 -3.7010
  149SAPE  H10S16483   1.757   1.318   9.397 -1.1222  0.4319  0.8006
  149SAPE  C21116484   1.780   1.187   9.242  0.2842 -0.3643  0.8094
  149SAPE  H11R16485   1.887   1.190   9.269  0.4146  0.0746  0.2560
  149SAPE  C21216486   1.741   1.095   9.148  0.0741 -0.0029 -0.0813
  149SAPE  H12R16487   1.808   1.026   9.095 -1.8229 -2.6294  0.7526
  149SAPE  C21316488   1.600   1.071   9.081 -0.2901 -0.2169  0.0503
  149SAPE  H13R16489   1.518   1.122   9.135  1.0197 -1.9036  4.0062
  149SAPE  H13S16490   1.576   0.963   9.079 -0.6328 -0.1795  1.2588
  149SAPE  C21416491   1.589   1.108   8.936  0.3289 -0.4177 -0.6770
  149SAPE  H14R16492   1.522   1.194   8.919 -0.5836 -1.1746 -1.0161
  149SAPE  C21516493   1.645   1.044   8.826  0.3101  0.5856  0.4384
  149SAPE  H15R16494   1.632   1.086   8.725  1.5711  0.7008  0.3090
  149SAPE  C21616495   1.742   0.926   8.834  0.1846 -0.6786  0.0771
  149SAPE  H16R16496   1.772   0.902   8.938 -2.4968 -1.5952  0.7215
  149SAPE  H16S16497   1.836   0.942   8.776 -0.0342  0.0795 -0.0747
  149SAPE  C21716498   1.666   0.793   8.785 -0.2294 -0.4868 -0.1602
  149SAPE  H17R16499   1.576   0.770   8.846  0.6283 -0.6368  1.0835
  149SAPE  H17S16500   1.737   0.711   8.806  0.0824 -1.3776 -4.0545
  149SAPE  C21816501   1.625   0.791   8.635  0.1027 -0.1077 -0.1218
  149SAPE  H18R16502   1.713   0.834   8.582 -0.2781 -0.9730 -1.5218
  149SAPE  H18S16503   1.544   0.867   8.624  0.4262  0.4573  1.2466
  149SAPE  C21916504   1.579   0.662   8.570  0.4731  0.0388 -0.9477
  149SAPE  H19R16505   1.556   0.700   8.469  0.4835  1.3565 -0.4741
  149SAPE  H19S16506   1.486   0.631   8.623  0.1091 -0.3763 -1.8119
  149SAPE  C22016507   1.673   0.542   8.572 -0.4248  0.0119  0.1530
  149SAPE  H20R16508   1.687   0.542   8.682  3.5667 -3.0711 -0.1550
  149SAPE  H20S16509   1.772   0.556   8.523  0.0343 -3.1798 -0.0144
  149SAPE  H20T16510   1.619   0.454   8.531 -0.4828  1.5004 -3.3297
  149SAPE   C3316511   1.650   1.077   9.734  0.2308  0.0368  0.0629
  149SAPE   H3X16512   1.560   1.042   9.789  0.4459 -1.7679 -0.6425
  149SAPE   H3Y16513   1.741   1.043   9.789  1.0508 -0.7444 -1.6888
  149SAPE   C3416514   1.650   1.036   9.590 -0.5404 -0.4704 -0.4924
  149SAPE   H4X16515   1.756   1.036   9.557 -0.3766 -0.9010  0.0322
  149SAPE   H4Y16516   1.592   1.101   9.520  0.1760 -0.7524 -1.3651
  149SAPE   C3516517   1.605   0.892   9.579 -0.3982  0.0742 -0.2858
  149SAPE   H5X16518   1.503   0.883   9.621 -0.1914 -0.2386  0.1513
  149SAPE   H5Y16519   1.672   0.822   9.632 -0.8862  0.4446  0.8552
  149SAPE   C3616520   1.607   0.857   9.428  0.3208  0.3029  0.3428
  149SAPE   H6X16521   1.711   0.836   9.397 -0.0766 -1.7212  0.2574
  149SAPE   H6Y16522   1.588   0.945   9.362  0.3952 -0.0897 -0.2062
  149SAPE   C3716523   1.526   0.729   9.396  0.4606  0.2081  0.2053
  149SAPE   H7X16524   1.429   0.729   9.450 -0.5583 -0.2575 -1.5482
  149SAPE   H7Y16525   1.582   0.636   9.420  0.0788  0.3669  1.7838
  149SAPE   C3816526   1.481   0.708   9.250  0.5057 -0.2786 -0.5965
  149SAPE   H8X16527   1.570   0.674   9.193 -0.4724 -1.3232 -1.5758
  149SAPE   H8Y16528   1.445   0.806   9.212  0.4080 -1.0808 -2.7399
  149SAPE   C3916529   1.374   0.602   9.214  0.3008 -0.3565 -0.7044
  149SAPE   H9X16530   1.289   0.626   9.281 -0.3694 -1.3216 -1.1791
  149SAPE   H9Y16531   1.408   0.498   9.237  3.6307  0.9736  1.0152
  149SAPE  C31016532   1.332   0.613   9.067 -0.1113  0.4238 -0.0059
  149SAPE  H10X16533   1.423   0.596   9.006  0.4054  1.8537  0.3161
  149SAPE  H10Y16534   1.311   0.721   9.053 -3.1742 -0.2581 -1.5629
  149SAPE  C31116535   1.230   0.511   9.026 -0.0169  0.5340 -0.0807
  149SAPE  H11X16536   1.132   0.555   9.052 -0.9894 -0.1848 -2.3390
  149SAPE  H11Y16537   1.237   0.415   9.083 -2.7600  0.7564  0.7517
  149SAPE  C31216538   1.230   0.483   8.875  0.1797  0.4493  0.0691
  149SAPE  H12X16539   1.145   0.414   8.856  1.6288 -1.5746  0.5689
  149SAPE  H12Y16540   1.316   0.414   8.862 -2.0547 -2.7294  0.9478
  149SAPE  C31316541   1.228   0.607   8.781  0.1753  0.3744 -0.5503
  149SAPE  H13X16542   1.334   0.632   8.761  0.4212 -0.3297 -0.1787
  149SAPE  H13Y16543   1.175   0.685   8.840 -1.7752 -1.4687  0.3074
  149SAPE  C31416544   1.148   0.578   8.656 -0.1502 -0.9494  0.6923
  149SAPE  H14X16545   1.041   0.550   8.671 -0.7956  1.8847  2.1040
  149SAPE  H14Y16546   1.196   0.487   8.613 -1.4036 -1.3755  0.1361
  149SAPE  C31516547   1.143   0.703   8.558 -0.4240 -0.3158 -0.7902
  149SAPE  H15X16548   1.250   0.732   8.543 -1.0004  0.9727 -2.7033
  149SAPE  H15Y16549   1.087   0.786   8.606  0.7582  0.2787 -0.3724
  149SAPE  C31616550   1.084   0.676   8.422  0.1825 -0.2738  0.1408
  149SAPE  H16X16551   1.076   0.767   8.359  2.6315 -0.3049 -0.3315
  149SAPE  H16Y16552   0.991   0.616   8.435  0.0562  0.2386  1.7568
  149SAPE  C31716553   1.169   0.593   8.331 -0.4867  0.7758  0.5307
  149SAPE  H17X16554   1.207   0.498   8.375 -1.0922 -1.0066 -2.5119
  149SAPE  H17Y16555   1.255   0.655   8.298  0.8595  0.0555  2.4753
  149SAPE  C31816556   1.093   0.564   8.201  0.1556  0.3883 -0.0586
  149SAPE  H18X16557   1.043   0.465   8.208  2.4607 -0.8245  0.6291
  149SAPE  H18Y16558   1.168   0.547   8.121  0.4513 -1.5694  0.5654
  149SAPE  H18Z16559   1.011   0.636   8.183  0.9951  1.2482 -0.4854
  150SAPE     N16560   2.896   3.510  11.083 -0.0495 -0.3161 -0.3115
  150SAPE   HN116561   2.966   3.442  11.048  0.0544 -0.4674  0.1825
  150SAPE   HN216562   2.947   3.597  11.108  0.0754  0.4767 -2.9672
  150SAPE   HN316563   2.847   3.463  11.162 -1.4557 -0.8905 -1.4649
  150SAPE   C1216564   2.803   3.545  10.975  0.5482  0.1634 -0.3711
  150SAPE  H12A16565   2.733   3.625  11.010  2.9908  1.5185  1.7841
  150SAPE  H12B16566   2.746   3.452  10.958 -1.2732  1.1978 -0.2440
  150SAPE   C1116567   2.873   3.570  10.843 -0.0102 -0.1117 -0.1570
  150SAPE  H11A16568   2.905   3.676  10.850 -2.7950  0.9532 -1.9579
  150SAPE  H11B16569   2.797   3.567  10.762 -0.9748  1.9697  0.6185
  150SAPE     P16570   3.130   3.531  10.784  0.4593 -0.2010 -0.0533
  150SAPE   O1316571   3.173   3.641  10.877  0.0905  0.6031 -0.3812
  150SAPE   O1416572   3.229   3.422  10.761 -0.0623 -0.3641 -0.2411
  150SAPE   O1216573   2.987   3.476  10.828  0.0499  0.2385 -0.1540
  150SAPE   O1116574   3.084   3.593  10.648 -0.9282  0.4097 -0.2317
  150SAPE    C116575   3.181   3.683  10.593  1.2212  0.9095  0.2587
  150SAPE    HA16576   3.194   3.773  10.657  1.0225  0.3210  1.1477
  150SAPE    HB16577   3.277   3.628  10.581  0.8402  0.7434 -2.8208
  150SAPE    C216578   3.144   3.733  10.455  0.1593  0.5013  0.5013
  150SAPE    HS16579   3.194   3.831  10.441 -0.9995  0.8012 -2.3670
  150SAPE   O2116580   3.006   3.752  10.438  0.3381 -0.2790 -0.2473
  150SAPE   C2116581   2.951   3.866  10.491  0.0890  0.6146  0.3670
  150SAPE   O2216582   3.006   3.939  10.569  0.0071 -0.5777  0.1903
  150SAPE   C2216583   2.804   3.893  10.434 -0.2410 -0.0061  0.4191
  150SAPE   H2R16584   2.746   3.914  10.527 -0.5781 -0.2337  0.2580
  150SAPE   H2S16585   2.800   3.986  10.374 -2.6922  0.1698  0.7508
  150SAPE    C316586   3.200   3.633  10.357 -0.4352  0.1388 -0.1820
  150SAPE    HX16587   3.195   3.529  10.394  0.2399 -0.4397 -1.6382
  150SAPE    HY16588   3.308   3.655  10.348 -0.5593  0.3170 -1.6297
  150SAPE   O3116589   3.133   3.634  10.225 -0.8344 -0.5081  0.2335
  150SAPE   C3116590   3.027   3.552  10.205 -0.2076  0.2333 -0.1216
  150SAPE   O3216591   2.985   3.465  10.285 -0.3366  0.3472 -0.2280
  150SAPE   C3216592   2.982   3.574  10.058  0.3178 -0.1949 -0.4948
  150SAPE   H2X16593   3.076   3.575   9.999  0.0705  0.2229 -0.8928
  150SAPE   H2Y16594   2.934   3.675  10.056  0.8616  0.0823  0.0675
  150SAPE   C2316595   2.753   3.779  10.337 -0.3437 -0.1324 -0.0053
  150SAPE   H3R16596   2.759   3.681  10.389 -2.5073 -0.0417  0.5061
  150SAPE   H3S16597   2.826   3.771  10.254 -1.2306  0.7264 -0.8958
  150SAPE   C2416598   2.618   3.794  10.274 -0.1346  0.5092  0.6640
  150SAPE   H4R16599   2.604   3.900  10.244 -2.2542 -0.0072 -0.3691
  150SAPE   H4S16600   2.538   3.788  10.350  0.9858 -1.4884  1.7635
  150SAPE   C2516601   2.574   3.697  10.164 -0.7967 -0.2876  0.3323
  150SAPE   H5R16602   2.551   3.597  10.203 -0.1029 -0.7980 -0.5282
  150SAPE   C2616603   2.567   3.720  10.034 -0.3934  0.0500  0.7766
  150SAPE   H6R16604   2.538   3.630   9.978 -0.8843  1.2138 -0.9031
  150SAPE   C2716605   2.602   3.838   9.954  0.1993  0.0102  0.2454
  150SAPE   H7R16606   2.616   3.801   9.850 -1.2012  1.3297 -0.4531
  150SAPE   H7S16607   2.702   3.877   9.984 -0.4880  1.1682  1.1031
  150SAPE   C2816608   2.501   3.950   9.952  0.0164 -0.3251 -0.2340
  150SAPE   H8R16609   2.527   4.041  10.009  0.1436 -1.4055  1.4803
  150SAPE   C2916610   2.389   3.954   9.880  0.0943  0.0472  0.2405
  150SAPE   H9R16611   2.344   4.054   9.875  0.6119  0.2599 -0.1187
  150SAPE  C21016612   2.338   3.836   9.797  0.2727  0.0037 -0.4388
  150SAPE  H10R16613   2.227   3.831   9.797  0.3130 -1.7744  1.1447
  150SAPE  H10S16614   2.368   3.738   9.839  2.4369  0.7760 -0.0590
  150SAPE  C21116615   2.394   3.839   9.661 -0.3598 -0.2973 -0.3386
  150SAPE  H11R16616   2.496   3.801   9.646  0.0741  0.5508  0.3531
  150SAPE  C21216617   2.331   3.854   9.547  0.1742 -0.1760 -0.4511
  150SAPE  H12R16618   2.396   3.874   9.461  1.5790  0.1990  0.6504
  150SAPE  C21316619   2.189   3.881   9.521 -0.0136 -0.0954  0.3925
  150SAPE  H13R16620   2.176   3.924   9.419 -2.3019 -0.9039  0.2833
  150SAPE  H13S16621   2.152   3.953   9.597  1.1417  0.2841  0.6198
  150SAPE  C21416622   2.114   3.748   9.530  0.5762  0.4429  0.0843
  150SAPE  H14R16623   2.134   3.678   9.612  0.6337 -0.2144 -0.4765
  150SAPE  C21516624   2.022   3.701   9.441 -0.1838 -0.5306 -0.0668
  150SAPE  H15R16625   1.988   3.597   9.451  0.1034 -0.7940 -1.5807
  150SAPE  C21616626   1.975   3.782   9.322  0.3371  0.3550  0.5010
  150SAPE  H16R16627   1.973   3.892   9.337 -1.1272  0.1253  2.3188
  150SAPE  H16S16628   1.873   3.759   9.287  1.2656 -0.1334 -2.0817
  150SAPE  C21716629   2.066   3.747   9.195 -0.0190  0.1329  0.6131
  150SAPE  H17R16630   2.012   3.788   9.108 -1.1756 -2.3369  0.0680
  150SAPE  H17S16631   2.060   3.636   9.188 -1.2414  0.1547  1.0244
  150SAPE  C21816632   2.216   3.781   9.205  0.3515 -0.4114 -0.1256
  150SAPE  H18R16633   2.258   3.722   9.289 -0.5389 -0.9570 -0.0606
  150SAPE  H18S16634   2.221   3.891   9.221 -3.6285  0.4277 -3.1225
  150SAPE  C21916635   2.287   3.733   9.079 -0.7086 -0.1894  0.0310
  150SAPE  H19R16636   2.284   3.622   9.075 -1.3741 -0.1350 -1.6896
  150SAPE  H19S16637   2.396   3.752   9.086 -0.5495 -1.4340  1.6154
  150SAPE  C22016638   2.243   3.795   8.946  0.3356  0.5925  0.3592
  150SAPE  H20R16639   2.308   3.769   8.861 -0.8130 -0.4943 -0.2181
  150SAPE  H20S16640   2.242   3.906   8.949 -2.1568  0.6987 -1.3682
  150SAPE  H20T16641   2.137   3.767   8.929 -0.6087  2.5493  2.4248
  150SAPE   C3316642   2.881   3.477  10.008  0.5492  0.3944 -0.0371
  150SAPE   H3X16643   2.790   3.488  10.070  0.6644 -3.3387  1.0763
  150SAPE   H3Y16644   2.918   3.373  10.023 -0.9953 -0.1630  0.1209
  150SAPE   C3416645   2.839   3.492   9.865 -0.1816 -0.3816  0.0861
  150SAPE   H4X16646   2.929   3.488   9.800  0.4095  0.7043  0.7959
  150SAPE   H4Y16647   2.791   3.589   9.840  2.0465  0.6303 -0.5047
  150SAPE   C3516648   2.732   3.391   9.816  0.5928 -0.5725  0.0639
  150SAPE   H5X16649   2.651   3.392   9.891  0.1544  2.4630 -0.3461
  150SAPE   H5Y16650   2.769   3.286   9.826  0.5939 -0.5065  0.7576
  150SAPE   C3616651   2.670   3.412   9.670  0.4079  0.2460  0.3246
  150SAPE   H6X16652   2.594   3.491   9.660 -0.0886 -0.4286 -1.8617
  150SAPE   H6Y16653   2.615   3.323   9.633  2.6384 -0.6287 -1.1235
  150SAPE   C3716654   2.775   3.453   9.568 -0.0109 -0.1197  0.6215
  150SAPE   H7X16655   2.852   3.373   9.573  0.5086  0.4144  1.6136
  150SAPE   H7Y16656   2.826   3.549   9.593 -0.1443  0.0857  0.0990
  150SAPE   C3816657   2.718   3.459   9.430  0.4773 -0.5745 -0.5256
  150SAPE   H8X16658   2.624   3.402   9.420  0.2969 -0.3652 -0.0544
  150SAPE   H8Y16659   2.793   3.426   9.354  0.0968  1.2589 -1.7759
  150SAPE   C3916660   2.687   3.610   9.403  0.1503 -0.1886 -0.1975
  150SAPE   H9X16661   2.777   3.674   9.416  0.0307  0.3443 -1.7881
  150SAPE   H9Y16662   2.606   3.639   9.474 -0.4132 -0.2691 -0.7967
  150SAPE  C31016663   2.647   3.646   9.256  0.3391 -0.3979  0.5109
  150SAPE  H10X16664   2.650   3.757   9.250  0.2694 -0.2532  2.4886
  150SAPE  H10Y16665   2.541   3.619   9.239  0.5407 -0.4192 -0.8455
  150SAPE  C31116666   2.745   3.581   9.146 -0.3492 -0.4679  0.1320
  150SAPE  H11X16667   2.720   3.475   9.127 -1.3354  0.1874 -2.6603
  150SAPE  H11Y16668   2.851   3.580   9.180  0.0445  1.3739 -0.9217
  150SAPE  C31216669   2.725   3.658   9.015  0.0852 -0.3670  0.2673
  150SAPE  H12X16670   2.774   3.757   9.025 -0.7876  0.0020  0.9757
  150SAPE  H12Y16671   2.616   3.675   9.011  0.0316 -0.5043  0.9537
  150SAPE  C31316672   2.780   3.571   8.897 -0.1497  0.1090  0.0868
  150SAPE  H13X16673   2.717   3.480   8.886 -2.6050  1.7451 -0.2077
  150SAPE  H13Y16674   2.879   3.539   8.937 -1.2087 -0.1232  2.6816
  150SAPE  C31416675   2.798   3.655   8.771 -0.3354 -0.4326  0.0696
  150SAPE  H14X16676   2.834   3.581   8.696 -2.1048 -1.4215  0.1440
  150SAPE  H14Y16677   2.875   3.735   8.781  0.7739 -1.4209 -0.2613
  150SAPE  C31516678   2.659   3.712   8.721 -0.5483  0.2805 -0.8813
  150SAPE  H15X16679   2.668   3.778   8.632  2.9691 -0.2936 -1.0832
  150SAPE  H15Y16680   2.621   3.785   8.795 -1.4265 -0.4146 -0.6252
  150SAPE  C31616681   2.554   3.600   8.709 -0.8706  0.5612  1.0014
  150SAPE  H16X16682   2.460   3.655   8.686 -1.5953  1.0621  4.6203
  150SAPE  H16Y16683   2.548   3.544   8.805 -1.5838  2.4833  2.1387
  150SAPE  C31716684   2.592   3.496   8.598  0.6662 -0.7286  0.6004
  150SAPE  H17X16685   2.689   3.456   8.634  1.0566  0.9889  1.5743
  150SAPE  H17Y16686   2.606   3.543   8.498  0.5047  0.4758  1.1275
  150SAPE  C31816687   2.497   3.375   8.598  0.2028 -0.1431 -0.3008
  150SAPE  H18X16688   2.546   3.298   8.534  1.1807 -1.8120  2.3144
  150SAPE  H18Y16689   2.396   3.393   8.555  1.0085  0.9633 -1.8326
  150SAPE  H18Z16690   2.486   3.332   8.700 -1.6272 -1.4704 -0.9997
  151SAPE     N16691   2.120   6.559  10.164 -0.6555  0.2477 -0.1710
  151SAPE   HN116692   2.037   6.623  10.165 -1.2835 -0.5482 -0.4219
  151SAPE   HN216693   2.120   6.505  10.253  1.8574  0.5843  0.0918
  151SAPE   HN316694   2.206   6.617  10.165 -0.2221 -0.3696 -1.2358
  151SAPE   C1216695   2.107   6.479  10.048  0.2157  0.7613  0.6020
  151SAPE  H12A16696   2.177   6.396  10.072  2.4845  1.5206 -2.6587
  151SAPE  H12B16697   2.152   6.536   9.963  2.5289 -2.3719 -0.4804
  151SAPE   C1116698   1.959   6.433  10.026  0.0842 -0.2974 -0.5655
  151SAPE  H11A16699   1.962   6.365   9.938  1.5030 -0.3142 -0.5315
  151SAPE  H11B16700   1.889   6.517  10.009 -1.8874 -1.9324 -0.9623
  151SAPE     P16701   1.752   6.365  10.177  0.2090 -0.7001  0.0565
  151SAPE   O1316702   1.712   6.228  10.221 -0.9283  0.0298  0.6977
  151SAPE   O1416703   1.728   6.481  10.271  0.6538  0.3104 -0.3327
  151SAPE   O1216704   1.911   6.362  10.142 -0.6619  0.1701  0.0617
  151SAPE   O1116705   1.680   6.386  10.045  0.2938 -0.3112  0.2314
  151SAPE    C116706   1.616   6.290   9.964  0.0179 -0.9107  0.3681
  151SAPE    HA16707   1.620   6.189  10.009  0.7031 -0.8945  0.3590
  151SAPE    HB16708   1.509   6.322   9.966  0.4146  0.5549 -0.2061
  151SAPE    C216709   1.662   6.302   9.824 -0.0523 -0.1067 -0.6393
  151SAPE    HS16710   1.586   6.240   9.772 -0.6272 -0.1826  0.2746
  151SAPE   O2116711   1.791   6.238   9.807 -0.0694 -0.6284 -0.5938
  151SAPE   C2116712   1.805   6.113   9.847  0.6903 -0.3855  0.8402
  151SAPE   O2216713   1.710   6.032   9.854 -0.2293 -0.2056 -0.0127
  151SAPE   C2216714   1.956   6.070   9.863 -0.4189  0.1150 -0.0368
  151SAPE   H2R16715   2.016   6.163   9.853 -2.4193  1.5490  0.7183
  151SAPE   H2S16716   1.972   6.021   9.961 -2.3624 -3.1930 -1.2024
  151SAPE    C316717   1.673   6.452   9.777 -0.0561 -0.4627  0.2745
  151SAPE    HX16718   1.773   6.479   9.819  0.1514 -1.9690  0.8180
  151SAPE    HY16719   1.593   6.518   9.817 -0.8584 -0.7375 -0.8321
  151SAPE   O3116720   1.689   6.446   9.635  0.3098  0.0387  0.3479
  151SAPE   C3116721   1.587   6.459   9.555  0.2318 -0.3998  0.0315
  151SAPE   O3216722   1.464   6.461   9.583 -0.5150 -0.0813  0.2605
  151SAPE   C3216723   1.639   6.502   9.418  0.9916 -0.2318 -0.1165
  151SAPE   H2X16724   1.683   6.414   9.366  0.3110  1.0956 -3.1896
  151SAPE   H2Y16725   1.720   6.577   9.428  1.6912 -1.1955  1.8577
  151SAPE   C2316726   1.998   5.961   9.759  0.0002  0.0571 -0.0389
  151SAPE   H3R16727   1.915   5.894   9.728 -0.2345 -0.2516  1.2116
  151SAPE   H3S16728   2.092   5.910   9.789  1.3673  0.5463 -3.0889
  151SAPE   C2416729   2.043   6.033   9.628  0.2567 -0.0492  0.0591
  151SAPE   H4R16730   2.111   5.967   9.571 -0.0750  0.3877 -0.8624
  151SAPE   H4S16731   2.106   6.119   9.662 -0.3229 -0.8248  3.3787
  151SAPE   C2516732   1.934   6.080   9.537 -0.3888 -0.9489 -0.0296
  151SAPE   H5R16733   1.854   6.146   9.571 -1.5406 -2.9305  1.3306
  151SAPE   C2616734   1.923   6.045   9.404  0.5079  0.5247 -1.7065
  151SAPE   H6R16735   1.847   6.103   9.350  0.5786  1.1851 -1.1102
  151SAPE   C2716736   2.022   5.976   9.313  0.4909  0.5312  0.1952
  151SAPE   H7R16737   1.968   5.980   9.216 -1.4227  0.5428  1.2177
  151SAPE   H7S16738   2.021   5.866   9.331  0.8711 -0.0784 -2.9137
  151SAPE   C2816739   2.162   6.022   9.306  0.3712  0.2693  0.6946
  151SAPE   H8R16740   2.184   6.108   9.372  0.4034  0.3228  0.6141
  151SAPE   C2916741   2.261   5.979   9.230 -0.0363  0.1902 -0.8216
  151SAPE   H9R16742   2.360   6.024   9.251 -0.1893 -0.2940  1.0996
  151SAPE  C21016743   2.259   5.854   9.150 -0.0336 -0.2998  0.0509
  151SAPE  H10R16744   2.165   5.844   9.092 -1.0139  0.4802  1.4543
  151SAPE  H10S16745   2.269   5.766   9.217  0.5530  0.3887  0.8952
  151SAPE  C21116746   2.373   5.843   9.043  0.4300 -0.0761 -0.5111
  151SAPE  H11R16747   2.465   5.895   9.075 -0.7101  1.2621  0.7176
  151SAPE  C21216748   2.372   5.782   8.921  0.2206 -0.6579 -0.2085
  151SAPE  H12R16749   2.451   5.797   8.846 -1.3785  1.7162 -1.5620
  151SAPE  C21316750   2.248   5.726   8.856 -0.0590  0.3158 -0.5000
  151SAPE  H13R16751   2.177   5.696   8.937 -0.7258  0.7931 -0.8963
  151SAPE  H13S16752   2.263   5.632   8.799 -2.7146 -0.6376  0.2043
  151SAPE  C21416753   2.189   5.825   8.760  0.2986 -0.5687  0.9341
  151SAPE  H14R16754   2.106   5.889   8.793  1.7984  0.9978  1.8513
  151SAPE  C21516755   2.245   5.850   8.638 -0.4369 -0.8062 -0.4012
  151SAPE  H15R16756   2.203   5.909   8.556  0.2839 -0.9974 -0.9207
  151SAPE  C21616757   2.367   5.785   8.584  0.1081 -0.4246 -0.9129
  151SAPE  H16R16758   2.340   5.749   8.483 -1.8627 -0.5412 -0.3859
  151SAPE  H16S16759   2.397   5.690   8.635  1.2171 -0.7684 -2.1617
  151SAPE  C21716760   2.485   5.880   8.567 -0.0063 -0.0551 -0.6155
  151SAPE  H17R16761   2.571   5.826   8.522  1.1775  1.8727 -0.7605
  151SAPE  H17S16762   2.513   5.929   8.663 -0.6043 -0.5819 -0.1576
  151SAPE  C21816763   2.449   5.988   8.459 -0.5218  0.0082 -0.6495
  151SAPE  H18R16764   2.541   6.050   8.456 -0.8065  0.4795  0.1340
  151SAPE  H18S16765   2.367   6.052   8.497 -0.2569 -0.0973  0.1117
  151SAPE  C21916766   2.425   5.923   8.319  0.1971 -0.1319  0.6239
  151SAPE  H19R16767   2.318   5.893   8.312 -1.0911  3.1708  3.2646
  151SAPE  H19S16768   2.497   5.839   8.308  0.8501  0.3530  1.1358
  151SAPE  C22016769   2.455   6.026   8.212 -0.2049  0.0822  0.3425
  151SAPE  H20R16770   2.395   6.119   8.217 -0.6456 -0.1512 -0.3579
  151SAPE  H20S16771   2.445   5.973   8.115  0.3396  2.8026 -1.3342
  151SAPE  H20T16772   2.558   6.064   8.231  0.0568 -0.4442  0.0061
  151SAPE   C3316773   1.526   6.547   9.316 -0.3859 -0.4747 -0.0974
  151SAPE   H3X16774   1.487   6.647   9.342 -0.9040 -0.6653 -0.1254
  151SAPE   H3Y16775   1.433   6.488   9.329 -0.5345  0.2360  2.4609
  151SAPE   C3416776   1.584   6.564   9.179  0.1850  0.1450  0.9573
  151SAPE   H4X16777   1.622   6.463   9.152 -0.1758  0.5365 -1.2040
  151SAPE   H4Y16778   1.661   6.643   9.182  0.9807 -0.6432  2.5847
  151SAPE   C3516779   1.484   6.617   9.082  0.4339 -0.0545  0.5795
  151SAPE   H5X16780   1.447   6.712   9.127  1.2413 -0.3164  1.8736
  151SAPE   H5Y16781   1.395   6.551   9.081  1.8165 -2.0083  0.3010
  151SAPE   C3616782   1.546   6.646   8.944  0.1467  0.3271 -0.5499
  151SAPE   H6X16783   1.614   6.732   8.964  0.3863 -0.1849  0.9801
  151SAPE   H6Y16784   1.459   6.674   8.880 -0.1469 -2.2579 -1.3907
  151SAPE   C3716785   1.611   6.527   8.874 -0.2256  0.7257  0.0707
  151SAPE   H7X16786   1.530   6.451   8.886 -0.1697  0.4545 -1.1477
  151SAPE   H7Y16787   1.700   6.501   8.935 -0.7301  1.6308  1.2467
  151SAPE   C3816788   1.625   6.540   8.718 -0.5496 -0.9656 -0.1219
  151SAPE   H8X16789   1.713   6.480   8.684  1.1898  1.7764 -0.8161
  151SAPE   H8Y16790   1.652   6.648   8.708 -0.3430 -0.8139  1.8017
  151SAPE   C3916791   1.497   6.501   8.641 -0.3740  0.0956  0.2821
  151SAPE   H9X16792   1.411   6.540   8.699  0.0616 -1.3994  2.0385
  151SAPE   H9Y16793   1.486   6.391   8.637  0.0787  0.0250  0.8632
  151SAPE  C31016794   1.492   6.561   8.503 -0.3567  0.2018  0.0849
  151SAPE  H10X16795   1.576   6.631   8.488 -0.0875  0.3756  2.0583
  151SAPE  H10Y16796   1.395   6.613   8.489 -1.4447 -1.6497  0.4389
  151SAPE  C31116797   1.513   6.455   8.385 -0.4043  0.0010 -0.1279
  151SAPE  H11X16798   1.481   6.501   8.289  0.4655 -1.8408 -1.3577
  151SAPE  H11Y16799   1.441   6.377   8.417 -2.3679  0.9758 -1.9369
  151SAPE  C31216800   1.652   6.395   8.375 -0.2300  0.3191 -0.3313
  151SAPE  H12X16801   1.687   6.376   8.478 -0.8023 -0.5795 -0.2869
  151SAPE  H12Y16802   1.727   6.467   8.337  0.9678  0.1435  1.5873
  151SAPE  C31316803   1.655   6.278   8.273 -0.0915 -0.2754  1.0303
  151SAPE  H13X16804   1.645   6.326   8.173  0.3016  0.9511  1.5551
  151SAPE  H13Y16805   1.571   6.208   8.290 -1.0576  0.7945  0.7544
  151SAPE  C31416806   1.788   6.209   8.284  0.8758 -0.4245 -0.0697
  151SAPE  H14X16807   1.824   6.210   8.389  1.0108  1.2931 -0.1071
  151SAPE  H14Y16808   1.869   6.245   8.218  2.1747 -1.7388  0.7489
  151SAPE  C31516809   1.765   6.063   8.244  0.1716  0.4135  0.5523
  151SAPE  H15X16810   1.741   6.047   8.137 -0.9917  0.3892  0.8074
  151SAPE  H15Y16811   1.682   6.022   8.306 -1.0819  1.0314 -0.6635
  151SAPE  C31616812   1.890   5.976   8.285  0.1474  0.3756  0.1412
  151SAPE  H16X16813   1.898   5.998   8.394  0.3230  1.8598 -0.1496
  151SAPE  H16Y16814   1.983   6.014   8.238  0.1437 -0.8631 -0.9106
  151SAPE  C31716815   1.879   5.828   8.250 -0.4762  0.3551  0.6364
  151SAPE  H17X16816   1.865   5.811   8.141  1.8773 -2.1642  0.5948
  151SAPE  H17Y16817   1.785   5.796   8.301  2.0108 -0.5176  5.3135
  151SAPE  C31816818   2.003   5.743   8.292  0.0483 -0.1466  0.6798
  151SAPE  H18X16819   2.103   5.788   8.276 -0.3923  0.7693  0.4425
  151SAPE  H18Y16820   2.008   5.648   8.234  0.7640  0.2229  0.1187
  151SAPE  H18Z16821   1.994   5.721   8.401  0.4914 -2.2342  0.3402
  152SAPE     N16822   3.488   5.219  10.426 -0.0220 -0.0497 -0.4100
  152SAPE   HN116823   3.481   5.156  10.509  0.4204  1.1472  0.5661
  152SAPE   HN216824   3.540   5.303  10.459 -1.2124  1.1309 -1.4319
  152SAPE   HN316825   3.390   5.240  10.399  0.2562 -0.7394 -2.1060
  152SAPE   C1216826   3.562   5.159  10.314 -0.1106 -0.3063  0.5356
  152SAPE  H12A16827   3.515   5.177  10.214  1.9172  0.9537 -0.2443
  152SAPE  H12B16828   3.560   5.048  10.316  1.1480 -0.3607 -0.1845
  152SAPE   C1116829   3.715   5.199  10.324 -0.0872  0.0819  0.2811
  152SAPE  H11A16830   3.730   5.309  10.330  0.7885  0.2498 -2.9824
  152SAPE  H11B16831   3.756   5.172  10.224  0.1441 -0.4106  0.5062
  152SAPE     P16832   3.906   5.163  10.498  0.2271 -0.6725  0.0356
  152SAPE   O1316833   3.872   5.273  10.589  0.1089 -0.0726  0.5033
  152SAPE   O1416834   3.969   5.044  10.563  0.0248 -0.0856  0.0166
  152SAPE   O1216835   3.779   5.112  10.419 -0.3592 -0.2386  0.4161
  152SAPE   O1116836   4.006   5.196  10.377  0.2552 -0.5710  0.8353
  152SAPE    C116837   4.029   5.337  10.340 -0.1006 -0.4552 -0.4693
  152SAPE    HA16838   3.940   5.401  10.360  1.1778  1.2714 -0.1077
  152SAPE    HB16839   4.115   5.388  10.388  0.0747 -1.8074  0.7172
  152SAPE    C216840   4.026   5.371  10.189  0.6480 -0.4566 -0.8240
  152SAPE    HS16841   3.939   5.331  10.133 -0.1827  1.5574 -1.0513
  152SAPE   O2116842   4.148   5.334  10.129  0.5230  0.0666 -0.3016
  152SAPE   C2116843   4.131   5.320  10.001  0.2196 -0.1217  0.4700
  152SAPE   O2216844   4.029   5.338   9.935 -0.0500  0.0811 -0.4294
  152SAPE   C2216845   4.265   5.267   9.944 -0.2990  0.4125 -0.0153
  152SAPE   H2R16846   4.348   5.340   9.951 -0.5283  0.6077  0.7963
  152SAPE   H2S16847   4.303   5.174   9.992 -0.7563 -0.4872 -1.3314
  152SAPE    C316848   4.003   5.532  10.191  0.0156  0.5150  0.0068
  152SAPE    HX16849   4.067   5.570  10.273 -2.3171 -0.0669  2.2130
  152SAPE    HY16850   3.903   5.557  10.231 -0.3358 -4.1141  2.6375
  152SAPE   O3116851   4.033   5.596  10.067  0.1811  0.1190  0.2491
  152SAPE   C3116852   3.929   5.603   9.983 -0.8389 -0.4687  0.1944
  152SAPE   O3216853   3.818   5.569  10.002  0.3166  0.4239  0.1787
  152SAPE   C3216854   3.978   5.685   9.861  0.0513  0.4696 -0.3122
  152SAPE   H2X16855   4.075   5.636   9.838 -0.1984 -0.8346  1.1717
  152SAPE   H2Y16856   3.990   5.791   9.891  0.3250  1.6355 -4.0044
  152SAPE   C2316857   4.247   5.237   9.797  0.5928 -0.4705 -0.2534
  152SAPE   H3R16858   4.230   5.336   9.749  0.9756 -0.9067 -1.3216
  152SAPE   H3S16859   4.158   5.173   9.781  1.1691 -1.0117 -1.4374
  152SAPE   C2416860   4.367   5.165   9.740  0.2092  0.0173 -0.0390
  152SAPE   H4R16861   4.318   5.131   9.647 -1.7009  0.9090  0.5899
  152SAPE   H4S16862   4.383   5.071   9.797 -2.3275 -0.7273 -0.4417
  152SAPE   C2516863   4.489   5.242   9.714  0.1153 -0.4492  0.2025
  152SAPE   H5R16864   4.514   5.317   9.791  1.9549  3.5923 -3.8821
  152SAPE   C2616865   4.564   5.237   9.605 -0.7370 -0.2310 -0.6356
  152SAPE   H6R16866   4.661   5.290   9.605 -0.2182 -0.9635  2.7804
  152SAPE   C2716867   4.537   5.147   9.493  0.1927 -0.1139 -0.0357
  152SAPE   H7R16868   4.477   5.201   9.417  1.7098 -0.0583 -1.2211
  152SAPE   H7S16869   4.483   5.055   9.526  1.2140 -1.6148 -2.3239
  152SAPE   C2816870   4.657   5.101   9.423  0.4526 -0.1202 -0.0850
  152SAPE   H8R16871   4.743   5.098   9.491  0.2643  2.4091  0.3261
  152SAPE   C2916872   4.670   5.066   9.294 -0.5821 -0.5552 -0.3636
  152SAPE   H9R16873   4.767   5.039   9.250 -0.5213 -0.2536 -0.4195
  152SAPE  C21016874   4.560   5.075   9.192  0.3546 -0.1010 -0.1629
  152SAPE  H10R16875   4.465   5.048   9.244  0.6446  2.1487  1.7254
  152SAPE  H10S16876   4.586   4.982   9.137  0.5860 -1.2886  1.8587
  152SAPE  C21116877   4.566   5.207   9.124  0.6103  0.7386  0.2010
  152SAPE  H11R16878   4.604   5.289   9.187  1.3599  1.2925 -0.9264
  152SAPE  C21216879   4.501   5.226   9.009  0.3396  0.1780  0.5630
  152SAPE  H12R16880   4.502   5.325   8.960  0.5235 -1.1427 -2.2855
  152SAPE  C21316881   4.425   5.120   8.932  0.2013  0.0184  0.1975
  152SAPE  H13R16882   4.473   5.020   8.941 -0.0732 -0.3574 -1.9734
  152SAPE  H13S16883   4.420   5.132   8.822 -3.3484  2.7923  0.4964
  152SAPE  C21416884   4.282   5.105   8.979 -0.5678 -0.2454 -0.1735
  152SAPE  H14R16885   4.274   5.088   9.087 -1.4547  1.4535  0.0638
  152SAPE  C21516886   4.165   5.115   8.915 -0.1650 -0.0810 -0.3624
  152SAPE  H15R16887   4.074   5.122   8.976 -1.1912 -1.7216 -1.5917
  152SAPE  C21616888   4.151   5.136   8.763 -0.3059  0.5699  0.3138
  152SAPE  H16R16889   4.236   5.187   8.712  0.1407  1.4206  1.8460
  152SAPE  H16S16890   4.067   5.205   8.739 -0.6489  0.3559  0.8769
  152SAPE  C21716891   4.121   5.003   8.686  0.1181 -0.1168  0.1123
  152SAPE  H17R16892   4.036   4.951   8.735  0.4283  0.0911  0.8761
  152SAPE  H17S16893   4.214   4.942   8.691  0.5967  0.7081  2.7656
  152SAPE  C21816894   4.089   5.023   8.531 -0.0224  0.4975 -0.1317
  152SAPE  H18R16895   4.180   5.074   8.493  0.7385 -1.4034 -0.9904
  152SAPE  H18S16896   4.005   5.094   8.518 -0.8308 -0.7926 -2.8015
  152SAPE  C21916897   4.048   4.898   8.449  1.3759 -0.0813 -0.2401
  152SAPE  H19R16898   3.958   4.861   8.502  2.3832 -1.6858  0.4000
  152SAPE  H19S16899   4.122   4.816   8.458  1.7812 -0.0141 -2.4025
  152SAPE  C22016900   4.024   4.920   8.299 -0.3769 -0.7508 -0.3028
  152SAPE  H20R16901   3.973   4.830   8.258  1.3481 -2.0929  0.3811
  152SAPE  H20S16902   4.119   4.948   8.248 -1.1076  0.6194 -0.9883
  152SAPE  H20T16903   3.962   5.012   8.289  3.1280  1.7790 -0.6913
  152SAPE   C3316904   3.893   5.675   9.739 -0.2505  0.2923  0.4404
  152SAPE   H3X16905   3.795   5.727   9.750  0.0236  0.4845  2.1478
  152SAPE   H3Y16906   3.871   5.568   9.718  0.2096 -0.0976  1.8607
  152SAPE   C3416907   3.965   5.728   9.614  1.0393 -0.0486  1.1184
  152SAPE   H4X16908   4.067   5.686   9.603 -0.0759 -2.5010 -0.7130
  152SAPE   H4Y16909   3.966   5.839   9.625 -0.1737 -0.0898  1.7436
  152SAPE   C3516910   3.882   5.708   9.484 -0.8179  0.1193 -0.4083
  152SAPE   H5X16911   3.778   5.734   9.514 -0.8277 -0.5097  0.1311
  152SAPE   H5Y16912   3.894   5.602   9.455  0.5372  0.4732 -1.1951
  152SAPE   C3616913   3.937   5.786   9.370  0.7733 -0.2344  1.2023
  152SAPE   H6X16914   4.047   5.772   9.366  1.2755  2.9144  0.5700
  152SAPE   H6Y16915   3.922   5.894   9.395 -3.4126 -0.0939 -1.1331
  152SAPE   C3716916   3.869   5.761   9.242 -0.1195 -0.2560  0.4611
  152SAPE   H7X16917   3.759   5.760   9.259 -0.1928 -0.1886 -0.0091
  152SAPE   H7Y16918   3.898   5.658   9.212 -2.0773 -0.3125 -1.4360
  152SAPE   C3816919   3.906   5.847   9.125  0.3953 -0.0303  0.0933
  152SAPE   H8X16920   4.001   5.810   9.082 -0.7925 -1.4766 -1.4147
  152SAPE   H8Y16921   3.919   5.949   9.168  1.0437 -0.1199  0.1229
  152SAPE   C3916922   3.799   5.855   9.015 -0.0145 -0.5566  0.1918
  152SAPE   H9X16923   3.700   5.871   9.063 -0.3861 -1.0207 -0.4060
  152SAPE   H9Y16924   3.811   5.756   8.966  0.4697 -0.9569  1.1079
  152SAPE  C31016925   3.821   5.958   8.911  0.0692 -0.3402 -0.1644
  152SAPE  H10X16926   3.926   5.945   8.876  0.4556  2.4009 -0.2816
  152SAPE  H10Y16927   3.808   6.063   8.944  0.0986 -0.7814  1.3278
  152SAPE  C31116928   3.731   5.931   8.799  0.6763 -0.0406 -0.3547
  152SAPE  H11X16929   3.733   5.822   8.774 -1.1660 -0.0190 -0.7561
  152SAPE  H11Y16930   3.770   5.975   8.704 -2.0978  1.7997 -0.7607
  152SAPE  C31216931   3.588   5.990   8.805 -0.0241  0.0688  0.8510
  152SAPE  H12X16932   3.611   6.098   8.792  1.6681 -0.2926  0.5223
  152SAPE  H12Y16933   3.546   5.971   8.906 -1.4273  0.3921  0.3425
  152SAPE  C31316934   3.486   5.940   8.693  0.1441 -0.5826  0.0311
  152SAPE  H13X16935   3.444   5.842   8.723 -0.2514 -1.1484 -2.2356
  152SAPE  H13Y16936   3.546   5.920   8.602  1.2585 -0.0128  0.6126
  152SAPE  C31416937   3.367   6.038   8.683  0.2963 -0.6271  0.1326
  152SAPE  H14X16938   3.386   6.135   8.633  0.1814 -0.5248  0.2856
  152SAPE  H14Y16939   3.328   6.056   8.786  1.1886 -0.4711  0.4557
  152SAPE  C31516940   3.259   5.968   8.599  0.0431  1.1475 -0.1372
  152SAPE  H15X16941   3.209   5.888   8.656 -0.0909  1.8842  0.8103
  152SAPE  H15Y16942   3.307   5.922   8.511  0.6400 -0.8214  1.1518
  152SAPE  C31616943   3.141   6.053   8.553  0.0084  0.1571 -0.0618
  152SAPE  H16X16944   3.178   6.153   8.520  0.1940 -0.3905 -1.5592
  152SAPE  H16Y16945   3.065   6.073   8.632 -1.2512  2.4186 -1.7063
  152SAPE  C31716946   3.049   5.984   8.448  0.2128  0.1386 -0.3755
  152SAPE  H17X16947   3.023   5.881   8.483 -2.4678  0.3580 -1.4805
  152SAPE  H17Y16948   3.111   5.980   8.356  0.2858  1.6458 -0.4017
  152SAPE  C31816949   2.909   6.046   8.425  0.0164  0.1379  0.2809
  152SAPE  H18X16950   2.840   5.973   8.378 -0.5341  0.4096  0.6485
  152SAPE  H18Y16951   2.917   6.133   8.356 -0.2466 -1.3047 -1.6393
  152SAPE  H18Z16952   2.858   6.079   8.518 -0.1581  2.4307 -0.5602
  153SAPE     N16953   1.154   6.535  10.484  0.2380 -0.1518  0.5972
  153SAPE   HN116954   1.160   6.623  10.538  4.2352 -0.3170  0.6970
  153SAPE   HN216955   1.238   6.476  10.497  0.3391  0.0741  0.9663
  153SAPE   HN316956   1.163   6.560  10.383  2.1872  0.6709  0.9464
  153SAPE   C1216957   1.028   6.454  10.501 -1.4687 -0.3114 -0.3846
  153SAPE  H12A16958   0.948   6.526  10.529 -0.3925  1.3137 -1.3316
  153SAPE  H12B16959   1.044   6.378  10.581 -0.5218 -0.9029 -1.1120
  153SAPE   C1116960   1.004   6.363  10.386  0.5947 -0.0182 -0.3901
  153SAPE  H11A16961   1.077   6.279  10.391 -0.1458 -0.6086  1.1136
  153SAPE  H11B16962   1.026   6.407  10.286  0.3343 -1.0997 -0.9421
  153SAPE     P16963   0.756   6.400  10.309 -0.0070  0.0484  0.0084
  153SAPE   O1316964   0.628   6.324  10.325  0.2497  0.0397 -0.1257
  153SAPE   O1416965   0.758   6.541  10.334 -0.2203 -0.6406  0.3904
  153SAPE   O1216966   0.863   6.321  10.398 -0.2812 -0.0276 -0.0194
  153SAPE   O1116967   0.807   6.373  10.167  0.6637  0.2173 -0.4023
  153SAPE    C116968   0.852   6.240  10.138 -1.0475  0.3526 -0.2314
  153SAPE    HA16969   0.946   6.247  10.079 -0.9897 -2.3067 -0.6172
  153SAPE    HB16970   0.881   6.173  10.222  0.3163  0.6710 -0.4236
  153SAPE    C216971   0.754   6.156  10.049 -0.0778  0.7401  0.2800
  153SAPE    HS16972   0.680   6.101  10.111 -2.1649  0.7731 -2.0522
  153SAPE   O2116973   0.822   6.068   9.962 -0.0435  0.2184  0.0008
  153SAPE   C2116974   0.841   5.945  10.014  0.0308  0.8486 -0.3181
  153SAPE   O2216975   0.815   5.903  10.123 -0.4803 -0.1030 -0.5864
  153SAPE   C2216976   0.914   5.867   9.896  0.1638 -0.6987 -0.2227
  153SAPE   H2R16977   1.023   5.885   9.909  0.0954 -1.4680  1.8924
  153SAPE   H2S16978   0.878   5.764   9.914  0.1605 -0.5213  0.8372
  153SAPE    C316979   0.661   6.252   9.960 -0.0351  0.0413  0.6032
  153SAPE    HX16980   0.734   6.291   9.886  1.5956 -1.6388  1.2420
  153SAPE    HY16981   0.635   6.340  10.022 -1.2872 -0.8040  1.3071
  153SAPE   O3116982   0.544   6.191   9.906 -0.7264  0.1092  0.1776
  153SAPE   C3116983   0.454   6.277   9.850 -0.3116  0.3911  0.3546
  153SAPE   O3216984   0.469   6.399   9.852 -0.5022 -0.1553 -0.1207
  153SAPE   C3216985   0.321   6.201   9.812 -0.3494 -0.0576 -0.2709
  153SAPE   H2X16986   0.267   6.275   9.749 -1.1793  1.2560  1.8497
  153SAPE   H2Y16987   0.263   6.187   9.906 -1.7757  0.5898 -1.0323
  153SAPE   C2316988   0.872   5.899   9.752 -0.3403 -0.7759  0.0899
  153SAPE   H3R16989   0.913   5.817   9.690  0.1673 -1.2181  0.9903
  153SAPE   H3S16990   0.926   5.994   9.731  1.4359 -1.3034  1.9593
  153SAPE   C2416991   0.725   5.910   9.714 -0.0432  0.0836 -0.9948
  153SAPE   H4R16992   0.719   5.899   9.604 -1.5857 -1.4871 -0.7977
  153SAPE   H4S16993   0.676   6.005   9.747 -0.8031 -0.4085 -0.6781
  153SAPE   C2516994   0.657   5.796   9.781 -0.2698  0.2933  0.4868
  153SAPE   H5R16995   0.601   5.822   9.871  0.8297  1.4067  0.8747
  153SAPE   C2616996   0.651   5.669   9.730 -0.2739 -0.1762  0.4560
  153SAPE   H6R16997   0.594   5.595   9.788 -1.3306  3.2038  4.1443
  153SAPE   C2716998   0.716   5.616   9.606 -0.1684  0.3405  0.1213
  153SAPE   H7R16999   0.811   5.573   9.643 -0.1348 -0.5158 -0.8961
  153SAPE   H7S17000   0.736   5.697   9.533 -0.5412  0.3534  0.0319
  153SAPE   C2817001   0.648   5.502   9.535  0.3653  0.0759 -0.7595
  153SAPE   H8R17002   0.642   5.412   9.598  1.2182  0.3008 -0.3468
  153SAPE   C2917003   0.593   5.496   9.412  0.0182 -0.1630  1.0229
  153SAPE   H9R17004   0.553   5.397   9.384  0.8977 -0.7390  1.7604
  153SAPE  C21017005   0.587   5.612   9.310 -0.5915  0.3468 -0.1428
  153SAPE  H10R17006   0.575   5.712   9.357 -0.1585  0.8131 -1.0093
  153SAPE  H10S17007   0.493   5.587   9.255 -1.3888  2.0670  0.3517
  153SAPE  C21117008   0.681   5.601   9.195 -0.3546 -0.1971 -0.4318
  153SAPE  H11R17009   0.664   5.509   9.137  1.4980 -0.7634 -0.1292
  153SAPE  C21217010   0.787   5.683   9.164  0.0573  0.3349  0.1816
  153SAPE  H12R17011   0.832   5.668   9.064 -1.4960 -0.6323 -0.3994
  153SAPE  C21317012   0.825   5.814   9.232 -0.0079 -0.2980  0.7224
  153SAPE  H13R17013   0.930   5.836   9.203  0.1837 -1.1722  0.7200
  153SAPE  H13S17014   0.820   5.804   9.343 -0.9396 -0.3169  0.6874
  153SAPE  C21417015   0.741   5.934   9.188 -0.2648  0.2867  0.1682
  153SAPE  H14R17016   0.645   5.923   9.136 -0.6861  1.6372  0.5995
  153SAPE  C21517017   0.773   6.066   9.209 -0.5120  0.3984  1.0538
  153SAPE  H15R17018   0.702   6.142   9.174 -1.0013 -0.8372 -0.7502
  153SAPE  C21617019   0.895   6.118   9.282  0.2919 -0.3208 -1.1600
  153SAPE  H16R17020   0.976   6.177   9.235  0.1633  3.1797  2.4544
  153SAPE  H16S17021   0.948   6.033   9.331  1.4781  0.9404 -0.1639
  153SAPE  C21717022   0.849   6.206   9.407 -0.5157 -0.4846  0.4902
  153SAPE  H17R17023   0.753   6.168   9.449  0.2568 -2.3103  0.6750
  153SAPE  H17S17024   0.824   6.311   9.379 -0.2689 -0.7235 -0.6696
  153SAPE  C21817025   0.949   6.207   9.526 -0.1031  0.3669  0.2210
  153SAPE  H18R17026   1.050   6.242   9.497 -0.2291  1.8444  1.4187
  153SAPE  H18S17027   0.968   6.104   9.563  2.8233  0.9883  0.7529
  153SAPE  C21917028   0.897   6.284   9.647  0.9469 -0.1477 -0.8959
  153SAPE  H19R17029   0.801   6.246   9.689 -1.4907  3.4729 -2.6343
  153SAPE  H19S17030   0.867   6.382   9.604  0.6367  0.0603 -0.2302
  153SAPE  C22017031   1.002   6.299   9.757  0.8424  0.0406  0.4921
  153SAPE  H20R17032   1.092   6.338   9.707 -0.5667  1.1354 -1.3020
  153SAPE  H20S17033   1.029   6.202   9.805  0.9258  0.5115  1.4158
  153SAPE  H20T17034   0.968   6.376   9.829 -0.7695 -1.0180  0.9224
  153SAPE   C3317035   0.350   6.071   9.728  0.2976  0.6801 -0.5088
  153SAPE   H3X17036   0.254   6.033   9.688 -0.4032  1.5077  0.3465
  153SAPE   H3Y17037   0.397   6.002   9.802  1.8182  1.3332 -0.8240
  153SAPE   C3417038   0.435   6.082   9.600 -0.9664  0.7012 -0.0677
  153SAPE   H4X17039   0.448   5.983   9.550 -2.6212  1.4500 -2.1013
  153SAPE   H4Y17040   0.533   6.125   9.631 -0.8691  0.5371 -0.1425
  153SAPE   C3517041   0.372   6.177   9.500  0.3162  0.4308 -0.0488
  153SAPE   H5X17042   0.359   6.283   9.533 -2.0978 -0.4366  2.1202
  153SAPE   H5Y17043   0.268   6.143   9.481 -0.0703  1.5082  0.0499
  153SAPE   C3617044   0.451   6.185   9.365  0.2352 -0.2418  0.6583
  153SAPE   H6X17045   0.467   6.079   9.334  0.1540 -0.1408  0.2596
  153SAPE   H6Y17046   0.547   6.237   9.386 -0.7663  1.5493  0.9738
  153SAPE   C3717047   0.382   6.263   9.251 -0.0231  0.4524  0.4564
  153SAPE   H7X17048   0.366   6.367   9.287  0.8295  1.4747 -1.9081
  153SAPE   H7Y17049   0.278   6.228   9.235 -0.0732  0.0907  1.4976
  153SAPE   C3817050   0.453   6.267   9.114 -0.2315 -0.1039 -0.1662
  153SAPE   H8X17051   0.453   6.164   9.072 -1.5767  0.3060 -1.2465
  153SAPE   H8Y17052   0.559   6.298   9.125 -0.5606  1.5286 -1.1888
  153SAPE   C3917053   0.381   6.353   9.003  0.0584 -0.1316 -0.1877
  153SAPE   H9X17054   0.381   6.458   9.041 -1.9075 -0.4783  0.8840
  153SAPE   H9Y17055   0.278   6.313   8.996 -0.2895  0.8163 -0.7721
  153SAPE  C31017056   0.452   6.333   8.864  0.0266  0.0437 -0.4065
  153SAPE  H10X17057   0.484   6.227   8.852  1.4708  0.4435 -0.2700
  153SAPE  H10Y17058   0.545   6.395   8.860  0.1216 -0.1674 -2.3308
  153SAPE  C31117059   0.376   6.385   8.745 -0.2237  0.2201  0.1493
  153SAPE  H11X17060   0.447   6.377   8.660 -0.7740  2.0850 -0.5365
  153SAPE  H11Y17061   0.339   6.488   8.766 -0.8071 -0.3314  2.0459
  153SAPE  C31217062   0.258   6.298   8.704 -0.1406 -0.1776  0.4935
  153SAPE  H12X17063   0.179   6.320   8.779  0.7148  1.2787  0.9887
  153SAPE  H12Y17064   0.291   6.193   8.721 -1.6234 -0.3931  2.3979
  153SAPE  C31317065   0.192   6.325   8.569  0.2003 -0.2027 -0.3184
  153SAPE  H13X17066   0.093   6.275   8.559 -0.1548  0.4287  0.0040
  153SAPE  H13Y17067   0.245   6.279   8.483  2.8732 -0.6094  1.4455
  153SAPE  C31417068   0.172   6.478   8.548  0.1078 -0.3904  0.6561
  153SAPE  H14X17069   0.272   6.526   8.550  0.5884 -1.3460  0.2376
  153SAPE  H14Y17070   0.118   6.532   8.629 -0.4005  1.1713 -0.6855
  153SAPE  C31517071   0.108   6.523   8.417 -0.3919 -0.8837 -0.2823
  153SAPE  H15X17072   0.001   6.495   8.405 -0.2996 -0.6414 -1.9143
  153SAPE  H15Y17073   0.165   6.467   8.339 -0.7317 -0.5745 -0.7575
  153SAPE  C31617074   0.123   6.669   8.375 -0.1058 -0.1470  0.4105
  153SAPE  H16X17075   0.227   6.707   8.382 -0.3583  0.3132  2.1682
  153SAPE  H16Y17076   0.073   6.739   8.445 -1.0106 -0.0969 -0.2667
  153SAPE  C31717077   0.084   6.705   8.229  0.3239 -0.3809  0.1325
  153SAPE  H17X17078  -0.025   6.681   8.220  0.0876  1.2127 -2.2897
  153SAPE  H17Y17079   0.134   6.636   8.158 -0.1401  1.5511 -2.2020
  153SAPE  C31817080   0.101   6.849   8.173  0.0972 -0.0057  0.7390
  153SAPE  H18X17081   0.044   6.915   8.243  1.8211  0.1278  2.0791
  153SAPE  H18Y17082   0.054   6.855   8.073 -2.1962 -0.1716  1.7378
  153SAPE  H18Z17083   0.209   6.873   8.183 -0.1964  1.2547  1.0585
  154SAPE     N17084   1.533   0.439  10.289 -0.3187 -0.4013  0.3593
  154SAPE   HN117085   1.439   0.463  10.326  0.3124  1.9086  0.6008
  154SAPE   HN217086   1.597   0.469  10.364  0.9370  0.6286 -1.0581
  154SAPE   HN317087   1.554   0.496  10.204  2.3214 -0.1424  1.1202
  154SAPE   C1217088   1.536   0.295  10.241  0.3366 -0.3491 -0.1411
  154SAPE  H12A17089   1.546   0.227  10.328  0.0370  0.4672  0.5408
  154SAPE  H12B17090   1.630   0.277  10.186 -0.4903  1.0931 -2.1367
  154SAPE   C1117091   1.412   0.258  10.163  0.3090  0.6005 -0.2517
  154SAPE  H11A17092   1.416   0.156  10.120 -0.9923  0.9583 -1.2690
  154SAPE  H11B17093   1.401   0.328  10.078 -0.1709 -0.5057 -1.1272
  154SAPE     P17094   1.219   0.154  10.316 -0.2157 -0.7388  0.1922
  154SAPE   O1317095   1.304   0.088  10.413  0.0183 -0.0002  0.1988
  154SAPE   O1417096   1.089   0.198  10.366  0.0350 -0.5125  0.0241
  154SAPE   O1217097   1.297   0.275  10.247  0.3259  0.2293  0.2909
  154SAPE   O1117098   1.201   0.052  10.195 -0.7997 -0.3104  0.9494
  154SAPE    C117099   1.111   0.084  10.091  0.7100  0.4444  0.4937
  154SAPE    HA17100   1.031   0.008  10.099  0.8306  0.4738  2.6298
  154SAPE    HB17101   1.069   0.186  10.093 -1.1120 -0.2418 -0.4197
  154SAPE    C217102   1.169   0.058   9.949 -0.5077  0.6844 -0.4959
  154SAPE    HS17103   1.230  -0.034   9.959 -0.3962  0.8171  0.0775
  154SAPE   O2117104   1.245   0.172   9.914  0.4236 -0.4069  0.4129
  154SAPE   C2117105   1.353   0.164   9.834  0.7174  0.2076 -0.1734
  154SAPE   O2217106   1.402   0.065   9.792 -0.3339 -0.0655  0.0808
  154SAPE   C2217107   1.405   0.302   9.806  0.7018 -0.4952 -0.8169
  154SAPE   H2R17108   1.320   0.371   9.826 -0.0555 -1.6292  0.0481
  154SAPE   H2S17109   1.490   0.321   9.876  1.1367  0.0390 -1.4729
  154SAPE    C317110   1.065   0.030   9.838 -0.1272  0.1554 -0.8761
  154SAPE    HX17111   1.010   0.126   9.844  0.9738  0.9667 -2.9193
  154SAPE    HY17112   1.007  -0.056   9.879  1.8516  1.0761  4.7937
  154SAPE   O3117113   1.111  -0.008   9.705 -1.2818  0.3473 -0.6247
  154SAPE   C3117114   1.160  -0.135   9.689  0.1654  0.3294  0.7024
  154SAPE   O3217115   1.183  -0.208   9.785 -0.5256 -0.0919  0.3173
  154SAPE   C3217116   1.185  -0.165   9.536 -0.3818 -0.4696  0.7049
  154SAPE   H2X17117   1.287  -0.208   9.529  0.4580  1.5168 -0.0487
  154SAPE   H2Y17118   1.174  -0.069   9.482 -1.1459 -1.5907 -1.2462
  154SAPE   C2317119   1.463   0.319   9.662  0.2045 -0.0175 -0.3165
  154SAPE   H3R17120   1.380   0.321   9.589 -0.1928  3.0901  0.0882
  154SAPE   H3S17121   1.530   0.233   9.637 -1.1049 -0.5817 -2.1113
  154SAPE   C2417122   1.565   0.441   9.634 -0.4066  0.1990  0.3916
  154SAPE   H4R17123   1.508   0.535   9.650  0.5497  1.1665 -1.5176
  154SAPE   H4S17124   1.595   0.433   9.527  0.1579 -0.0419  0.5666
  154SAPE   C2517125   1.689   0.442   9.724 -0.1149  0.2416 -0.0676
  154SAPE   H5R17126   1.672   0.418   9.830 -0.7705 -0.5380 -0.3364
  154SAPE   C2617127   1.815   0.456   9.689  0.0930  0.7542 -0.5136
  154SAPE   H6R17128   1.890   0.447   9.769  1.0807  2.0157 -1.2519
  154SAPE   C2717129   1.866   0.475   9.549 -0.6300 -0.0485 -0.5336
  154SAPE   H7R17130   1.964   0.524   9.566 -0.5088 -0.3898 -0.2316
  154SAPE   H7S17131   1.800   0.543   9.491  1.7492  2.0810 -0.9159
  154SAPE   C2817132   1.902   0.350   9.475 -0.3345  1.1273 -1.2801
  154SAPE   H8R17133   1.893   0.259   9.536  1.9875  1.8275  0.2195
  154SAPE   C2917134   1.919   0.338   9.342  0.1365 -0.5834  0.0015
  154SAPE   H9R17135   1.931   0.242   9.291  0.3921 -0.2496 -0.5724
  154SAPE  C21017136   1.916   0.457   9.243 -0.6551  0.1116 -0.3067
  154SAPE  H10R17137   2.018   0.464   9.199 -1.4144  0.6652 -2.0671
  154SAPE  H10S17138   1.897   0.552   9.296  0.5741 -0.1243  0.5884
  154SAPE  C21117139   1.811   0.440   9.137 -0.7024 -0.4988 -0.1670
  154SAPE  H11R17140   1.708   0.420   9.172 -0.5099 -1.8382 -0.3078
  154SAPE  C21217141   1.827   0.428   9.002 -0.0712  0.9503  0.9860
  154SAPE  H12R17142   1.730   0.426   8.950 -0.6933  1.8265  2.0754
  154SAPE  C21317143   1.947   0.438   8.906  0.2129  0.2697 -0.4097
  154SAPE  H13R17144   2.041   0.446   8.964 -0.8104  1.6526  1.1424
  154SAPE  H13S17145   1.934   0.531   8.847  1.0986  0.8106  0.2214
  154SAPE  C21417146   1.972   0.319   8.819  0.6021 -0.1223  0.5352
  154SAPE  H14R17147   1.936   0.224   8.861  0.4492  0.8727  2.7507
  154SAPE  C21517148   2.020   0.325   8.695 -0.4092 -0.3556  0.1177
  154SAPE  H15R17149   2.040   0.233   8.638 -2.9419 -0.8321 -0.1073
  154SAPE  C21617150   2.064   0.452   8.630  0.1761  0.4131 -0.4050
  154SAPE  H16R17151   2.118   0.515   8.704  1.0932  1.0744 -1.6084
  154SAPE  H16S17152   1.978   0.513   8.597 -0.1534  0.2263  0.0866
  154SAPE  C21717153   2.163   0.438   8.512  0.1467 -0.1245 -0.2839
  154SAPE  H17R17154   2.245   0.371   8.547  0.8264 -0.8841 -3.0705
  154SAPE  H17S17155   2.211   0.530   8.472  1.2663 -0.0843  1.0764
  154SAPE  C21817156   2.117   0.379   8.379 -0.0851 -0.5424  0.6754
  154SAPE  H18R17157   2.091   0.279   8.419  0.7406 -0.8839  0.3649
  154SAPE  H18S17158   2.198   0.379   8.303  0.2147 -0.4423  0.9916
  154SAPE  C21917159   2.004   0.464   8.308 -0.5238  0.0857  0.7221
  154SAPE  H19R17160   2.046   0.554   8.258 -2.1907 -0.0845 -1.1201
  154SAPE  H19S17161   1.915   0.472   8.375 -3.0817 -0.7625 -2.3067
  154SAPE  C22017162   1.944   0.395   8.183  0.0802 -0.8484  0.0330
  154SAPE  H20R17163   1.861   0.452   8.136  0.0907 -2.0956 -1.5696
  154SAPE  H20S17164   1.904   0.300   8.225  0.5516 -0.8486  0.5029
  154SAPE  H20T17165   2.016   0.381   8.100 -1.5461  0.8784 -1.7687
  154SAPE   C3317166   1.087  -0.262   9.468 -0.5778 -0.4402  0.4274
  154SAPE   H3X17167   0.980  -0.231   9.466 -1.4199 -3.0922 -0.9346
  154SAPE   H3Y17168   1.077  -0.357   9.525 -1.9016  1.1363  2.9992
  154SAPE   C3417169   1.130  -0.303   9.321  1.4910 -0.3253 -0.3747
  154SAPE   H4X17170   1.036  -0.351   9.286  0.3706 -0.2663  2.3622
  154SAPE   H4Y17171   1.209  -0.381   9.327  1.2614 -0.4984  0.5130
  154SAPE   C3517172   1.156  -0.186   9.229  0.0596  0.0874 -0.3969
  154SAPE   H5X17173   1.259  -0.150   9.250 -0.0157  0.6857 -1.0026
  154SAPE   H5Y17174   1.088  -0.101   9.250 -1.7343 -0.7713 -2.3775
  154SAPE   C3617175   1.134  -0.226   9.079  0.7063 -0.3429  0.1725
  154SAPE   H6X17176   1.026  -0.252   9.077  0.3691  1.0008 -2.1018
  154SAPE   H6Y17177   1.176  -0.326   9.054 -1.5889 -1.2630 -0.2818
  154SAPE   C3717178   1.162  -0.115   8.978  0.0085 -0.3373 -0.1801
  154SAPE   H7X17179   1.261  -0.069   8.995  0.3191 -0.4340 -1.5941
  154SAPE   H7Y17180   1.087  -0.034   8.985  0.1446 -0.0083 -2.0127
  154SAPE   C3817181   1.169  -0.160   8.830  0.3667 -0.3400  0.0636
  154SAPE   H8X17182   1.264  -0.215   8.815  1.0802  0.9103 -0.1606
  154SAPE   H8Y17183   1.185  -0.065   8.775 -1.8672  0.6531  1.0204
  154SAPE   C3917184   1.041  -0.237   8.784 -0.5750 -0.4340  1.1855
  154SAPE   H9X17185   0.954  -0.195   8.839 -1.1341 -0.2136  0.1650
  154SAPE   H9Y17186   1.054  -0.345   8.807  2.6754 -0.7145 -1.3385
  154SAPE  C31017187   1.004  -0.226   8.638 -0.2985  0.2922  0.2117
  154SAPE  H10X17188   1.091  -0.265   8.581 -0.8247  0.4985 -0.7599
  154SAPE  H10Y17189   0.992  -0.120   8.607  2.8985  0.4793 -0.6985
  154SAPE  C31117190   0.878  -0.308   8.600 -0.0767 -0.2570  0.7365
  154SAPE  H11X17191   0.799  -0.294   8.677  0.2293  0.8738  0.8609
  154SAPE  H11Y17192   0.901  -0.417   8.607 -1.7121 -0.7013 -0.0554
  154SAPE  C31217193   0.821  -0.278   8.459 -0.6647 -0.4253 -0.2403
  154SAPE  H12X17194   0.910  -0.287   8.394 -0.8945  1.5687 -0.8944
  154SAPE  H12Y17195   0.777  -0.178   8.444  1.3300  0.2966 -1.6375
  154SAPE  C31317196   0.733  -0.388   8.403  0.3588  0.3409 -0.1301
  154SAPE  H13X17197   0.668  -0.441   8.476  0.1231 -1.4700 -1.5841
  154SAPE  H13Y17198   0.792  -0.471   8.360  0.2787 -0.3436  1.0367
  154SAPE  C31417199   0.635  -0.332   8.290  0.3306  0.6011 -0.0959
  154SAPE  H14X17200   0.686  -0.303   8.195 -0.9175  0.2419 -0.9056
  154SAPE  H14Y17201   0.570  -0.248   8.322  1.1099  1.2573 -0.2113
  154SAPE  C31517202   0.542  -0.448   8.249 -0.2601 -0.0048  0.2167
  154SAPE  H15X17203   0.480  -0.470   8.338 -0.9632  2.3338  0.3703
  154SAPE  H15Y17204   0.611  -0.521   8.202  0.6962  1.4754 -0.7540
  154SAPE  C31617205   0.440  -0.407   8.144  0.5983 -0.1930 -0.9111
  154SAPE  H16X17206   0.495  -0.355   8.063  0.9757  1.3308  0.2623
  154SAPE  H16Y17207   0.375  -0.333   8.197  2.5996  1.5075 -0.6613
  154SAPE  C31717208   0.351  -0.521   8.094  0.4656 -0.0094  0.2042
  154SAPE  H17X17209   0.278  -0.544   8.174  0.7824  3.1050  1.5295
  154SAPE  H17Y17210   0.414  -0.613   8.091  1.6641  0.7821  0.5075
  154SAPE  C31817211   0.291  -0.501   7.953 -0.4793 -0.3612 -0.1903
  154SAPE  H18X17212   0.210  -0.568   7.918 -0.2353 -0.0804 -1.3412
  154SAPE  H18Y17213   0.370  -0.477   7.879 -0.4442  1.7531  0.4589
  154SAPE  H18Z17214   0.233  -0.406   7.952 -0.9766 -0.6639 -1.2654
  155SAPE     N17215   3.401   0.299  10.430 -0.2520  0.6563  0.2302
  155SAPE   HN117216   3.429   0.399  10.435 -1.8564  1.1508 -0.0687
  155SAPE   HN217217   3.297   0.294  10.434 -0.1836 -0.9684  3.2839
  155SAPE   HN317218   3.436   0.246  10.513 -0.7689 -1.9371 -1.0886
  155SAPE   C1217219   3.452   0.239  10.305  0.2307  0.0376  0.6651
  155SAPE  H12A17220   3.560   0.215  10.307 -0.0698 -1.6580 -0.7259
  155SAPE  H12B17221   3.436   0.310  10.220 -1.6505 -2.3165 -1.0901
  155SAPE   C1117222   3.373   0.113  10.270  0.3014  0.5406 -0.2712
  155SAPE  H11A17223   3.378   0.042  10.355 -2.1618 -0.2540 -0.7085
  155SAPE  H11B17224   3.428   0.066  10.185  2.0036  0.5416  0.7817
  155SAPE     P17225   3.160   0.012  10.185  0.1222  0.6485 -0.0439
  155SAPE   O1317226   3.210  -0.116  10.241  1.0349  0.4677  0.1252
  155SAPE   O1417227   3.011   0.034  10.196 -0.5605 -0.1519  0.2903
  155SAPE   O1217228   3.234   0.135  10.249 -0.2740  0.3618  0.4512
  155SAPE   O1117229   3.210   0.031  10.038 -0.0517 -0.3614  0.3584
  155SAPE    C117230   3.166   0.145   9.966 -0.2728  0.3347  0.2208
  155SAPE    HA17231   3.057   0.139   9.947 -0.9970 -1.3982  3.8915
  155SAPE    HB17232   3.190   0.244  10.012 -0.8638  0.3755  0.4509
  155SAPE    C217233   3.247   0.150   9.832 -0.0330  0.1362 -0.9036
  155SAPE    HS17234   3.216   0.240   9.776 -3.0058 -0.7015 -0.7484
  155SAPE   O2117235   3.235   0.016   9.769 -0.3610 -0.2548 -0.0591
  155SAPE   C2117236   3.143   0.024   9.673  0.0727 -0.2070 -0.0120
  155SAPE   O2217237   3.080   0.123   9.644  0.2644 -0.5380 -0.8167
  155SAPE   C2217238   3.129  -0.102   9.591  0.9374 -1.0225 -0.2054
  155SAPE   H2R17239   3.233  -0.142   9.585  1.1668 -0.4052 -0.3940
  155SAPE   H2S17240   3.065  -0.176   9.643 -0.6205 -1.3356 -2.4550
  155SAPE    C317241   3.402   0.172   9.871 -0.0656  0.4913  0.7160
  155SAPE    HX17242   3.435   0.082   9.926  0.9792 -0.5493 -1.5286
  155SAPE    HY17243   3.410   0.262   9.937  1.0063 -0.8766  2.5361
  155SAPE   O3117244   3.473   0.210   9.753  0.2736 -0.2264 -0.1418
  155SAPE   C3117245   3.533   0.123   9.670  1.2701  0.2324  0.3045
  155SAPE   O3217246   3.524   0.005   9.672 -0.4834 -0.2198 -0.4931
  155SAPE   C3217247   3.611   0.199   9.559  1.0272  0.0924 -0.1244
  155SAPE   H2X17248   3.719   0.176   9.569  1.6053  1.9756 -1.4684
  155SAPE   H2Y17249   3.593   0.308   9.573  1.2696  0.2807 -1.2005
  155SAPE   C2317250   3.070  -0.063   9.452 -0.1386  0.2471  0.3026
  155SAPE   H3R17251   3.101   0.037   9.415 -1.2745  0.8345  0.8877
  155SAPE   H3S17252   2.960  -0.053   9.447 -0.5265 -2.0550  2.4817
  155SAPE   C2417253   3.121  -0.160   9.344  0.2049 -0.2191  0.0756
  155SAPE   H4R17254   3.231  -0.174   9.344  0.1606 -0.7532  1.4497
  155SAPE   H4S17255   3.097  -0.111   9.247  1.2213  0.4298  0.1483
  155SAPE   C2517256   3.058  -0.298   9.349  0.5808  0.6434  0.1570
  155SAPE   H5R17257   2.991  -0.317   9.434  1.8794  0.9416  1.2904
  155SAPE   C2617258   3.056  -0.387   9.243 -0.1527 -0.5028  0.2465
  155SAPE   H6R17259   3.006  -0.484   9.258  0.0536 -0.7291 -0.5114
  155SAPE   C2717260   3.139  -0.360   9.119  0.2904  0.3071 -0.0387
  155SAPE   H7R17261   3.241  -0.326   9.148 -0.1684  0.7902  1.0706
  155SAPE   H7S17262   3.090  -0.281   9.059 -1.3546 -0.0621  0.7598
  155SAPE   C2817263   3.167  -0.500   9.061  0.0453 -0.0220  0.1437
  155SAPE   H8R17264   3.174  -0.586   9.128  1.4597  1.7821  2.4310
  155SAPE   C2917265   3.169  -0.520   8.928 -0.0207 -0.6493  0.0006
  155SAPE   H9R17266   3.174  -0.627   8.903 -1.8380 -1.1158  1.4033
  155SAPE  C21017267   3.160  -0.422   8.809 -1.4589  0.2998 -0.0511
  155SAPE  H10R17268   3.173  -0.321   8.854  0.6621 -0.2234  0.5984
  155SAPE  H10S17269   3.061  -0.424   8.758 -0.5142  1.0638 -1.9855
  155SAPE  C21117270   3.278  -0.438   8.712  0.2401  0.4095  0.5859
  155SAPE  H11R17271   3.372  -0.455   8.766  0.6763  0.2797 -0.2067
  155SAPE  C21217272   3.290  -0.431   8.580  0.4921  0.0491 -0.0781
  155SAPE  H12R17273   3.386  -0.454   8.532  0.3778  0.7862 -0.6635
  155SAPE  C21317274   3.177  -0.411   8.484 -0.1989  0.4830 -0.5508
  155SAPE  H13R17275   3.171  -0.301   8.467 -1.2226  0.4707 -0.3524
  155SAPE  H13S17276   3.076  -0.442   8.520 -0.4837  2.7469  0.7955
  155SAPE  C21417277   3.182  -0.481   8.351  0.4292 -0.1095 -0.7735
  155SAPE  H14R17278   3.272  -0.541   8.331 -0.1368 -0.7176 -1.5892
  155SAPE  C21517279   3.089  -0.468   8.252 -0.1180 -0.1814  0.9358
  155SAPE  H15R17280   3.107  -0.528   8.162 -0.2608 -0.7242  1.2656
  155SAPE  C21617281   2.966  -0.371   8.248  0.4395  0.8044 -0.4862
  155SAPE  H16R17282   2.966  -0.298   8.165 -1.6143  2.2899  0.7334
  155SAPE  H16S17283   2.961  -0.309   8.340 -3.3738 -1.5845  1.1867
  155SAPE  C21717284   2.835  -0.444   8.253  0.5063 -0.2434 -0.0329
  155SAPE  H17R17285   2.818  -0.527   8.182  0.7291 -0.6511  0.3870
  155SAPE  H17S17286   2.763  -0.366   8.219  0.8971  0.3542  0.4931
  155SAPE  C21817287   2.787  -0.505   8.388 -0.3026 -0.0290 -0.4061
  155SAPE  H18R17288   2.757  -0.415   8.447 -3.4281 -0.4168 -1.2172
  155SAPE  H18S17289   2.875  -0.548   8.440  0.4997  1.0365 -0.8380
  155SAPE  C21917290   2.669  -0.606   8.392 -0.6940 -0.6620  0.1834
  155SAPE  H19R17291   2.685  -0.660   8.489 -0.8833 -0.8554  0.1081
  155SAPE  H19S17292   2.688  -0.687   8.318  3.0610 -0.4293  0.7058
  155SAPE  C22017293   2.532  -0.547   8.410 -0.5009  0.4287  0.3487
  155SAPE  H20R17294   2.454  -0.626   8.404  0.3728 -0.3522 -4.0094
  155SAPE  H20S17295   2.500  -0.468   8.338 -0.7148  1.5915  1.6649
  155SAPE  H20T17296   2.533  -0.489   8.505  1.7234  0.8669  0.1094
  155SAPE   C3317297   3.558   0.147   9.422 -0.3641  0.8652 -0.1471
  155SAPE   H3X17298   3.567   0.038   9.405 -2.3638  0.8411 -1.3878
  155SAPE   H3Y17299   3.624   0.197   9.348 -1.4097  2.5492 -0.0000
  155SAPE   C3417300   3.413   0.192   9.388  0.3527  1.3680 -0.4232
  155SAPE   H4X17301   3.396   0.302   9.383 -3.4075  0.9327 -0.0146
  155SAPE   H4Y17302   3.347   0.152   9.468  0.7678  2.5477  0.5455
  155SAPE   C3517303   3.370   0.116   9.258  0.6892  0.0039 -0.6436
  155SAPE   H5X17304   3.262   0.124   9.232  0.5167 -0.4628 -0.1051
  155SAPE   H5Y17305   3.394   0.008   9.270  1.7189  0.2892 -0.0099
  155SAPE   C3617306   3.448   0.155   9.125  0.3741  0.6328  0.2121
  155SAPE   H6X17307   3.555   0.148   9.153  0.2898  3.6573  1.5976
  155SAPE   H6Y17308   3.445   0.263   9.101 -1.0103  0.2315 -1.6980
  155SAPE   C3717309   3.416   0.065   9.004 -0.5483  0.1762 -0.9092
  155SAPE   H7X17310   3.422  -0.039   9.044 -0.9014  0.7281  0.6659
  155SAPE   H7Y17311   3.494   0.070   8.925 -1.2488  1.2664 -1.5495
  155SAPE   C3817312   3.284   0.083   8.940 -1.0198  0.1207  0.3829
  155SAPE   H8X17313   3.268   0.185   8.899 -1.1086 -0.0835 -0.0945
  155SAPE   H8Y17314   3.207   0.074   9.019  0.1037 -1.3972  1.3780
  155SAPE   C3917315   3.247  -0.022   8.834 -0.3814  0.3713 -0.0694
  155SAPE   H9X17316   3.233  -0.117   8.889  0.6775 -0.4904 -1.2234
  155SAPE   H9Y17317   3.331  -0.040   8.763 -0.0270 -0.9168  0.6465
  155SAPE  C31017318   3.124   0.019   8.756  0.4087 -0.2242 -0.1726
  155SAPE  H10X17319   3.159   0.108   8.700 -0.7149  1.3195  1.4362
  155SAPE  H10Y17320   3.035   0.043   8.818 -1.2759 -2.5666 -1.5097
  155SAPE  C31117321   3.079  -0.095   8.666  0.2904 -0.1651  0.7323
  155SAPE  H11X17322   3.078  -0.193   8.719  1.1654 -0.1930  0.7236
  155SAPE  H11Y17323   3.154  -0.116   8.586 -1.0090  2.0754 -1.1969
  155SAPE  C31217324   2.945  -0.066   8.594  0.1899  0.3166  0.7284
  155SAPE  H12X17325   2.867  -0.012   8.652 -1.1285 -1.0011  0.2674
  155SAPE  H12Y17326   2.897  -0.164   8.574  0.8229 -0.4053  2.5782
  155SAPE  C31317327   2.962   0.015   8.462 -0.4928  0.3719 -0.7602
  155SAPE  H13X17328   3.013  -0.042   8.381  1.9968 -0.4162  1.2356
  155SAPE  H13Y17329   3.040   0.092   8.484  0.3394 -1.0297  1.5540
  155SAPE  C31417330   2.841   0.082   8.409 -0.2956 -0.2120 -0.0203
  155SAPE  H14X17331   2.791   0.121   8.500 -1.8108 -1.6238 -0.2002
  155SAPE  H14Y17332   2.769   0.012   8.360 -0.2015 -0.5912  0.3840
  155SAPE  C31517333   2.871   0.196   8.312  0.6804 -0.1907  0.2233
  155SAPE  H15X17334   2.957   0.250   8.358  0.8732 -0.0713 -0.2690
  155SAPE  H15Y17335   2.780   0.260   8.314  1.8747  1.5635  2.1434
  155SAPE  C31617336   2.904   0.163   8.163  1.4227 -0.1473  0.2157
  155SAPE  H16X17337   2.813   0.135   8.105 -0.0594  0.2722  2.2217
  155SAPE  H16Y17338   2.974   0.077   8.152 -0.2070 -1.4258 -0.6824
  155SAPE  C31717339   2.973   0.283   8.092 -0.2336 -0.0888  0.3804
  155SAPE  H17X17340   3.002   0.249   7.990 -1.7285  0.9706 -0.4233
  155SAPE  H17Y17341   3.056   0.327   8.151  1.2103 -0.0810 -1.5762
  155SAPE  C31817342   2.876   0.402   8.075  0.6489  0.0518  0.8021
  155SAPE  H18X17343   2.915   0.496   8.029  1.6684 -0.7711 -0.0562
  155SAPE  H18Y17344   2.829   0.443   8.167  1.5446  1.5332  0.6353
  155SAPE  H18Z17345   2.791   0.370   8.012  1.2064  0.1021  0.0111
  156SAPE     N17346   1.245   4.138  10.623  0.4553  0.0197 -0.8972
  156SAPE   HN117347   1.318   4.166  10.555  0.3596  1.4072 -0.4542
  156SAPE   HN217348   1.214   4.231  10.657 -0.7383  0.4343 -2.9618
  156SAPE   HN317349   1.283   4.072  10.694  0.0594  0.7474  0.0039
  156SAPE   C1217350   1.131   4.082  10.544 -0.1042 -0.5769  0.2393
  156SAPE  H12A17351   1.038   4.115  10.595 -0.1149  1.5510 -1.0279
  156SAPE  H12B17352   1.135   3.971  10.549 -0.6306 -0.5976  0.2744
  156SAPE   C1117353   1.135   4.140  10.402 -0.0467  0.3216  0.5767
  156SAPE  H11A17354   1.062   4.092  10.333 -0.6444  0.4351  1.1168
  156SAPE  H11B17355   1.233   4.118  10.356 -0.4653 -1.7957  0.5812
  156SAPE     P17356   0.989   4.364  10.418  0.2399 -0.4691 -0.0140
  156SAPE   O1317357   0.895   4.294  10.508  0.2302 -0.2168 -0.3913
  156SAPE   O1417358   1.017   4.503  10.439 -0.4086 -0.5925  0.0126
  156SAPE   O1217359   1.120   4.278  10.407 -0.7731  0.1307 -0.4110
  156SAPE   O1117360   0.937   4.355  10.268  1.1146 -0.0449 -0.1535
  156SAPE    C117361   1.001   4.418  10.156  0.2617  0.1945 -0.1940
  156SAPE    HA17362   0.934   4.488  10.102 -0.8962 -0.0426  0.8815
  156SAPE    HB17363   1.089   4.480  10.187  0.1328 -0.6165  1.9930
  156SAPE    C217364   1.032   4.322  10.043 -0.0809 -0.0147 -0.0891
  156SAPE    HS17365   1.109   4.245  10.066 -0.7748 -0.7240 -0.1019
  156SAPE   O2117366   1.063   4.398   9.921 -0.1407  0.1754 -0.0873
  156SAPE   C2117367   1.182   4.458   9.931 -0.6597 -0.0368 -0.2071
  156SAPE   O2217368   1.263   4.437  10.023  0.2680 -0.0740 -0.0535
  156SAPE   C2217369   1.203   4.546   9.805 -0.0516 -0.5120  0.4407
  156SAPE   H2R17370   1.311   4.568   9.790  0.4612 -3.4840 -0.9421
  156SAPE   H2S17371   1.173   4.479   9.723  1.8244 -1.8516  0.7777
  156SAPE    C317372   0.898   4.237  10.011  0.5464  0.7988  0.6419
  156SAPE    HX17373   0.821   4.316  10.000  1.6635  1.7897 -0.3731
  156SAPE    HY17374   0.863   4.174  10.096  1.1456 -0.1349  0.2138
  156SAPE   O3117375   0.921   4.157   9.887 -0.3688 -0.2831 -0.0121
  156SAPE   C3117376   0.808   4.132   9.828 -0.3525 -0.6578  0.0918
  156SAPE   O3217377   0.700   4.163   9.873  0.2764 -0.5119  0.3174
  156SAPE   C3217378   0.821   4.055   9.702 -0.2667 -0.3005 -0.5857
  156SAPE   H2X17379   0.776   3.956   9.721 -0.3290 -0.1261  0.2250
  156SAPE   H2Y17380   0.924   4.045   9.663 -0.5160 -0.4417 -1.2186
  156SAPE   C2317381   1.120   4.677   9.809  0.1818  0.2599  0.0957
  156SAPE   H3R17382   1.131   4.730   9.906  1.3464  0.3722 -0.0900
  156SAPE   H3S17383   1.014   4.649   9.789  0.4090  0.0819 -0.9240
  156SAPE   C2417384   1.165   4.785   9.698  0.2446  0.0556 -0.7581
  156SAPE   H4R17385   1.136   4.729   9.606 -1.8321  0.5356 -0.4375
  156SAPE   H4S17386   1.273   4.809   9.696 -0.4033  3.5683  0.4413
  156SAPE   C2517387   1.106   4.924   9.698  0.7432  0.1258  0.2250
  156SAPE   H5R17388   1.123   4.986   9.786 -1.4226  0.3040  0.5860
  156SAPE   C2617389   1.045   4.977   9.588  1.2773 -0.3260  0.5053
  156SAPE   H6R17390   1.018   5.084   9.589  0.4164 -0.5378  1.7796
  156SAPE   C2717391   1.005   4.906   9.456 -0.3737  0.6903  0.9340
  156SAPE   H7R17392   0.910   4.947   9.417  0.3968  0.2239 -1.5774
  156SAPE   H7S17393   0.980   4.801   9.484  1.3374 -0.4010 -1.2631
  156SAPE   C2817394   1.102   4.909   9.337  0.7348 -0.0756 -0.5968
  156SAPE   H8R17395   1.181   4.984   9.344  1.1150 -0.4339 -1.0187
  156SAPE   C2917396   1.097   4.816   9.240  0.2516  0.5650  0.0382
  156SAPE   H9R17397   1.171   4.828   9.159  2.3873  1.2768  1.9839
  156SAPE  C21017398   0.985   4.713   9.225 -0.1761  0.2737  0.5306
  156SAPE  H10R17399   0.889   4.740   9.272 -2.1425 -2.4494 -1.5821
  156SAPE  H10S17400   1.015   4.626   9.287  1.2903  0.0410 -0.4398
  156SAPE  C21117401   0.978   4.659   9.081 -0.1985  0.0469  0.3868
  156SAPE  H11R17402   1.046   4.573   9.066  0.3566  0.6200 -0.4133
  156SAPE  C21217403   0.896   4.710   8.980 -0.2660 -0.0791  0.2251
  156SAPE  H12R17404   0.902   4.671   8.877  0.3857 -2.7095  1.1625
  156SAPE  C21317405   0.817   4.829   9.003 -0.2530 -0.1703 -0.1893
  156SAPE  H13R17406   0.829   4.865   9.108  2.0238 -2.7429  0.5810
  156SAPE  H13S17407   0.712   4.799   8.986 -0.4686 -0.1061  0.9542
  156SAPE  C21417408   0.869   4.922   8.886 -0.6134 -0.0128 -0.3842
  156SAPE  H14R17409   0.857   4.900   8.779  2.3495  0.5059 -0.9255
  156SAPE  C21517410   0.928   5.041   8.904  0.0626 -0.4116 -0.2022
  156SAPE  H15R17411   0.965   5.103   8.821 -0.3436 -1.7587 -1.4263
  156SAPE  C21617412   0.966   5.106   9.033  0.0925  0.9933  0.5799
  156SAPE  H16R17413   1.077   5.118   9.038  0.0181  2.3602 -0.4046
  156SAPE  H16S17414   0.932   5.049   9.122 -1.6760  0.6833 -0.2462
  156SAPE  C21717415   0.899   5.250   9.042 -0.1570  1.4476 -0.3666
  156SAPE  H17R17416   0.789   5.236   9.049  0.1830 -2.2512  0.0807
  156SAPE  H17S17417   0.923   5.319   8.959  1.0460  3.7032  1.7220
  156SAPE  C21817418   0.953   5.328   9.160  0.3440  0.4425  0.7150
  156SAPE  H18R17419   0.953   5.436   9.132  2.2658  0.3667  0.2948
  156SAPE  H18S17420   1.061   5.305   9.164  0.6957  1.8632  0.0464
  156SAPE  C21917421   0.883   5.308   9.293  0.0409 -0.5126 -0.8168
  156SAPE  H19R17422   0.906   5.203   9.321 -1.0355 -0.0761  2.1006
  156SAPE  H19S17423   0.774   5.324   9.282  0.1040  1.0047  0.3847
  156SAPE  C22017424   0.937   5.398   9.410 -0.1464 -0.0230  0.2385
  156SAPE  H20R17425   1.046   5.377   9.407  0.0070  0.5375 -3.9141
  156SAPE  H20S17426   0.893   5.369   9.507 -0.7036  0.2080  0.0561
  156SAPE  H20T17427   0.919   5.506   9.391 -0.0077  0.2230  1.4582
  156SAPE   C3317428   0.748   4.122   9.580  0.3871  0.3075  0.4957
  156SAPE   H3X17429   0.804   4.215   9.554 -0.3970  0.5773 -0.2654
  156SAPE   H3Y17430   0.647   4.159   9.605  1.5345  2.0364  2.9884
  156SAPE   C3417431   0.730   4.025   9.465 -0.1360  0.1467  0.4470
  156SAPE   H4X17432   0.651   4.061   9.396  0.9166  1.0115 -0.3456
  156SAPE   H4Y17433   0.704   3.928   9.512  1.3152 -0.2869  0.4156
  156SAPE   C3517434   0.863   4.017   9.379  0.6216 -0.0282 -0.9982
  156SAPE   H5X17435   0.944   4.008   9.454  0.3027  1.4334 -0.4454
  156SAPE   H5Y17436   0.890   4.109   9.323 -0.7870  0.6471 -0.6219
  156SAPE   C3617437   0.862   3.909   9.272  0.0595  0.5402 -0.0099
  156SAPE   H6X17438   0.826   3.817   9.323 -0.0932  0.6335  0.0514
  156SAPE   H6Y17439   0.971   3.902   9.254  0.2069  1.2378  0.5824
  156SAPE   C3717440   0.790   3.933   9.133  0.0418  0.9101 -0.1513
  156SAPE   H7X17441   0.841   4.029   9.108  1.1520  0.8211  1.5796
  156SAPE   H7Y17442   0.679   3.941   9.140 -0.2442 -0.9564 -1.6406
  156SAPE   C3817443   0.822   3.838   9.020 -0.0576 -0.0725 -0.4260
  156SAPE   H8X17444   0.778   3.737   9.033 -0.2803  0.2826  2.0965
  156SAPE   H8Y17445   0.931   3.814   9.021  0.2490  1.2113  0.4074
  156SAPE   C3917446   0.780   3.893   8.880  0.4952  0.7183  0.5349
  156SAPE   H9X17447   0.829   3.990   8.856  1.7649 -0.1811 -0.6582
  156SAPE   H9Y17448   0.673   3.919   8.874  0.2966 -0.2416 -0.3534
  156SAPE  C31017449   0.811   3.784   8.773 -0.0714 -0.2843 -0.2861
  156SAPE  H10X17450   0.754   3.693   8.802 -2.8016  1.4120  0.0737
  156SAPE  H10Y17451   0.917   3.757   8.791 -0.3843  0.2462  2.9773
  156SAPE  C31117452   0.793   3.829   8.629 -0.6531  0.3879  0.6693
  156SAPE  H11X17453   0.864   3.909   8.600 -3.1740  1.4784 -3.2956
  156SAPE  H11Y17454   0.697   3.875   8.600 -0.4195 -0.0443 -0.8805
  156SAPE  C31217455   0.804   3.720   8.521  1.5111 -0.1452 -0.1029
  156SAPE  H12X17456   0.738   3.640   8.561  1.0402  0.7921  1.0560
  156SAPE  H12Y17457   0.902   3.668   8.518  1.2233 -0.6573 -1.2251
  156SAPE  C31317458   0.768   3.766   8.383 -0.0252 -0.5657 -0.1192
  156SAPE  H13X17459   0.820   3.862   8.365 -1.1315 -0.0850 -0.8309
  156SAPE  H13Y17460   0.663   3.803   8.392 -0.1271 -0.8513 -0.1082
  156SAPE  C31417461   0.801   3.664   8.275 -0.1577  0.6038  0.1284
  156SAPE  H14X17462   0.736   3.574   8.289 -2.1698  1.5772 -2.1418
  156SAPE  H14Y17463   0.908   3.635   8.275 -0.6131 -1.2649  0.5593
  156SAPE  C31517464   0.773   3.721   8.144 -0.3625 -0.3633 -0.1795
  156SAPE  H15X17465   0.843   3.683   8.066  2.6648  0.4641  1.9354
  156SAPE  H15Y17466   0.803   3.828   8.145  0.2117 -0.4773 -1.7227
  156SAPE  C31617467   0.629   3.705   8.096  0.2852 -0.3738 -0.1049
  156SAPE  H16X17468   0.570   3.752   8.178  3.4883 -0.6002  2.5583
  156SAPE  H16Y17469   0.601   3.598   8.093 -0.1702 -0.2294 -1.2374
  156SAPE  C31717470   0.598   3.785   7.968 -0.3379 -0.1306  0.4170
  156SAPE  H17X17471   0.673   3.751   7.893 -1.5520 -2.2614  0.0759
  156SAPE  H17Y17472   0.617   3.893   7.985  0.9542  0.0716 -1.9049
  156SAPE  C31817473   0.461   3.769   7.909  0.4049  0.8618 -0.3003
  156SAPE  H18X17474   0.425   3.664   7.906  1.4392  0.3126  2.9525
  156SAPE  H18Y17475   0.462   3.799   7.802 -0.8596 -1.2477 -0.9734
  156SAPE  H18Z17476   0.390   3.829   7.971 -1.3049 -2.2994  1.0592
  157SAPE     N17477   5.929   1.138  10.205  0.8444 -0.3812 -0.2655
  157SAPE   HN117478   5.872   1.114  10.121  1.1841 -0.7580 -0.3878
  157SAPE   HN217479   5.969   1.232  10.185  0.3506 -0.3342 -1.0855
  157SAPE   HN317480   5.999   1.063  10.220 -0.9724 -2.0593  0.3223
  157SAPE   C1217481   5.837   1.135  10.322 -0.3118  0.1650  0.0104
  157SAPE  H12A17482   5.764   1.217  10.302  2.1869  1.9458 -2.7176
  157SAPE  H12B17483   5.891   1.157  10.417  0.6328  3.3909 -1.1251
  157SAPE   C1117484   5.758   1.003  10.320 -0.0210 -0.1814 -0.5425
  157SAPE  H11A17485   5.706   0.994  10.222 -0.8837 -3.3846  0.0839
  157SAPE  H11B17486   5.690   1.009  10.408 -0.6672  0.2699 -1.0639
  157SAPE     P17487   5.830   0.747  10.336  0.6052  0.1241 -0.6392
  157SAPE   O1317488   5.954   0.671  10.342  0.2574  0.2092 -0.1606
  157SAPE   O1417489   5.728   0.730  10.442  0.2768 -0.4842 -0.4490
  157SAPE   O1217490   5.864   0.900  10.329 -0.7467  0.4854 -0.3202
  157SAPE   O1117491   5.764   0.721  10.192 -1.1468 -0.2935 -0.4472
  157SAPE    C117492   5.840   0.735  10.077  0.1331  0.2453 -0.0857
  157SAPE    HA17493   5.902   0.827  10.083 -0.6603  0.6730  3.1656
  157SAPE    HB17494   5.908   0.648  10.067  2.0589  1.6033  0.4815
  157SAPE    C217495   5.750   0.734   9.949  0.0961  0.2832  0.5273
  157SAPE    HS17496   5.822   0.751   9.866 -0.8153 -1.0541 -0.5700
  157SAPE   O2117497   5.646   0.827   9.942  0.4783 -0.1621 -0.4677
  157SAPE   C2117498   5.670   0.959   9.949 -0.3491  0.9415  0.7968
  157SAPE   O2217499   5.776   1.017   9.953 -0.2485  0.6880 -0.7271
  157SAPE   C2217500   5.537   1.039   9.932 -0.7991  1.1966 -0.2703
  157SAPE   H2R17501   5.494   1.031  10.034 -1.8809 -1.1923 -0.8359
  157SAPE   H2S17502   5.551   1.148   9.917 -0.6946  1.0314 -1.4983
  157SAPE    C317503   5.691   0.595   9.924  0.1509  0.2474 -0.2344
  157SAPE    HX17504   5.606   0.577   9.994 -1.1088  1.1110 -1.4984
  157SAPE    HY17505   5.769   0.519   9.945  0.9502  0.8776 -0.8774
  157SAPE   O3117506   5.653   0.574   9.791 -0.5714 -0.7776 -0.3488
  157SAPE   C3117507   5.528   0.542   9.762 -0.3833  0.8620 -0.2974
  157SAPE   O3217508   5.438   0.532   9.845  0.2776 -0.1931 -0.6641
  157SAPE   C3217509   5.517   0.504   9.613  0.1249  0.0656  0.7304
  157SAPE   H2X17510   5.599   0.431   9.593 -0.3744  0.8474 -6.9554
  157SAPE   H2Y17511   5.555   0.583   9.546 -0.9378 -0.5131 -0.6040
  157SAPE   C2317512   5.420   0.982   9.843 -0.5109 -0.4272 -0.4668
  157SAPE   H3R17513   5.330   0.977   9.907 -0.0710  1.6996  0.3850
  157SAPE   H3S17514   5.445   0.880   9.806 -0.4888 -0.8999  0.7899
  157SAPE   C2417515   5.399   1.062   9.715 -0.6884 -0.9516  0.4631
  157SAPE   H4R17516   5.363   1.164   9.741  2.0316  0.4560 -0.9146
  157SAPE   H4S17517   5.324   1.009   9.653 -1.1336 -0.0243  0.2050
  157SAPE   C2517518   5.526   1.091   9.642  0.5764 -0.0213  0.2080
  157SAPE   H5R17519   5.585   1.179   9.673 -1.4304  1.3364  0.3774
  157SAPE   C2617520   5.585   1.025   9.545 -0.3468 -0.1806  0.0492
  157SAPE   H6R17521   5.673   1.067   9.494  1.2476 -1.8679  1.2739
  157SAPE   C2717522   5.526   0.899   9.485  0.4306  0.1862  0.2893
  157SAPE   H7R17523   5.445   0.852   9.545  0.0274  0.0407 -0.3652
  157SAPE   H7S17524   5.607   0.823   9.484 -0.2352 -0.5499 -1.7569
  157SAPE   C2817525   5.465   0.933   9.349  0.1319  0.3437  0.3326
  157SAPE   H8R17526   5.382   1.005   9.348 -0.3231 -0.1741  0.2810
  157SAPE   C2917527   5.487   0.862   9.238  0.0061 -0.5156  0.6924
  157SAPE   H9R17528   5.424   0.888   9.152 -0.0330  1.1705  1.2107
  157SAPE  C21017529   5.579   0.743   9.220  0.0826 -0.1667  0.0863
  157SAPE  H10R17530   5.576   0.686   9.315  0.9951 -0.2125  0.0948
  157SAPE  H10S17531   5.682   0.780   9.202  0.4644 -1.8444 -1.5312
  157SAPE  C21117532   5.534   0.641   9.126 -0.5094  0.3142  0.3485
  157SAPE  H11R17533   5.486   0.554   9.173 -1.1250  1.0515  1.1194
  157SAPE  C21217534   5.523   0.649   8.999 -0.6198 -0.2059 -0.2572
  157SAPE  H12R17535   5.486   0.567   8.935 -1.1397 -1.4649  1.5652
  157SAPE  C21317536   5.570   0.761   8.905  0.0412 -0.6274  0.2259
  157SAPE  H13R17537   5.598   0.849   8.967  0.1670  0.9758 -1.9497
  157SAPE  H13S17538   5.482   0.803   8.852  0.3129 -1.5856 -1.0319
  157SAPE  C21417539   5.686   0.725   8.815  0.0173  0.0317 -0.3454
  157SAPE  H14R17540   5.777   0.681   8.859 -1.0212 -0.9735  0.8717
  157SAPE  C21517541   5.683   0.721   8.683 -0.6942 -0.2645  0.4132
  157SAPE  H15R17542   5.772   0.697   8.623 -2.3261 -0.4521 -2.0954
  157SAPE  C21617543   5.573   0.767   8.590  0.3703  0.1902 -0.6821
  157SAPE  H16R17544   5.611   0.803   8.492 -1.0761  2.7685 -0.3974
  157SAPE  H16S17545   5.503   0.840   8.637  1.8029  0.8629  0.4885
  157SAPE  C21717546   5.487   0.648   8.550 -0.8885 -0.0124 -0.0029
  157SAPE  H17R17547   5.444   0.618   8.648  3.4179 -1.9078  1.5699
  157SAPE  H17S17548   5.550   0.563   8.516 -1.3094 -1.1116  1.7995
  157SAPE  C21817549   5.377   0.663   8.443  0.2159  0.5791 -0.1535
  157SAPE  H18R17550   5.324   0.566   8.429  1.4716 -0.1035 -0.3999
  157SAPE  H18S17551   5.422   0.687   8.344 -0.2107 -0.6018 -0.6607
  157SAPE  C21917552   5.277   0.767   8.487  1.0168 -0.0375 -0.5916
  157SAPE  H19R17553   5.318   0.870   8.491  0.5672  0.2574 -2.4962
  157SAPE  H19S17554   5.248   0.738   8.590  1.1580 -0.1893 -0.5951
  157SAPE  C22017555   5.159   0.772   8.394  0.0923  0.6283  0.4642
  157SAPE  H20R17556   5.117   0.675   8.361  0.6185  0.0496  1.4506
  157SAPE  H20S17557   5.192   0.831   8.305  2.0313  0.8318  1.2660
  157SAPE  H20T17558   5.076   0.829   8.442 -2.4325 -1.1922 -1.4259
  157SAPE   C3317559   5.372   0.451   9.579  0.6537  0.3051 -0.4217
  157SAPE   H3X17560   5.289   0.525   9.590  0.8377  0.7083 -1.5970
  157SAPE   H3Y17561   5.342   0.373   9.652 -1.1646  0.7589 -0.6395
  157SAPE   C3417562   5.359   0.388   9.436 -0.0650 -0.3007 -0.9093
  157SAPE   H4X17563   5.328   0.282   9.452  0.5621 -0.1113  2.3337
  157SAPE   H4Y17564   5.458   0.376   9.387 -1.1123 -3.0399 -2.5594
  157SAPE   C3517565   5.279   0.464   9.337  1.2521  0.0229 -0.3170
  157SAPE   H5X17566   5.330   0.556   9.302  0.2517  0.7668  0.0887
  157SAPE   H5Y17567   5.189   0.497   9.394  1.7427 -0.0291  0.5034
  157SAPE   C3617568   5.242   0.394   9.208 -0.8153 -0.1644 -0.0307
  157SAPE   H6X17569   5.198   0.295   9.232 -2.5984  1.2349  2.9647
  157SAPE   H6Y17570   5.326   0.371   9.139 -2.3910  0.0896 -2.1354
  157SAPE   C3717571   5.139   0.481   9.129 -0.3602  0.3555  0.6853
  157SAPE   H7X17572   5.169   0.584   9.102  2.6025 -0.6986 -0.6050
  157SAPE   H7Y17573   5.058   0.489   9.204  0.2636  0.6915  1.3319
  157SAPE   C3817574   5.096   0.404   9.002  0.2814 -0.5571 -0.4691
  157SAPE   H8X17575   4.990   0.429   8.981 -0.0246 -2.5060 -1.4799
  157SAPE   H8Y17576   5.105   0.295   9.023  1.1735 -0.2458  0.9406
  157SAPE   C3917577   5.185   0.430   8.879  0.5193  0.4051 -0.7977
  157SAPE   H9X17578   5.282   0.375   8.889  0.2301  0.1540  1.0856
  157SAPE   H9Y17579   5.215   0.537   8.875 -0.5037  0.9740  2.8725
  157SAPE  C31017580   5.134   0.378   8.748  0.3918  0.3726 -0.8597
  157SAPE  H10X17581   5.037   0.427   8.726 -0.5918  0.0698  2.2734
  157SAPE  H10Y17582   5.111   0.270   8.766  0.7214  0.5836  0.9319
  157SAPE  C31117583   5.229   0.378   8.624  0.3947  0.0024  0.0009
  157SAPE  H11X17584   5.312   0.451   8.633  0.4438  0.0243 -0.5636
  157SAPE  H11Y17585   5.185   0.399   8.524 -0.5265 -1.0757  0.1593
  157SAPE  C31217586   5.302   0.246   8.600 -0.1774  0.1059 -0.2138
  157SAPE  H12X17587   5.226   0.165   8.590 -0.6783  0.4016  0.9705
  157SAPE  H12Y17588   5.361   0.221   8.691  2.5570 -0.7219 -2.0823
  157SAPE  C31317589   5.386   0.252   8.475 -0.4115  0.5908  0.6295
  157SAPE  H13X17590   5.451   0.162   8.479  1.6107  1.8909 -1.0030
  157SAPE  H13Y17591   5.464   0.331   8.481  1.5604 -1.3432  3.4295
  157SAPE  C31417592   5.313   0.245   8.346  0.4433 -0.0861  0.2613
  157SAPE  H14X17593   5.256   0.336   8.316 -0.7012 -0.9779 -0.3439
  157SAPE  H14Y17594   5.238   0.163   8.355 -2.0306  2.1576  1.6121
  157SAPE  C31517595   5.393   0.209   8.223  0.0964 -0.6431  0.2960
  157SAPE  H15X17596   5.452   0.122   8.260  2.5678  0.6093 -0.4314
  157SAPE  H15Y17597   5.473   0.277   8.186 -0.1158 -0.8750 -0.6216
  157SAPE  C31617598   5.310   0.165   8.093  0.2115  0.3896  0.1119
  157SAPE  H16X17599   5.236   0.087   8.122  0.6331 -0.0998 -0.1044
  157SAPE  H16Y17600   5.377   0.124   8.014 -2.0679 -0.5007 -1.4739
  157SAPE  C31717601   5.237   0.289   8.033 -0.0510  0.0842 -0.5381
  157SAPE  H17X17602   5.291   0.386   8.044  0.6483 -0.4328  0.9590
  157SAPE  H17Y17603   5.135   0.297   8.076  0.3248 -1.8350  0.8675
  157SAPE  C31817604   5.226   0.269   7.883 -0.1740  0.2431 -0.5807
  157SAPE  H18X17605   5.177   0.172   7.863 -1.9785  0.8059  0.8676
  157SAPE  H18Y17606   5.330   0.267   7.844 -0.5042  1.2838 -1.5800
  157SAPE  H18Z17607   5.161   0.343   7.831  0.4176  0.9642 -0.3131
  158SAPE     N17608   1.525   5.742  10.617  0.0986  0.2273 -0.4679
  158SAPE   HN117609   1.581   5.658  10.641 -0.7161  0.6888  4.0619
  158SAPE   HN217610   1.562   5.782  10.528 -0.6011  1.4702 -0.2289
  158SAPE   HN317611   1.539   5.810  10.695  2.7604  1.3138 -1.7566
  158SAPE   C1217612   1.383   5.699  10.597  0.0689  0.3019  0.1717
  158SAPE  H12A17613   1.370   5.623  10.677  0.4382 -2.1883 -2.0091
  158SAPE  H12B17614   1.378   5.640  10.503  2.2921  0.7739 -0.2911
  158SAPE   C1117615   1.283   5.814  10.596 -0.0159 -0.4797  0.2622
  158SAPE  H11A17616   1.280   5.860  10.696  3.6166  0.3644  0.1204
  158SAPE  H11B17617   1.187   5.769  10.560 -0.0625  0.9308 -1.5755
  158SAPE     P17618   1.243   6.051  10.484 -0.2948 -0.0112  0.0974
  158SAPE   O1317619   1.187   6.091  10.614 -0.5629  0.2478  0.0678
  158SAPE   O1417620   1.328   6.149  10.415 -0.6737 -0.4447  0.0229
  158SAPE   O1217621   1.323   5.911  10.498  0.1748 -0.2716 -0.7898
  158SAPE   O1117622   1.127   6.004  10.385  0.2925 -0.0474 -0.3718
  158SAPE    C117623   1.139   6.026  10.244  0.3980  0.2378 -0.1648
  158SAPE    HA17624   1.042   6.048  10.194  1.4134  0.0683 -2.3569
  158SAPE    HB17625   1.186   6.125  10.228  0.7547  0.0322 -0.4101
  158SAPE    C217626   1.221   5.902  10.179  0.1523  0.3507 -0.4636
  158SAPE    HS17627   1.322   5.902  10.225  0.2056 -0.5747 -0.5584
  158SAPE   O2117628   1.219   5.914  10.033  0.3630 -0.9564 -0.1670
  158SAPE   C2117629   1.313   6.001  10.000 -0.2222 -0.0470 -0.3576
  158SAPE   O2217630   1.401   6.042  10.075 -0.1647  1.1009 -0.0378
  158SAPE   C2217631   1.288   6.044   9.855  0.1486  0.3270  0.2098
  158SAPE   H2R17632   1.187   6.010   9.824 -0.0564  1.0636  0.0433
  158SAPE   H2S17633   1.285   6.155   9.847  0.4520  0.2378 -1.8649
  158SAPE    C317634   1.154   5.768  10.218  0.2993  0.4987  0.5913
  158SAPE    HX17635   1.048   5.773  10.185  0.9415 -2.4727 -2.5531
  158SAPE    HY17636   1.144   5.752  10.327 -0.4799 -3.6447  0.0939
  158SAPE   O3117637   1.229   5.648  10.168  0.8074 -0.0742 -0.4084
  158SAPE   C3117638   1.159   5.578  10.079 -0.9659 -0.0874  0.6812
  158SAPE   O3217639   1.041   5.588  10.053  0.4495 -0.7017 -0.0589
  158SAPE   C3217640   1.253   5.479  10.008  0.2814  0.0069  0.2077
  158SAPE   H2X17641   1.250   5.379  10.056 -2.7714  1.5881  3.8201
  158SAPE   H2Y17642   1.356   5.517  10.022 -0.4882  1.4099  2.8187
  158SAPE   C2317643   1.397   5.990   9.757  0.9505 -0.1704  0.5635
  158SAPE   H3R17644   1.395   5.880   9.747  1.9207 -0.1177 -0.4079
  158SAPE   H3S17645   1.494   6.027   9.797  2.0482 -0.7193 -1.4897
  158SAPE   C2417646   1.379   6.045   9.615 -0.6562 -0.3768 -0.1343
  158SAPE   H4R17647   1.380   6.156   9.626 -2.6876 -0.5315  2.4691
  158SAPE   H4S17648   1.274   6.022   9.586 -0.2806 -1.6513 -0.5621
  158SAPE   C2517649   1.482   6.008   9.515 -0.5651 -0.2199  0.2960
  158SAPE   H5R17650   1.538   5.919   9.546  0.1874 -0.7892 -2.4363
  158SAPE   C2617651   1.508   6.079   9.400 -0.3665 -0.6951 -0.1436
  158SAPE   H6R17652   1.597   6.050   9.341  0.9786  2.2214  0.2806
  158SAPE   C2717653   1.436   6.204   9.353 -0.0022 -0.0218  0.3729
  158SAPE   H7R17654   1.513   6.277   9.321  1.6563 -1.2852  1.3451
  158SAPE   H7S17655   1.392   6.258   9.439 -1.0317 -1.6864  0.9290
  158SAPE   C2817656   1.327   6.182   9.250  0.5975  0.7749 -0.1979
  158SAPE   H8R17657   1.225   6.182   9.289  0.2824 -0.5773 -0.9510
  158SAPE   C2917658   1.340   6.157   9.121 -0.6538  0.6890  0.4711
  158SAPE   H9R17659   1.250   6.147   9.058  0.5001 -0.1229 -1.1029
  158SAPE  C21017660   1.469   6.148   9.043 -0.6599 -0.4280  0.3429
  158SAPE  H10R17661   1.557   6.201   9.085 -0.5412  1.1627 -1.7282
  158SAPE  H10S17662   1.458   6.199   8.945 -0.0042  1.7304  1.3273
  158SAPE  C21117663   1.506   6.003   9.027 -0.2966 -0.1191  0.1566
  158SAPE  H11R17664   1.487   5.947   9.119 -0.6678 -1.0661 -0.4800
  158SAPE  C21217665   1.536   5.938   8.915 -0.2312  0.1723 -0.2971
  158SAPE  H12R17666   1.559   5.831   8.924  0.5146  0.3793  0.3272
  158SAPE  C21317667   1.552   6.001   8.781  0.5096 -0.6332 -0.1521
  158SAPE  H13R17668   1.540   6.112   8.776  1.3331 -0.5345 -0.2072
  158SAPE  H13S17669   1.459   5.975   8.727  0.3372 -2.8415  1.0895
  158SAPE  C21417670   1.667   5.965   8.693 -0.3988 -0.3205 -0.1170
  158SAPE  H14R17671   1.664   5.861   8.656  0.7563 -0.6998  0.7997
  158SAPE  C21517672   1.776   6.042   8.676  0.4180  0.1203 -0.4860
  158SAPE  H15R17673   1.853   6.006   8.606 -0.9207  0.9376 -2.4565
  158SAPE  C21617674   1.782   6.179   8.733 -0.5775  0.0040 -0.7524
  158SAPE  H16R17675   1.698   6.213   8.797 -1.5267 -1.2146 -1.3265
  158SAPE  H16S17676   1.799   6.254   8.652 -1.4193  0.0727 -0.8694
  158SAPE  C21717677   1.904   6.186   8.833 -0.0421  0.2817  0.1194
  158SAPE  H17R17678   1.884   6.128   8.926 -0.4591 -1.1679 -0.8460
  158SAPE  H17S17679   1.901   6.290   8.872  1.4221  0.5338 -0.3828
  158SAPE  C21817680   2.038   6.168   8.765 -0.0169  0.4623 -0.4524
  158SAPE  H18R17681   2.046   6.243   8.683 -1.7334  0.2130 -0.8881
  158SAPE  H18S17682   2.051   6.069   8.716 -0.0885 -0.2561  0.9454
  158SAPE  C21917683   2.151   6.190   8.866  0.1785  0.0133  0.2383
  158SAPE  H19R17684   2.168   6.125   8.954  3.1325  0.9542  0.4536
  158SAPE  H19S17685   2.116   6.287   8.907  3.2256  1.2709  0.1132
  158SAPE  C22017686   2.286   6.208   8.801  0.4253  0.0572  0.3826
  158SAPE  H20R17687   2.314   6.118   8.743 -0.9224  0.7303 -1.4416
  158SAPE  H20S17688   2.364   6.216   8.880  0.7082  1.2560  0.0093
  158SAPE  H20T17689   2.274   6.298   8.737  0.7189  0.3014  0.6639
  158SAPE   C3317690   1.206   5.472   9.859  0.7459 -0.1168 -0.1465
  158SAPE   H3X17691   1.101   5.438   9.844  0.4798  0.0554  1.1969
  158SAPE   H3Y17692   1.277   5.403   9.807  1.5107  0.7752 -0.3067
  158SAPE   C3417693   1.225   5.612   9.778  0.3257 -0.4375  0.0451
  158SAPE   H4X17694   1.313   5.654   9.831 -0.2838 -2.5710  3.0120
  158SAPE   H4Y17695   1.144   5.683   9.806  2.2260  1.4332  1.0958
  158SAPE   C3517696   1.240   5.592   9.625  0.0520 -0.1810 -0.1153
  158SAPE   H5X17697   1.167   5.514   9.595 -1.3426 -0.7611  4.1140
  158SAPE   H5Y17698   1.342   5.553   9.605  0.7041  1.4219 -0.0107
  158SAPE   C3617699   1.196   5.724   9.560  0.8432 -0.1621  0.3810
  158SAPE   H6X17700   1.221   5.817   9.616 -0.6115  1.0175 -0.8417
  158SAPE   H6Y17701   1.086   5.724   9.547  0.4525 -5.1676  1.6727
  158SAPE   C3717702   1.264   5.759   9.423  0.7015 -0.6415  0.3719
  158SAPE   H7X17703   1.372   5.731   9.424  0.6806 -0.7232  0.2970
  158SAPE   H7Y17704   1.242   5.866   9.403  0.1796 -1.3894 -3.9402
  158SAPE   C3817705   1.215   5.679   9.305  0.7414  0.0478  0.1257
  158SAPE   H8X17706   1.106   5.660   9.309  0.7205 -0.1774 -1.1796
  158SAPE   H8Y17707   1.269   5.582   9.316  3.4149  1.6514  2.4058
  158SAPE   C3917708   1.244   5.732   9.161  0.3328  0.0801 -0.2733
  158SAPE   H9X17709   1.352   5.757   9.156 -0.2635  3.1803  0.5389
  158SAPE   H9Y17710   1.190   5.827   9.143  0.8023  0.5389  0.6611
  158SAPE  C31017711   1.213   5.630   9.058  0.3694  0.2081 -0.1262
  158SAPE  H10X17712   1.111   5.599   9.087  0.0854  2.3766  1.4266
  158SAPE  H10Y17713   1.264   5.531   9.069  1.7974  0.9732  0.4685
  158SAPE  C31117714   1.218   5.690   8.917 -0.1199 -0.2896 -0.2079
  158SAPE  H11X17715   1.252   5.616   8.841  0.6527  3.0180 -3.3599
  158SAPE  H11Y17716   1.297   5.765   8.936  1.3917 -2.1140  1.1091
  158SAPE  C31217717   1.087   5.763   8.872  0.0528 -0.1857  0.6181
  158SAPE  H12X17718   1.061   5.826   8.960  0.8670 -1.1577  1.5889
  158SAPE  H12Y17719   1.010   5.683   8.865 -1.3269  1.1924 -1.0304
  158SAPE  C31317720   1.105   5.847   8.748 -0.2521 -0.3744 -0.8373
  158SAPE  H13X17721   1.142   5.782   8.666 -0.2984 -0.0011 -1.1615
  158SAPE  H13Y17722   1.181   5.926   8.764 -0.3267 -0.5545  0.4864
  158SAPE  C31417723   0.975   5.901   8.690 -0.7276 -0.1170  0.3071
  158SAPE  H14X17724   0.910   5.811   8.676  0.1734 -0.7553  0.0973
  158SAPE  H14Y17725   0.988   5.944   8.589  0.3641  1.2246  0.9855
  158SAPE  C31517726   0.915   6.010   8.774  0.4951 -0.1500  0.5236
  158SAPE  H15X17727   0.987   6.094   8.780 -0.8113  1.0308  0.1945
  158SAPE  H15Y17728   0.896   5.986   8.881  2.7038  0.6391  1.1476
  158SAPE  C31617729   0.787   6.070   8.705  0.9279  0.0140  0.4088
  158SAPE  H16X17730   0.810   6.089   8.598  0.2231  0.8331  0.3989
  158SAPE  H16Y17731   0.777   6.171   8.751 -1.2999  1.0772 -2.1328
  158SAPE  C31717732   0.661   5.988   8.738  0.3901 -0.1089 -0.4844
  158SAPE  H17X17733   0.630   6.010   8.843  2.2275 -2.3603  0.6304
  158SAPE  H17Y17734   0.681   5.881   8.718 -0.1688 -0.6067  1.3819
  158SAPE  C31817735   0.543   6.036   8.647  0.3219  0.4326 -0.0159
  158SAPE  H18X17736   0.539   6.147   8.652 -0.5409  0.6303 -3.0216
  158SAPE  H18Y17737   0.443   6.009   8.685 -0.1831  1.8377 -0.2816
  158SAPE  H18Z17738   0.562   6.004   8.542 -2.1178 -2.1011  0.2200
  159SAPE     N17739   4.994   6.083   5.442  0.8250  0.0228  0.1185
  159SAPE   HN117740   4.926   6.153   5.405 -0.1523 -1.3072 -0.6677
  159SAPE   HN217741   4.973   6.086   5.544 -0.0223 -0.4512 -0.0343
  159SAPE   HN317742   5.095   6.094   5.423  0.8595 -1.8176 -0.9628
  159SAPE   C1217743   4.950   5.953   5.376 -0.2956  0.3611  0.0471
  159SAPE  H12A17744   4.975   5.957   5.268  0.5294  0.1725  0.2208
  159SAPE  H12B17745   4.843   5.937   5.403 -0.7351  0.1921 -1.7073
  159SAPE   C1117746   5.020   5.829   5.433  0.3681  0.8206 -0.8996
  159SAPE  H11A17747   5.127   5.827   5.404  1.0903  1.0167  1.4951
  159SAPE  H11B17748   4.976   5.745   5.375  1.5475  0.7151 -1.6788
  159SAPE     P17749   4.967   5.689   5.648 -0.0484 -0.2980 -0.2553
  159SAPE   O1317750   4.832   5.713   5.705 -0.5687 -0.3597 -0.0338
  159SAPE   O1417751   4.976   5.573   5.559  0.8001  0.3807  0.4767
  159SAPE   O1217752   5.017   5.816   5.577  0.2550 -0.5811 -0.0634
  159SAPE   O1117753   5.073   5.668   5.763 -0.0404  0.3949 -0.0575
  159SAPE    C117754   5.162   5.772   5.810  0.4995  0.6926 -0.9841
  159SAPE    HA17755   5.252   5.762   5.745  0.0199 -0.8161 -1.4642
  159SAPE    HB17756   5.119   5.873   5.797 -0.8667  0.1677 -0.7064
  159SAPE    C217757   5.217   5.736   5.949 -0.6950  0.1695  0.5910
  159SAPE    HS17758   5.227   5.626   5.956  1.7657  0.3528  0.7996
  159SAPE   O2117759   5.129   5.788   6.044  0.1166 -0.5661 -0.0218
  159SAPE   C2117760   5.027   5.717   6.078 -0.3404 -0.0030 -0.7014
  159SAPE   O2217761   4.999   5.604   6.038  0.2396 -0.0243 -0.6340
  159SAPE   C2217762   4.943   5.795   6.184 -0.7282  0.0985 -0.1066
  159SAPE   H2R17763   5.012   5.828   6.264 -1.5878  0.1657  0.6280
  159SAPE   H2S17764   4.901   5.887   6.137 -1.0952 -0.4859 -0.9599
  159SAPE    C317765   5.359   5.791   5.968 -0.3168  0.2087  0.1513
  159SAPE    HX17766   5.369   5.895   5.930 -3.0001  0.4361 -0.1169
  159SAPE    HY17767   5.426   5.725   5.908  0.7809 -0.1085  1.6480
  159SAPE   O3117768   5.406   5.780   6.104  0.1425 -0.0608 -0.1807
  159SAPE   C3117769   5.531   5.828   6.117 -0.0789  0.4518 -1.0192
  159SAPE   O3217770   5.595   5.890   6.034  0.0255  0.8735 -0.9953
  159SAPE   C3217771   5.573   5.788   6.257 -0.0208  0.0196  0.2011
  159SAPE   H2X17772   5.491   5.801   6.332  0.1490  1.1238  0.2182
  159SAPE   H2Y17773   5.647   5.863   6.292  1.4082 -0.9238 -0.7265
  159SAPE   C2317774   4.823   5.724   6.248 -0.4316  0.4864  0.8334
  159SAPE   H3R17775   4.858   5.621   6.270  0.9661  1.0016  1.0940
  159SAPE   H3S17776   4.738   5.730   6.177  0.2722  0.8242  0.0003
  159SAPE   C2417777   4.775   5.778   6.382  0.3443  0.4665 -0.9566
  159SAPE   H4R17778   4.851   5.761   6.461 -0.6413  0.0071 -0.0870
  159SAPE   H4S17779   4.687   5.718   6.413 -0.5919  2.0431 -0.4300
  159SAPE   C2517780   4.735   5.923   6.382  0.5784 -0.3393  0.1164
  159SAPE   H5R17781   4.659   5.955   6.309  1.3649  1.8285  0.1821
  159SAPE   C2617782   4.770   6.017   6.480 -0.5351 -0.6210  0.5394
  159SAPE   H6R17783   4.727   6.116   6.459  0.4620  0.2763  2.5115
  159SAPE   C2717784   4.862   5.993   6.602 -0.1276  0.0022  0.2773
  159SAPE   H7R17785   4.944   6.068   6.597 -0.4342  0.2809 -2.2907
  159SAPE   H7S17786   4.929   5.905   6.585  0.7765  0.7827 -0.3024
  159SAPE   C2817787   4.791   5.984   6.729 -0.2266  0.4831 -0.3152
  159SAPE   H8R17788   4.690   5.942   6.717 -0.9976  2.6003 -1.7764
  159SAPE   C2917789   4.837   6.017   6.851  0.0860 -0.3134  0.8589
  159SAPE   H9R17790   4.764   6.019   6.933  0.8390  0.9549  1.5320
  159SAPE  C21017791   4.969   6.080   6.885  0.5825  0.6072  0.2379
  159SAPE  H10R17792   4.951   6.189   6.904  1.1758  1.0970 -1.8118
  159SAPE  H10S17793   5.039   6.071   6.800  2.0028 -1.3467  1.5376
  159SAPE  C21117794   5.026   6.008   7.005  0.4330  0.2234 -0.1738
  159SAPE  H11R17795   5.058   5.905   6.983 -2.7190 -0.4004 -2.6830
  159SAPE  C21217796   5.032   6.060   7.128  0.8280  0.1182 -0.2259
  159SAPE  H12R17797   5.077   5.988   7.198  0.8732 -0.0435 -0.4183
  159SAPE  C21317798   4.990   6.199   7.168  0.0683 -0.5767 -0.5026
  159SAPE  H13R17799   4.879   6.209   7.158  0.0306  1.2615  1.1705
  159SAPE  H13S17800   5.032   6.262   7.087 -2.0271  0.7476 -0.6436
  159SAPE  C21417801   5.039   6.235   7.300  0.3588 -0.7999 -0.8312
  159SAPE  H14R17802   5.148   6.255   7.303  0.0724  0.8685  0.8001
  159SAPE  C21517803   4.963   6.279   7.403 -0.2475  0.4306 -0.1429
  159SAPE  H15R17804   5.018   6.312   7.492  1.0062  2.4936 -1.5811
  159SAPE  C21617805   4.819   6.277   7.423 -0.4674 -0.4050  0.5093
  159SAPE  H16R17806   4.773   6.224   7.337  3.2280 -1.2304 -1.1457
  159SAPE  H16S17807   4.775   6.379   7.423 -1.7926 -0.8968 -2.0026
  159SAPE  C21717808   4.783   6.192   7.545 -0.4237  0.0579 -0.6676
  159SAPE  H17R17809   4.807   6.086   7.523 -2.5429 -0.7398  0.5130
  159SAPE  H17S17810   4.672   6.195   7.544 -0.4358  0.3552 -2.9286
  159SAPE  C21817811   4.833   6.248   7.682  0.2433 -0.5103  0.3412
  159SAPE  H18R17812   4.807   6.355   7.699  2.1692  0.4139 -1.9144
  159SAPE  H18S17813   4.944   6.248   7.688  0.3069 -2.4630 -0.2337
  159SAPE  C21917814   4.768   6.185   7.804  0.1909  0.3905  0.1560
  159SAPE  H19R17815   4.796   6.249   7.890  0.4923  0.9871 -0.3714
  159SAPE  H19S17816   4.801   6.080   7.818  1.8597  1.1390  2.3724
  159SAPE  C22017817   4.617   6.173   7.802 -0.0002  0.3885  0.1227
  159SAPE  H20R17818   4.578   6.129   7.708 -1.6744 -1.2241  1.5029
  159SAPE  H20S17819   4.573   6.272   7.826  1.5612  1.1069  0.1753
  159SAPE  H20T17820   4.592   6.101   7.883  1.0256 -0.0826  0.0414
  159SAPE   C3317821   5.632   5.646   6.265  0.5949 -0.0191 -0.0259
  159SAPE   H3X17822   5.707   5.635   6.184 -0.3182 -0.5659 -0.8035
  159SAPE   H3Y17823   5.555   5.573   6.233  0.7433  0.5224 -1.6779
  159SAPE   C3417824   5.683   5.598   6.399 -0.5436  0.2096  0.6614
  159SAPE   H4X17825   5.744   5.668   6.460  0.3894  0.9523 -1.0755
  159SAPE   H4Y17826   5.742   5.507   6.372 -0.0762  0.4781  0.7718
  159SAPE   C3517827   5.574   5.542   6.490 -0.1777  0.3978  0.2578
  159SAPE   H5X17828   5.518   5.464   6.434 -0.6548  0.9001  0.0342
  159SAPE   H5Y17829   5.507   5.629   6.504  1.0489  1.2531  1.0959
  159SAPE   C3617830   5.618   5.495   6.625 -0.0589  0.9515 -0.4321
  159SAPE   H6X17831   5.688   5.409   6.618 -0.5992  0.5312 -0.7296
  159SAPE   H6Y17832   5.521   5.458   6.666  0.0356  2.2222  1.0176
  159SAPE   C3717833   5.664   5.610   6.715 -0.8279  0.3154 -0.8604
  159SAPE   H7X17834   5.595   5.694   6.691 -1.0188  0.0305 -1.3236
  159SAPE   H7Y17835   5.766   5.625   6.673 -1.6966  0.3157 -3.1344
  159SAPE   C3817836   5.681   5.566   6.866 -0.4785  0.1859 -0.0997
  159SAPE   H8X17837   5.583   5.518   6.885 -0.9421  0.6853 -1.1818
  159SAPE   H8Y17838   5.697   5.661   6.922  3.2920  1.5729 -3.0619
  159SAPE   C3917839   5.796   5.468   6.890 -0.4079 -0.2302 -0.0401
  159SAPE   H9X17840   5.890   5.509   6.848 -0.2921  1.0515  1.3702
  159SAPE   H9Y17841   5.792   5.373   6.833  1.7937  0.7978 -2.0646
  159SAPE  C31017842   5.809   5.433   7.042 -0.1015  0.4124  0.4655
  159SAPE  H10X17843   5.713   5.394   7.082  0.2572 -2.7048 -1.3461
  159SAPE  H10Y17844   5.838   5.519   7.106 -0.8556  0.8562  0.2242
  159SAPE  C31117845   5.915   5.324   7.052 -0.0274 -0.1742 -0.2552
  159SAPE  H11X17846   6.015   5.363   7.022 -0.0557 -1.7952 -2.7730
  159SAPE  H11Y17847   5.884   5.235   6.993 -1.2956  0.1610 -0.1081
  159SAPE  C31217848   5.935   5.272   7.195 -1.0346  0.4108  0.0232
  159SAPE  H12X17849   5.967   5.356   7.261 -1.2151  0.5196 -0.0246
  159SAPE  H12Y17850   6.017   5.198   7.204  0.6096  2.1950  0.3239
  159SAPE  C31317851   5.806   5.215   7.256  0.2068 -0.1288 -0.1376
  159SAPE  H13X17852   5.755   5.143   7.189  3.2398 -1.0818 -1.5931
  159SAPE  H13Y17853   5.737   5.302   7.263 -1.0018 -0.9680 -1.2471
  159SAPE  C31417854   5.822   5.151   7.395  0.0813 -0.2607  0.4462
  159SAPE  H14X17855   5.856   5.240   7.452  0.6167  2.4271 -3.6880
  159SAPE  H14Y17856   5.897   5.069   7.391 -0.5043 -0.8213  0.7392
  159SAPE  C31517857   5.690   5.090   7.439  0.4364 -0.3767 -0.0613
  159SAPE  H15X17858   5.642   5.016   7.371  1.5087  1.1217 -2.5929
  159SAPE  H15Y17859   5.619   5.176   7.434  0.2277 -0.3362  2.5338
  159SAPE  C31617860   5.703   5.032   7.580  0.6446 -0.6555 -0.1929
  159SAPE  H16X17861   5.788   4.961   7.586  0.0080 -1.4820 -0.7926
  159SAPE  H16Y17862   5.611   4.973   7.597 -0.5355  1.0151 -0.6007
  159SAPE  C31717863   5.712   5.146   7.684  0.0236 -0.1542 -0.3376
  159SAPE  H17X17864   5.629   5.219   7.682  0.9502  0.9196 -0.5770
  159SAPE  H17Y17865   5.802   5.209   7.666  1.8172 -1.9730  1.6089
  159SAPE  C31817866   5.707   5.084   7.821 -0.4643 -0.9570 -0.5338
  159SAPE  H18X17867   5.615   5.025   7.837 -1.1732  0.3391  0.4502
  159SAPE  H18Y17868   5.691   5.163   7.898 -0.0474 -1.6591  0.2914
  159SAPE  H18Z17869   5.794   5.021   7.849  0.4095 -1.1927 -3.5096
  160SAPE     N17870   1.392   3.307   5.989  0.5241 -0.0591 -0.1176
  160SAPE   HN117871   1.346   3.221   5.954  2.0594 -2.8572  3.9645
  160SAPE   HN217872   1.326   3.379   6.024  1.9212  0.8787  0.7325
  160SAPE   HN317873   1.448   3.347   5.911 -0.3734  0.3094 -0.5834
  160SAPE   C1217874   1.491   3.260   6.091  0.3017 -0.1381 -0.3717
  160SAPE  H12A17875   1.523   3.356   6.137 -4.0825  2.1017 -1.4550
  160SAPE  H12B17876   1.572   3.205   6.038  0.6553 -0.3588  0.3807
  160SAPE   C1117877   1.429   3.172   6.204  0.1953 -0.1249  0.2123
  160SAPE  H11A17878   1.344   3.226   6.251 -0.2525  0.8560 -1.6357
  160SAPE  H11B17879   1.512   3.160   6.277 -0.4164 -0.0808  0.9287
  160SAPE     P17880   1.266   2.974   6.219 -0.1127 -0.1519 -0.0808
  160SAPE   O1317881   1.154   3.065   6.198 -0.6352  0.6367  0.4466
  160SAPE   O1417882   1.261   2.840   6.153 -0.6196  0.1109 -0.7364
  160SAPE   O1217883   1.402   3.046   6.159 -0.3352  0.2419 -0.5122
  160SAPE   O1117884   1.279   2.963   6.376 -0.0527 -0.3924  0.0498
  160SAPE    C117885   1.401   2.915   6.437 -0.1098  0.1976 -0.3489
  160SAPE    HA17886   1.435   2.818   6.395 -1.8346 -0.7739  0.3770
  160SAPE    HB17887   1.480   2.993   6.447  0.2911 -0.2829  0.3369
  160SAPE    C217888   1.357   2.865   6.589 -0.4035  0.4378 -0.1924
  160SAPE    HS17889   1.328   2.954   6.649  1.2037  0.6085  0.3769
  160SAPE   O2117890   1.459   2.790   6.651 -0.0702 -0.2574 -0.0110
  160SAPE   C2117891   1.573   2.854   6.688  1.0237  1.1098  0.1745
  160SAPE   O2217892   1.595   2.972   6.665  0.3971  0.9814 -0.0812
  160SAPE   C2217893   1.678   2.762   6.764  0.0242  0.0875 -0.0818
  160SAPE   H2R17894   1.719   2.693   6.687  0.8346 -0.7250  1.0216
  160SAPE   H2S17895   1.754   2.835   6.799  1.1086  0.3804 -2.8191
  160SAPE    C317896   1.228   2.780   6.581  0.0261  0.6475  0.1532
  160SAPE    HX17897   1.246   2.687   6.522  0.1317 -0.1145  1.3531
  160SAPE    HY17898   1.151   2.821   6.512  0.8340  1.4316 -0.3005
  160SAPE   O3117899   1.176   2.736   6.713  0.3272  0.3684  0.6255
  160SAPE   C3117900   1.106   2.843   6.764  0.1374  0.0871  0.0394
  160SAPE   O3217901   1.090   2.948   6.713 -0.9148 -0.1582 -0.1606
  160SAPE   C3217902   1.054   2.800   6.900  0.3721  0.2028  0.5669
  160SAPE   H2X17903   1.128   2.826   6.979  2.1282 -0.6185 -0.7253
  160SAPE   H2Y17904   1.053   2.689   6.906 -3.5314 -0.2724 -3.5130
  160SAPE   C2317905   1.619   2.679   6.880  0.0301 -0.6487 -0.2410
  160SAPE   H3R17906   1.525   2.637   6.840  0.2463  1.7534 -3.6637
  160SAPE   H3S17907   1.589   2.754   6.956 -1.5063  0.1417 -1.5837
  160SAPE   C2417908   1.729   2.586   6.933  0.3598  0.0221  0.4754
  160SAPE   H4R17909   1.821   2.644   6.954  2.1305 -1.8984 -1.4572
  160SAPE   H4S17910   1.751   2.515   6.850 -3.1686  0.5665 -1.1003
  160SAPE   C2517911   1.683   2.499   7.048  0.2040 -0.6869 -0.1119
  160SAPE   H5R17912   1.672   2.394   7.016  1.1574 -0.1437 -2.4794
  160SAPE   C2617913   1.654   2.537   7.169 -0.2716  0.1927 -0.0308
  160SAPE   H6R17914   1.607   2.462   7.234  0.8910  0.6400  1.3830
  160SAPE   C2717915   1.651   2.683   7.201 -0.7039 -0.8749  1.2242
  160SAPE   H7R17916   1.572   2.728   7.137 -1.2948  2.2823  3.9054
  160SAPE   H7S17917   1.746   2.734   7.174 -1.2235  0.0572  1.1081
  160SAPE   C2817918   1.622   2.713   7.346 -0.1922 -0.3200 -0.2832
  160SAPE   H8R17919   1.576   2.634   7.407 -0.5536  1.0380  1.2774
  160SAPE   C2917920   1.658   2.829   7.406  0.9800 -0.3661 -0.2766
  160SAPE   H9R17921   1.641   2.837   7.514 -0.7102 -0.4949 -0.4984
  160SAPE  C21017922   1.711   2.953   7.337  0.5455  0.0941  0.2032
  160SAPE  H10R17923   1.618   3.010   7.316 -2.1853 -3.5873  1.1941
  160SAPE  H10S17924   1.755   2.921   7.240  0.2889 -1.7507  0.6490
  160SAPE  C21117925   1.799   3.047   7.414 -0.3187 -0.1105  0.1133
  160SAPE  H11R17926   1.904   3.025   7.388  0.0216  0.6722  0.8133
  160SAPE  C21217927   1.773   3.145   7.495 -0.1856  0.6058 -0.2117
  160SAPE  H12R17928   1.852   3.203   7.545 -0.0085  0.2328 -0.0531
  160SAPE  C21317929   1.631   3.173   7.533  0.6038  0.2109 -0.5625
  160SAPE  H13R17930   1.571   3.081   7.512 -0.9524  1.2775 -0.9836
  160SAPE  H13S17931   1.592   3.253   7.467 -0.6870 -2.0115 -2.6533
  160SAPE  C21417932   1.604   3.220   7.674  0.2230 -0.6192  0.2469
  160SAPE  H14R17933   1.697   3.249   7.724  0.3777  1.5558 -1.1736
  160SAPE  C21517934   1.486   3.250   7.723  0.1060 -0.1145  0.8096
  160SAPE  H15R17935   1.491   3.286   7.827  1.7473 -2.7561  1.7304
  160SAPE  C21617936   1.347   3.228   7.663  0.1023  0.5072 -0.3222
  160SAPE  H16R17937   1.338   3.124   7.625 -0.8360  1.4218 -2.8392
  160SAPE  H16S17938   1.337   3.300   7.579 -0.5744  1.2865  0.4121
  160SAPE  C21717939   1.223   3.256   7.753  0.7168  0.8088 -0.0595
  160SAPE  H17R17940   1.221   3.194   7.845 -2.7819 -0.2427 -0.6894
  160SAPE  H17S17941   1.131   3.222   7.701  0.7010 -0.7532  0.9257
  160SAPE  C21817942   1.202   3.411   7.778  0.2920  0.8790 -0.5656
  160SAPE  H18R17943   1.182   3.466   7.683  0.7842  1.5904 -0.2622
  160SAPE  H18S17944   1.300   3.449   7.812 -0.1225 -0.2934  2.2260
  160SAPE  C21917945   1.079   3.449   7.869 -0.5041  0.4634  0.3509
  160SAPE  H19R17946   1.065   3.559   7.866 -0.3547  0.4602 -1.0642
  160SAPE  H19S17947   1.099   3.406   7.969  0.2259 -2.0539 -0.7838
  160SAPE  C22017948   0.953   3.392   7.813  0.1543  0.1513  0.3713
  160SAPE  H20R17949   0.861   3.448   7.842 -0.5094 -0.6249 -0.1894
  160SAPE  H20S17950   0.937   3.287   7.844  2.4794  0.1239  1.7374
  160SAPE  H20T17951   0.957   3.399   7.702 -0.7885  1.3302  0.3877
  160SAPE   C3317952   0.908   2.848   6.932 -0.0492 -0.1450  0.4339
  160SAPE   H3X17953   0.840   2.832   6.846  1.9192 -0.7579 -1.0790
  160SAPE   H3Y17954   0.904   2.956   6.959  1.6480  0.1322 -0.3391
  160SAPE   C3417955   0.852   2.772   7.052 -0.0991  0.0991 -0.9960
  160SAPE   H4X17956   0.864   2.663   7.035  0.2750  0.2047 -1.4181
  160SAPE   H4Y17957   0.746   2.804   7.055 -0.0348  0.3982 -1.7021
  160SAPE   C3517958   0.931   2.811   7.181 -0.0100  0.3938  0.0897
  160SAPE   H5X17959   0.960   2.918   7.171  0.3753  0.2675 -0.1731
  160SAPE   H5Y17960   1.029   2.759   7.177 -0.0104  0.3817  0.2237
  160SAPE   C3617961   0.858   2.784   7.307  0.4296 -0.9431  0.3489
  160SAPE   H6X17962   0.816   2.681   7.308  0.4388 -0.9444  0.9530
  160SAPE   H6Y17963   0.781   2.864   7.307  0.5199 -0.8239  2.0600
  160SAPE   C3717964   0.941   2.805   7.435 -0.0564 -0.3098  0.5821
  160SAPE   H7X17965   0.984   2.906   7.447  0.9735 -0.3790 -1.9443
  160SAPE   H7Y17966   1.020   2.727   7.438 -1.6499 -1.9843  1.3181
  160SAPE   C3817967   0.847   2.782   7.557  0.1172 -0.4099 -0.3755
  160SAPE   H8X17968   0.751   2.829   7.526  2.1296  3.7581 -1.0661
  160SAPE   H8Y17969   0.891   2.842   7.639 -0.4614  1.7375 -1.5443
  160SAPE   C3917970   0.837   2.635   7.596 -0.5392 -0.2699  0.4223
  160SAPE   H9X17971   0.936   2.596   7.625 -0.7899 -0.5058  0.9822
  160SAPE   H9Y17972   0.827   2.579   7.501 -1.2251 -0.2151  0.4505
  160SAPE  C31017973   0.730   2.593   7.700 -0.0032  0.0234  0.1473
  160SAPE  H10X17974   0.636   2.623   7.647 -0.0722  0.8210  0.7044
  160SAPE  H10Y17975   0.740   2.639   7.801  0.4441 -0.1033  0.1612
  160SAPE  C31117976   0.741   2.434   7.710  0.6457  0.4313 -1.1722
  160SAPE  H11X17977   0.732   2.385   7.809 -0.9961 -2.2915 -2.5463
  160SAPE  H11Y17978   0.844   2.408   7.676  2.7949  4.1948  1.6345
  160SAPE  C31217979   0.633   2.361   7.638  0.5484  0.7137  0.8848
  160SAPE  H12X17980   0.665   2.257   7.616 -0.4685  0.4631  0.5512
  160SAPE  H12Y17981   0.618   2.410   7.539  2.2880 -2.3899 -1.1002
  160SAPE  C31317982   0.502   2.356   7.723  0.2871  0.2578 -0.4510
  160SAPE  H13X17983   0.458   2.456   7.738  2.2897  1.3191 -1.2863
  160SAPE  H13Y17984   0.521   2.306   7.820 -0.9781  1.0142  0.2126
  160SAPE  C31417985   0.386   2.285   7.650  0.2932 -0.2725  0.0421
  160SAPE  H14X17986   0.379   2.338   7.552  4.3588  0.4235 -0.0581
  160SAPE  H14Y17987   0.289   2.306   7.700  1.6705  1.3155  2.2029
  160SAPE  C31517988   0.410   2.138   7.607  0.1319 -0.4966 -0.4491
  160SAPE  H15X17989   0.509   2.133   7.555  1.2679  0.2265  1.5340
  160SAPE  H15Y17990   0.335   2.105   7.531  0.6449 -0.0973 -1.1460
  160SAPE  C31617991   0.409   2.032   7.726 -0.7020 -0.0326 -0.5525
  160SAPE  H16X17992   0.357   1.937   7.700  0.7046 -0.7830 -0.7008
  160SAPE  H16Y17993   0.343   2.083   7.799  1.3896  2.0366 -0.0058
  160SAPE  C31717994   0.543   2.004   7.805  0.4374  0.8124 -0.4941
  160SAPE  H17X17995   0.616   2.088   7.798  1.2386  0.3056  1.1927
  160SAPE  H17Y17996   0.596   1.923   7.751  1.5661  0.5722  0.9103
  160SAPE  C31817997   0.522   1.955   7.949 -0.6932  0.6724 -0.0448
  160SAPE  H18X17998   0.497   2.046   8.007  1.2872  1.8117 -0.8593
  160SAPE  H18Y17999   0.616   1.918   7.995 -0.8226  1.5868  0.9845
  160SAPE  H18Z18000   0.448   1.873   7.955 -1.9914  1.8249  0.0424
  161SAPE     N18001   5.540   4.818   5.558 -0.5265  0.1323 -0.2632
  161SAPE   HN118002   5.489   4.740   5.604  0.4916 -0.9158 -0.8403
  161SAPE   HN218003   5.513   4.904   5.610 -1.9192 -1.1301  1.2163
  161SAPE   HN318004   5.496   4.831   5.465  1.8904  1.4923 -1.3381
  161SAPE   C1218005   5.694   4.797   5.563 -0.5430  0.1040  0.1107
  161SAPE  H12A18006   5.719   4.714   5.494  2.5138 -0.8891  2.2141
  161SAPE  H12B18007   5.722   4.755   5.663  0.1300  0.4184  0.0573
  161SAPE   C1118008   5.760   4.919   5.509 -0.5423 -0.3943 -0.1118
  161SAPE  H11A18009   5.744   4.923   5.399 -1.3491 -0.8845 -0.0201
  161SAPE  H11B18010   5.870   4.912   5.522  0.0229  1.6653 -2.8405
  161SAPE     P18011   5.772   5.178   5.539 -0.2457  0.7465  0.0679
  161SAPE   O1318012   5.877   5.161   5.438 -0.4197 -0.9772 -0.4773
  161SAPE   O1418013   5.670   5.280   5.512 -0.2456 -0.1685 -0.1892
  161SAPE   O1218014   5.709   5.035   5.562 -0.1858 -0.7423  0.6867
  161SAPE   O1118015   5.837   5.204   5.686  0.0492  0.6749  0.1637
  161SAPE    C118016   5.866   5.103   5.778  0.3549  0.0213 -0.0293
  161SAPE    HA18017   5.909   5.011   5.732  0.5868  0.2598 -0.2973
  161SAPE    HB18018   5.949   5.129   5.847  0.9123  1.9310 -1.3418
  161SAPE    C218019   5.751   5.068   5.869  0.5197  0.3377 -0.3875
  161SAPE    HS18020   5.669   5.030   5.804 -2.2120  3.0330  1.2292
  161SAPE   O2118021   5.713   5.186   5.935  0.6606  0.3284 -0.8056
  161SAPE   C2118022   5.583   5.218   5.935  0.0233  0.1946  0.4133
  161SAPE   O2218023   5.498   5.161   5.875 -0.2184  0.3691 -0.1089
  161SAPE   C2218024   5.563   5.339   6.022 -0.0510 -0.2502  0.2068
  161SAPE   H2R18025   5.621   5.334   6.117  0.0252 -2.4214  0.0943
  161SAPE   H2S18026   5.615   5.415   5.960 -0.5925 -1.9059 -2.3987
  161SAPE    C318027   5.796   4.954   5.965  0.2788  0.8923  0.4077
  161SAPE    HX18028   5.900   4.987   5.984  1.4522 -1.5863 -1.1146
  161SAPE    HY18029   5.811   4.860   5.907 -0.9269  1.1231 -0.3259
  161SAPE   O3118030   5.714   4.945   6.083  0.1671  0.1647 -0.3455
  161SAPE   C3118031   5.749   4.853   6.173 -0.1049  0.8488  0.5308
  161SAPE   O3218032   5.828   4.762   6.150  0.1237 -0.2178 -0.2705
  161SAPE   C3218033   5.673   4.875   6.308 -0.5314  0.0200 -0.3017
  161SAPE   H2X18034   5.564   4.890   6.294 -0.0332  2.0086 -2.7525
  161SAPE   H2Y18035   5.707   4.974   6.345 -1.9101  0.2023  0.5279
  161SAPE   C2318036   5.417   5.365   6.055  0.2161 -0.4263 -0.2335
  161SAPE   H3R18037   5.357   5.343   5.964  2.5347  1.0527 -2.2151
  161SAPE   H3S18038   5.394   5.471   6.079  0.5696  0.2571 -2.6385
  161SAPE   C2418039   5.375   5.293   6.183  0.8698 -0.4039 -0.5688
  161SAPE   H4R18040   5.447   5.332   6.258  1.4195 -1.0010 -0.7757
  161SAPE   H4S18041   5.395   5.184   6.170  0.1669 -0.5473 -0.5070
  161SAPE   C2518042   5.226   5.315   6.205 -0.2733 -0.0643 -0.1304
  161SAPE   H5R18043   5.158   5.258   6.141  0.1896 -0.8226  0.0422
  161SAPE   C2618044   5.179   5.406   6.290  0.0285  0.4959  0.2293
  161SAPE   H6R18045   5.078   5.445   6.270  0.4035  0.8353 -1.0896
  161SAPE   C2718046   5.270   5.498   6.364 -1.0628  0.2115  0.1245
  161SAPE   H7R18047   5.364   5.517   6.309 -0.8868 -1.5386 -0.2361
  161SAPE   H7S18048   5.288   5.455   6.465  0.5086 -0.7718 -0.5351
  161SAPE   C2818049   5.207   5.628   6.392 -0.0678  0.1826 -0.7508
  161SAPE   H8R18050   5.183   5.693   6.307 -2.9452  1.0305  0.5865
  161SAPE   C2918051   5.136   5.653   6.505 -0.4155 -0.0299  0.1278
  161SAPE   H9R18052   5.098   5.754   6.523 -1.0070 -0.4487  1.3608
  161SAPE  C21018053   5.134   5.574   6.636 -0.1067  0.6645 -0.3989
  161SAPE  H10R18054   5.238   5.539   6.650 -0.2361 -0.4873 -2.0686
  161SAPE  H10S18055   5.075   5.480   6.627  1.8969 -0.6110 -0.6970
  161SAPE  C21118056   5.077   5.647   6.756 -0.0609  0.0722 -0.2167
  161SAPE  H11R18057   4.989   5.710   6.735 -1.2178 -1.8235 -1.4539
  161SAPE  C21218058   5.120   5.640   6.883 -0.3456 -0.5407  0.4442
  161SAPE  H12R18059   5.075   5.703   6.961  0.0524  2.0007 -1.2398
  161SAPE  C21318060   5.234   5.561   6.939  0.5326 -1.0370  0.7322
  161SAPE  H13R18061   5.292   5.503   6.864 -0.9743 -4.2930  1.9280
  161SAPE  H13S18062   5.184   5.484   7.001  0.9232 -0.8802  1.2445
  161SAPE  C21418063   5.322   5.650   7.025 -0.0513 -0.9166 -0.1338
  161SAPE  H14R18064   5.405   5.693   6.967 -1.3494 -0.1664 -1.5332
  161SAPE  C21518065   5.324   5.661   7.162  0.4985  0.0223 -0.2275
  161SAPE  H15R18066   5.395   5.733   7.206  0.7126  1.1511 -2.2950
  161SAPE  C21618067   5.225   5.597   7.264 -0.1152 -0.0699 -0.1145
  161SAPE  H16R18068   5.281   5.553   7.350 -0.3247  2.1720  1.2534
  161SAPE  H16S18069   5.179   5.511   7.212 -0.2950 -0.0719  0.0486
  161SAPE  C21718070   5.110   5.698   7.304  0.1626  0.5229  0.1312
  161SAPE  H17R18071   5.035   5.633   7.353  0.4086  1.4561  1.8326
  161SAPE  H17S18072   5.063   5.753   7.219 -1.3681  0.2541  0.7753
  161SAPE  C21818073   5.162   5.794   7.408  0.8378 -0.0364  0.0638
  161SAPE  H18R18074   5.230   5.868   7.362 -0.2874 -0.3518 -2.2542
  161SAPE  H18S18075   5.228   5.745   7.484 -0.7055 -0.2202  1.3409
  161SAPE  C21918076   5.048   5.873   7.480 -0.0209 -0.0107  0.2667
  161SAPE  H19R18077   4.993   5.796   7.538 -0.6541  1.2835  1.4372
  161SAPE  H19S18078   4.975   5.912   7.407  1.1719 -1.5935 -1.8734
  161SAPE  C22018079   5.086   5.982   7.577 -0.9705 -0.2530  0.4123
  161SAPE  H20R18080   4.998   6.022   7.632  0.5099  1.8278  1.3901
  161SAPE  H20S18081   5.130   6.063   7.514 -0.6198 -0.8966 -0.1887
  161SAPE  H20T18082   5.155   5.942   7.655 -0.3333  0.3228  0.1527
  161SAPE   C3318083   5.695   4.754   6.408 -0.1435 -0.0143 -0.3559
  161SAPE   H3X18084   5.804   4.731   6.402 -0.2871 -1.3149  1.3049
  161SAPE   H3Y18085   5.632   4.677   6.360 -1.5438 -0.1285  1.5579
  161SAPE   C3418086   5.658   4.790   6.548  0.1460  0.1674 -0.0297
  161SAPE   H4X18087   5.553   4.827   6.551  0.0816 -0.0189  0.0798
  161SAPE   H4Y18088   5.731   4.868   6.579  1.2600 -0.3884 -1.1620
  161SAPE   C3518089   5.663   4.685   6.665  0.3256  0.3236  0.4461
  161SAPE   H5X18090   5.770   4.665   6.686  1.0244  2.0951 -1.0738
  161SAPE   H5Y18091   5.611   4.594   6.628  0.7402  0.7473 -1.3070
  161SAPE   C3618092   5.593   4.745   6.792  0.7448  0.5714  0.6978
  161SAPE   H6X18093   5.486   4.753   6.760  0.9032 -1.2971 -0.4627
  161SAPE   H6Y18094   5.632   4.839   6.835  2.9086 -0.6532  1.5997
  161SAPE   C3718095   5.594   4.657   6.913 -0.1168  0.0434 -0.4011
  161SAPE   H7X18096   5.703   4.645   6.932  0.0390  0.0950 -1.2339
  161SAPE   H7Y18097   5.539   4.561   6.906 -1.8132  0.9795 -0.2724
  161SAPE   C3818098   5.539   4.741   7.029 -0.6690  0.4762 -1.6211
  161SAPE   H8X18099   5.445   4.788   6.994 -0.8598  0.5107 -1.0731
  161SAPE   H8Y18100   5.615   4.818   7.056  1.3035 -2.0806  0.7023
  161SAPE   C3918101   5.508   4.666   7.152 -0.6468 -0.4853  0.1673
  161SAPE   H9X18102   5.601   4.615   7.186 -0.4878  0.3293  0.9849
  161SAPE   H9Y18103   5.422   4.596   7.144 -1.6242  0.6836  0.2726
  161SAPE  C31018104   5.462   4.766   7.254 -0.7671 -0.3438 -1.0949
  161SAPE  H10X18105   5.362   4.796   7.216 -1.0318 -2.7574 -2.4555
  161SAPE  H10Y18106   5.538   4.844   7.277 -1.8906  0.5372 -0.2454
  161SAPE  C31118107   5.450   4.694   7.388  0.0353 -0.1218 -0.7384
  161SAPE  H11X18108   5.418   4.588   7.378  1.2638 -0.6490  0.5698
  161SAPE  H11Y18109   5.380   4.752   7.453  0.6333 -1.1568  0.8903
  161SAPE  C31218110   5.584   4.687   7.471  0.1780 -0.2592  0.1203
  161SAPE  H12X18111   5.636   4.782   7.496  0.8041 -1.3532  3.5434
  161SAPE  H12Y18112   5.665   4.627   7.424 -0.6393 -0.3491 -1.2408
  161SAPE  C31318113   5.572   4.611   7.601  0.4078 -0.3843  0.2519
  161SAPE  H13X18114   5.521   4.514   7.581 -1.7467  0.1877  2.4480
  161SAPE  H13Y18115   5.500   4.651   7.676 -0.0080 -0.8946  0.1350
  161SAPE  C31418116   5.700   4.583   7.674 -0.1895 -0.5130  0.0469
  161SAPE  H14X18117   5.746   4.678   7.709 -0.3811 -0.0707 -0.8753
  161SAPE  H14Y18118   5.778   4.530   7.615 -0.6165  1.1906 -2.1626
  161SAPE  C31518119   5.685   4.493   7.799  0.6125 -0.0360  0.1011
  161SAPE  H15X18120   5.606   4.416   7.784  0.2627 -0.2813  2.7774
  161SAPE  H15Y18121   5.632   4.559   7.870  0.7921  0.3634 -0.1347
  161SAPE  C31618122   5.819   4.436   7.854 -0.3512 -0.0103 -0.1964
  161SAPE  H16X18123   5.895   4.510   7.884 -1.2785  0.0427  2.2814
  161SAPE  H16Y18124   5.863   4.366   7.780  0.4666 -1.5639  1.6799
  161SAPE  C31718125   5.787   4.345   7.977 -0.3734  0.0961 -0.1349
  161SAPE  H17X18126   5.711   4.266   7.957 -1.2028  0.6159  0.8445
  161SAPE  H17Y18127   5.733   4.415   8.044 -1.1570  1.8037 -2.3982
  161SAPE  C31818128   5.911   4.286   8.053 -0.0829 -0.5646 -0.2638
  161SAPE  H18X18129   5.997   4.352   8.075 -1.2896  1.1328 -0.4411
  161SAPE  H18Y18130   5.958   4.223   7.974 -0.8105  0.2420 -1.3806
  161SAPE  H18Z18131   5.891   4.216   8.136 -1.4497 -0.2180 -0.2714
  162SAPE     N18132   3.527   1.942   5.959 -0.3689  0.2977  0.4899
  162SAPE   HN118133   3.542   1.852   5.908 -3.5596  0.6570 -1.3452
  162SAPE   HN218134   3.612   1.986   5.998 -0.8645  1.1554  0.6177
  162SAPE   HN318135   3.472   1.914   6.043 -0.6198  0.8583  0.5156
  162SAPE   C1218136   3.456   2.037   5.867 -0.0089 -0.1877  0.1553
  162SAPE  H12A18137   3.361   1.995   5.827 -0.2291  0.1133  0.3601
  162SAPE  H12B18138   3.515   2.060   5.776 -2.0618  4.5054 -0.2423
  162SAPE   C1118139   3.423   2.163   5.942 -0.2245  0.4457  0.3098
  162SAPE  H11A18140   3.353   2.231   5.888  0.6345  0.6854 -0.5242
  162SAPE  H11B18141   3.519   2.219   5.952  0.3487 -0.6127  0.8252
  162SAPE     P18142   3.234   2.056   6.094  0.5384  0.0851 -0.0496
  162SAPE   O1318143   3.154   2.120   6.200 -0.2255  0.2201  0.3420
  162SAPE   O1418144   3.180   2.041   5.961  0.2589 -0.4835  0.0212
  162SAPE   O1218145   3.365   2.137   6.072  0.0150  0.5994 -0.0242
  162SAPE   O1118146   3.288   1.924   6.144 -0.3141  0.0889 -0.2184
  162SAPE    C118147   3.367   1.933   6.263  0.4992  0.9747 -0.1022
  162SAPE    HA18148   3.472   1.947   6.231  0.9538  0.3345  1.0635
  162SAPE    HB18149   3.345   2.019   6.329 -0.6163 -0.6958  1.7820
  162SAPE    C218150   3.344   1.813   6.361  0.5717 -0.7535  0.4906
  162SAPE    HS18151   3.373   1.715   6.318  1.0214  0.0574 -1.1594
  162SAPE   O2118152   3.210   1.805   6.411  0.6710 -0.2041 -0.3333
  162SAPE   C2118153   3.114   1.762   6.328 -0.3516  0.1471 -1.5923
  162SAPE   O2218154   3.136   1.695   6.231  0.6093 -0.3398  0.1565
  162SAPE   C2218155   2.980   1.814   6.362  0.0315 -0.4569 -0.1129
  162SAPE   H2R18156   2.979   1.903   6.429 -0.7568 -0.2728 -0.3556
  162SAPE   H2S18157   2.930   1.829   6.264  1.9574  1.1751 -0.9186
  162SAPE    C318158   3.438   1.841   6.474 -0.2283  0.0714 -0.0340
  162SAPE    HX18159   3.441   1.758   6.548 -0.1404  0.8352  0.8381
  162SAPE    HY18160   3.403   1.932   6.527  1.8556  0.7035  0.3281
  162SAPE   O3118161   3.574   1.858   6.419  0.5811  0.0119  0.1699
  162SAPE   C3118162   3.655   1.918   6.509  0.7286  0.0922 -0.5002
  162SAPE   O3218163   3.618   1.960   6.617 -0.0281  0.2965  0.0063
  162SAPE   C3218164   3.795   1.934   6.456  0.0744 -0.0582  0.2968
  162SAPE   H2X18165   3.780   1.940   6.346  1.4011 -1.5696 -0.0125
  162SAPE   H2Y18166   3.855   1.843   6.478 -1.1266 -0.3386  2.7924
  162SAPE   C2318167   2.894   1.709   6.428 -0.1557  0.3199 -0.8676
  162SAPE   H3R18168   2.943   1.670   6.520  0.5725  0.6224 -1.1220
  162SAPE   H3S18169   2.881   1.620   6.362 -2.0233  1.5242 -2.2176
  162SAPE   C2418170   2.752   1.751   6.466  0.0233  0.3202 -0.3764
  162SAPE   H4R18171   2.697   1.656   6.485  1.6598 -0.8091 -1.1029
  162SAPE   H4S18172   2.695   1.790   6.378 -1.2696 -1.0746 -0.2049
  162SAPE   C2518173   2.747   1.850   6.580 -0.0784  0.0660 -0.8910
  162SAPE   H5R18174   2.751   1.955   6.549 -1.9312  0.9667  1.5691
  162SAPE   C2618175   2.760   1.826   6.712 -0.0938 -0.4003  0.0276
  162SAPE   H6R18176   2.780   1.902   6.789  0.7666  0.0139 -0.5788
  162SAPE   C2718177   2.746   1.687   6.776 -0.8599 -1.8869  0.4410
  162SAPE   H7R18178   2.803   1.609   6.722 -1.8087 -2.4648  0.2495
  162SAPE   H7S18179   2.642   1.651   6.765 -1.2967 -1.3551  2.3554
  162SAPE   C2818180   2.788   1.682   6.918  0.2575 -0.5665 -0.8800
  162SAPE   H8R18181   2.880   1.729   6.956 -0.1006 -1.4964  1.2860
  162SAPE   C2918182   2.720   1.628   7.019 -0.1737 -0.3403 -0.3354
  162SAPE   H9R18183   2.750   1.639   7.124  2.5933  1.1259 -1.1858
  162SAPE  C21018184   2.592   1.554   7.008 -0.2036 -0.1882  0.1857
  162SAPE  H10R18185   2.596   1.491   6.916 -5.3085  1.7183 -1.6863
  162SAPE  H10S18186   2.516   1.634   6.996  1.5645  1.4089 -1.0679
  162SAPE  C21118187   2.557   1.455   7.116 -0.4549 -0.3717 -0.5875
  162SAPE  H11R18188   2.562   1.349   7.088  1.0878 -0.2003 -1.0402
  162SAPE  C21218189   2.530   1.490   7.245  0.3012  0.6951  0.2347
  162SAPE  H12R18190   2.524   1.417   7.327  1.5628  0.1092 -0.1719
  162SAPE  C21318191   2.507   1.635   7.290  0.8471 -0.5086  0.3971
  162SAPE  H13R18192   2.407   1.650   7.334  0.2953  1.8853 -1.4850
  162SAPE  H13S18193   2.498   1.691   7.195  0.3817  2.8985  2.3017
  162SAPE  C21418194   2.620   1.701   7.365 -0.7155  0.8680  0.1080
  162SAPE  H14R18195   2.706   1.732   7.304  1.2391 -2.9955  0.6527
  162SAPE  C21518196   2.608   1.731   7.499 -0.1937  0.3993  0.4526
  162SAPE  H15R18197   2.701   1.769   7.544  0.2809 -0.4600  0.2160
  162SAPE  C21618198   2.503   1.700   7.595  0.9069  0.3802 -0.9205
  162SAPE  H16R18199   2.447   1.611   7.557 -1.3212  0.9962  0.6669
  162SAPE  H16S18200   2.430   1.783   7.601  0.7441  0.5813 -4.1449
  162SAPE  C21718201   2.556   1.673   7.736  0.5767  0.2640 -0.1570
  162SAPE  H17R18202   2.462   1.633   7.780 -0.2450  0.1945 -1.9295
  162SAPE  H17S18203   2.593   1.773   7.767  0.2794 -0.0803  1.4121
  162SAPE  C21818204   2.661   1.564   7.749 -0.4738  0.4726 -0.3969
  162SAPE  H18R18205   2.756   1.613   7.719  0.1801 -0.5386 -0.0188
  162SAPE  H18S18206   2.634   1.485   7.675 -0.4238 -0.4523  0.5499
  162SAPE  C21918207   2.674   1.505   7.891  0.6167 -0.5353 -0.3516
  162SAPE  H19R18208   2.585   1.444   7.917 -0.6717  1.6500  0.5654
  162SAPE  H19S18209   2.678   1.591   7.960  1.5120 -1.5708  0.9337
  162SAPE  C22018210   2.802   1.416   7.908 -0.0657  0.0520 -0.6144
  162SAPE  H20R18211   2.790   1.332   7.836  0.3401  0.4073 -1.1063
  162SAPE  H20S18212   2.818   1.374   8.010  1.4119 -0.4266 -1.0106
  162SAPE  H20T18213   2.899   1.462   7.877  1.3202 -2.0931  0.2733
  162SAPE   C3318214   3.871   2.059   6.502  0.3873 -0.1572 -0.1727
  162SAPE   H3X18215   3.805   2.145   6.522  0.2421 -0.3541  0.2133
  162SAPE   H3Y18216   3.943   2.093   6.424  0.5192  2.3859  0.9922
  162SAPE   C3418217   3.937   2.035   6.634 -0.7353  0.5826  0.7443
  162SAPE   H4X18218   4.011   1.952   6.637 -0.6049  0.7251  2.8141
  162SAPE   H4Y18219   3.863   2.000   6.708 -0.2575  1.1949  1.5362
  162SAPE   C3518220   4.022   2.157   6.679  0.1738 -0.0657 -0.3352
  162SAPE   H5X18221   3.975   2.252   6.647 -0.3621 -1.1535 -3.0261
  162SAPE   H5Y18222   4.120   2.159   6.627  0.5302  0.1598  0.3265
  162SAPE   C3618223   4.050   2.146   6.827 -0.4472  0.1111 -0.4825
  162SAPE   H6X18224   4.103   2.052   6.855 -0.2832  0.0199 -1.0840
  162SAPE   H6Y18225   3.953   2.151   6.880 -1.1012  1.5903 -1.7605
  162SAPE   C3718226   4.136   2.269   6.886 -0.1236 -0.1034 -0.4431
  162SAPE   H7X18227   4.082   2.363   6.864  0.8174  0.6086  0.2237
  162SAPE   H7Y18228   4.240   2.278   6.847 -0.0202  0.7075 -0.0007
  162SAPE   C3818229   4.147   2.248   7.044 -0.1781 -0.6330 -0.8802
  162SAPE   H8X18230   4.167   2.141   7.068  3.3883  0.1430  0.1455
  162SAPE   H8Y18231   4.046   2.258   7.089  0.2477 -0.0934 -0.0242
  162SAPE   C3918232   4.243   2.350   7.105  0.4456 -0.1468  0.0872
  162SAPE   H9X18233   4.195   2.451   7.105  2.1385  0.6891  1.0993
  162SAPE   H9Y18234   4.331   2.343   7.037  0.7158  2.3349  0.1004
  162SAPE  C31018235   4.284   2.319   7.250  0.0732  0.3221  0.2119
  162SAPE  H10X18236   4.329   2.217   7.254  0.5239  0.5201  0.1495
  162SAPE  H10Y18237   4.184   2.319   7.299 -0.4561 -2.3531 -0.7042
  162SAPE  C31118238   4.384   2.415   7.324  0.6200 -0.5285  0.0470
  162SAPE  H11X18239   4.342   2.518   7.317  0.2319 -0.7270 -0.6261
  162SAPE  H11Y18240   4.484   2.420   7.278  1.0091  1.4064  0.9942
  162SAPE  C31218241   4.394   2.364   7.466 -0.5278 -0.0300  0.0550
  162SAPE  H12X18242   4.434   2.260   7.469  0.1823  0.1727 -1.5057
  162SAPE  H12Y18243   4.294   2.367   7.514  0.4007 -2.1762  2.3830
  162SAPE  C31318244   4.480   2.456   7.554 -0.5211  0.6895 -0.1992
  162SAPE  H13X18245   4.583   2.478   7.519  0.8188 -3.0789  0.8742
  162SAPE  H13Y18246   4.494   2.401   7.649 -1.6587 -3.0053 -1.9985
  162SAPE  C31418247   4.401   2.582   7.591 -0.4136  0.2771 -0.8010
  162SAPE  H14X18248   4.306   2.554   7.641 -1.1394  2.7337 -0.7003
  162SAPE  H14Y18249   4.382   2.652   7.506 -3.5897  1.8798  1.0450
  162SAPE  C31518250   4.473   2.670   7.695  0.6808 -0.1961  0.6381
  162SAPE  H15X18251   4.578   2.683   7.661  1.4252 -4.5414  0.6590
  162SAPE  H15Y18252   4.486   2.629   7.797  1.4814  0.8738  0.9870
  162SAPE  C31618253   4.400   2.802   7.704 -0.5733 -0.6877 -0.1008
  162SAPE  H16X18254   4.301   2.793   7.754 -2.0178  0.5093 -2.4951
  162SAPE  H16Y18255   4.391   2.849   7.603 -0.5150  2.4540  1.2405
  162SAPE  C31718256   4.491   2.905   7.781  0.2870  0.1372  0.3150
  162SAPE  H17X18257   4.596   2.887   7.747 -0.6490  0.0213 -2.8262
  162SAPE  H17Y18258   4.502   2.881   7.889  2.8519 -0.1049  0.0837
  162SAPE  C31818259   4.458   3.052   7.756  0.1195 -0.2410  0.1903
  162SAPE  H18X18260   4.544   3.110   7.796 -0.6566 -1.4459  4.0267
  162SAPE  H18Y18261   4.368   3.088   7.810 -0.0103 -0.3254  0.0325
  162SAPE  H18Z18262   4.446   3.078   7.649  0.5572 -0.3079  0.1233
  163SAPE     N18263   0.000   2.617   5.926  0.0284 -0.6152 -0.4910
  163SAPE   HN118264  -0.046   2.649   6.013 -0.3178 -2.7497  0.1694
  163SAPE   HN218265   0.050   2.701   5.891 -0.4095 -0.6385 -1.1855
  163SAPE   HN318266  -0.073   2.596   5.855 -1.2207 -1.2188  0.9122
  163SAPE   C1218267   0.099   2.508   5.960  0.0684  0.0708 -0.5446
  163SAPE  H12A18268   0.142   2.459   5.870 -0.8715 -1.4988 -0.1743
  163SAPE  H12B18269   0.056   2.427   6.022 -0.5878  1.3613  0.7480
  163SAPE   C1118270   0.212   2.567   6.045  0.8555  0.1115  0.1608
  163SAPE  H11A18271   0.307   2.510   6.038  1.3365  0.9357 -0.0595
  163SAPE  H11B18272   0.187   2.551   6.152  0.5196 -0.9519 -0.0609
  163SAPE     P18273   0.366   2.763   5.968 -0.0244  0.6376 -0.1820
  163SAPE   O1318274   0.451   2.653   5.911 -0.2464  0.4868 -0.0230
  163SAPE   O1418275   0.347   2.881   5.880  0.6377 -0.2664  0.5120
  163SAPE   O1218276   0.232   2.704   6.026  0.4217 -0.3589 -0.3416
  163SAPE   O1118277   0.442   2.804   6.100  0.4297 -0.4322 -0.1825
  163SAPE    C118278   0.379   2.816   6.227 -0.0963 -0.5360 -0.7201
  163SAPE    HA18279   0.303   2.897   6.233  2.2861  1.7486  3.4755
  163SAPE    HB18280   0.347   2.713   6.256  2.2125 -2.0078 -2.9964
  163SAPE    C218281   0.477   2.873   6.333 -0.5265  0.7013 -0.0897
  163SAPE    HS18282   0.494   2.969   6.279 -1.0725  0.3003 -1.0037
  163SAPE   O2118283   0.600   2.790   6.328  0.2916  0.4585  0.3260
  163SAPE   C2118284   0.694   2.845   6.404  0.6463 -0.6348 -0.2346
  163SAPE   O2218285   0.689   2.956   6.453  0.6086 -0.0875  0.3643
  163SAPE   C2218286   0.814   2.749   6.420  0.1285 -0.2412 -0.4305
  163SAPE   H2R18287   0.839   2.713   6.318 -1.0780 -0.1408 -0.7803
  163SAPE   H2S18288   0.896   2.811   6.462  0.5695 -1.1018 -0.0052
  163SAPE    C318289   0.411   2.889   6.472 -0.0728 -0.0145 -0.7802
  163SAPE    HX18290   0.321   2.944   6.438 -0.6524 -1.0708 -0.9865
  163SAPE    HY18291   0.477   2.952   6.535 -1.3844 -1.6287  2.4685
  163SAPE   O3118292   0.376   2.766   6.546  0.2701 -0.2601 -0.6856
  163SAPE   C3118293   0.436   2.713   6.651  1.0037  0.2234  0.0724
  163SAPE   O3218294   0.531   2.762   6.706 -0.3068  0.4693 -0.9598
  163SAPE   C3218295   0.365   2.588   6.687  0.2596  0.2536 -0.2662
  163SAPE   H2X18296   0.438   2.506   6.670 -0.2036 -0.5278  1.2859
  163SAPE   H2Y18297   0.286   2.561   6.614  0.6820  0.0209 -0.6390
  163SAPE   C2318298   0.793   2.629   6.510 -0.4950  0.2631  0.5282
  163SAPE   H3R18299   0.730   2.552   6.461  1.7450 -2.3881  1.5476
  163SAPE   H3S18300   0.746   2.661   6.605 -1.6456  2.5464 -0.7329
  163SAPE   C2418301   0.922   2.549   6.535  0.9242 -0.8182  0.1447
  163SAPE   H4R18302   0.982   2.597   6.615  1.6951  1.3773 -1.6412
  163SAPE   H4S18303   0.989   2.555   6.446  2.3377  0.8775  1.2477
  163SAPE   C2518304   0.904   2.398   6.553 -0.0989  0.3829 -0.2021
  163SAPE   H5R18305   0.935   2.343   6.463 -1.4765 -0.3611 -0.2497
  163SAPE   C2618306   0.875   2.330   6.664  0.2381 -0.1058  0.2369
  163SAPE   H6R18307   0.869   2.221   6.646  1.0367 -0.2578  0.8486
  163SAPE   C2718308   0.854   2.387   6.802 -0.4098 -0.5077 -0.1199
  163SAPE   H7R18309   0.780   2.471   6.801 -0.2654 -0.3820 -1.8075
  163SAPE   H7S18310   0.949   2.435   6.834 -0.3621 -0.8451  0.2553
  163SAPE   C2818311   0.828   2.275   6.897  0.8119  0.4801  0.3397
  163SAPE   H8R18312   0.902   2.194   6.884 -2.5229 -2.5736 -1.6389
  163SAPE   C2918313   0.719   2.259   6.974  0.1669 -0.5660  0.0964
  163SAPE   H9R18314   0.719   2.167   7.034  0.5758 -0.8869 -0.3894
  163SAPE  C21018315   0.605   2.353   6.997 -0.3696 -0.2414  0.2178
  163SAPE  H10R18316   0.520   2.319   6.934  0.4772  0.8336 -1.6042
  163SAPE  H10S18317   0.633   2.456   6.966  0.0367 -0.4349 -0.0703
  163SAPE  C21118318   0.566   2.336   7.139  0.6276  0.5931 -0.4723
  163SAPE  H11R18319   0.597   2.246   7.194 -0.0459  0.9083  0.4384
  163SAPE  C21218320   0.501   2.426   7.216 -0.5499 -0.3714  0.1379
  163SAPE  H12R18321   0.474   2.401   7.319 -1.4276 -0.1121 -0.0235
  163SAPE  C21318322   0.449   2.561   7.175 -0.1319  0.0345 -0.5337
  163SAPE  H13R18323   0.338   2.556   7.184 -0.1326 -1.2269 -1.0286
  163SAPE  H13S18324   0.467   2.580   7.067 -0.5720  2.8040 -0.1956
  163SAPE  C21418325   0.501   2.678   7.256 -0.8536  0.8664 -0.2753
  163SAPE  H14R18326   0.588   2.733   7.216  1.4517 -0.4023  2.6089
  163SAPE  C21518327   0.462   2.714   7.382 -0.0471 -0.0634 -0.4532
  163SAPE  H15R18328   0.514   2.797   7.432  1.0273 -2.3934  2.5942
  163SAPE  C21618329   0.357   2.648   7.469  0.1121  0.3273  0.0942
  163SAPE  H16R18330   0.400   2.621   7.568 -0.0105 -1.8464 -0.4068
  163SAPE  H16S18331   0.325   2.553   7.422  2.1681 -0.9411  1.1305
  163SAPE  C21718332   0.228   2.730   7.487  0.1453 -0.0956  0.6710
  163SAPE  H17R18333   0.183   2.759   7.390 -2.9355 -0.3496  1.9266
  163SAPE  H17S18334   0.262   2.827   7.531  1.1647 -0.6411  1.1320
  163SAPE  C21818335   0.116   2.678   7.568 -0.0815 -1.0044  0.0741
  163SAPE  H18R18336   0.136   2.671   7.677  1.3340 -0.1531 -0.0979
  163SAPE  H18S18337   0.083   2.584   7.518 -1.0878 -0.0757 -1.0447
  163SAPE  C21918338  -0.002   2.779   7.575  0.3264  0.0094 -0.4344
  163SAPE  H19R18339  -0.056   2.793   7.478  0.4609  1.1861 -0.3595
  163SAPE  H19S18340   0.048   2.874   7.603  1.0194 -1.5085  4.2340
  163SAPE  C22018341  -0.100   2.747   7.687 -0.7088 -0.1114 -0.1798
  163SAPE  H20R18342  -0.047   2.771   7.781  0.5761 -0.6513 -0.7469
  163SAPE  H20S18343  -0.142   2.644   7.688  0.9590 -0.9468  3.6482
  163SAPE  H20T18344  -0.177   2.827   7.674 -0.0753  0.5428  0.0088
  163SAPE   C3318345   0.297   2.600   6.822  0.1531 -0.3544 -0.5740
  163SAPE   H3X18346   0.357   2.645   6.904 -0.0138 -1.2757  0.0705
  163SAPE   H3Y18347   0.262   2.499   6.853 -0.1040 -1.2165 -3.4020
  163SAPE   C3418348   0.173   2.696   6.806  0.2779 -0.6367 -0.4433
  163SAPE   H4X18349   0.106   2.654   6.728 -1.0653 -2.6140  1.6077
  163SAPE   H4Y18350   0.213   2.794   6.773 -1.0025  0.7209  1.8127
  163SAPE   C3518351   0.100   2.721   6.942  0.4856  0.7727 -0.6080
  163SAPE   H5X18352   0.046   2.816   6.925  0.7396  1.4822  2.0994
  163SAPE   H5Y18353   0.171   2.747   7.024  0.4405  1.6595 -0.8380
  163SAPE   C3618354  -0.002   2.613   6.975  0.3455  0.1553  0.2434
  163SAPE   H6X18355   0.057   2.522   7.001 -1.3474 -1.0671  0.0212
  163SAPE   H6Y18356  -0.065   2.592   6.886  0.9273 -0.9139  0.0647
  163SAPE   C3718357  -0.090   2.643   7.096 -0.8685  0.2156  0.4910
  163SAPE   H7X18358  -0.170   2.705   7.050  0.4274  0.3240 -1.7159
  163SAPE   H7Y18359  -0.025   2.698   7.168 -0.1594 -1.4401  1.1697
  163SAPE   C3818360  -0.133   2.523   7.178  0.1764  0.3772 -0.6852
  163SAPE   H8X18361  -0.125   2.438   7.107  1.7710  0.5184 -0.7109
  163SAPE   H8Y18362  -0.238   2.529   7.213  0.8497  0.5575  1.4002
  163SAPE   C3918363  -0.035   2.508   7.294 -0.0622  0.1311 -0.3848
  163SAPE   H9X18364  -0.039   2.596   7.362 -0.1677 -0.1191 -0.0588
  163SAPE   H9Y18365   0.064   2.496   7.247 -0.2730 -0.9391 -0.5723
  163SAPE  C31018366  -0.050   2.369   7.369 -0.1678 -0.1801  0.7413
  163SAPE  H10X18367   0.038   2.366   7.437  0.9543  1.7961 -0.5108
  163SAPE  H10Y18368  -0.040   2.288   7.294 -1.7727  0.8580 -0.6787
  163SAPE  C31118369  -0.181   2.364   7.455 -0.7357 -0.8325  0.8432
  163SAPE  H11X18370  -0.272   2.365   7.392  1.0875  0.9878 -1.9757
  163SAPE  H11Y18371  -0.193   2.454   7.519 -1.9496  0.8078 -1.5747
  163SAPE  C31218372  -0.173   2.242   7.550 -0.5958 -0.0679  0.8708
  163SAPE  H12X18373  -0.151   2.149   7.492  1.2383  0.3707  0.8062
  163SAPE  H12Y18374  -0.264   2.231   7.613  0.0058  0.1612  1.7977
  163SAPE  C31318375  -0.054   2.248   7.647 -0.7685  0.0382 -0.0900
  163SAPE  H13X18376  -0.046   2.349   7.691  0.4432 -0.0264 -0.1480
  163SAPE  H13Y18377   0.045   2.239   7.597 -0.1975  1.3481  0.7613
  163SAPE  C31418378  -0.054   2.146   7.752  0.2071 -0.2326 -0.5302
  163SAPE  H14X18379  -0.037   2.048   7.703 -0.0071 -0.2492 -0.5718
  163SAPE  H14Y18380  -0.152   2.123   7.800  1.2314  0.4478  2.0783
  163SAPE  C31518381   0.034   2.173   7.877  0.2213 -0.2245  0.0020
  163SAPE  H15X18382   0.048   2.278   7.909 -2.0583 -0.4136  1.8277
  163SAPE  H15Y18383   0.138   2.137   7.859  0.1653  0.0957 -1.0877
  163SAPE  C31618384  -0.019   2.093   7.997  0.2454  0.1405 -0.5131
  163SAPE  H16X18385  -0.128   2.113   8.010  0.6675  0.9244  2.2390
  163SAPE  H16Y18386   0.026   2.138   8.087 -2.5791  6.3309 -1.7036
  163SAPE  C31718387   0.005   1.945   8.000 -0.3943 -0.4948 -0.2672
  163SAPE  H17X18388  -0.036   1.901   7.907 -1.8595  0.7564 -0.2635
  163SAPE  H17Y18389  -0.057   1.901   8.081  0.4807 -0.6947  0.3098
  163SAPE  C31818390   0.151   1.906   8.031  0.0505 -0.3252 -0.6338
  163SAPE  H18X18391   0.169   1.797   8.044  0.1798 -0.0680  1.6387
  163SAPE  H18Y18392   0.195   1.957   8.119  1.0739 -0.4449 -1.0639
  163SAPE  H18Z18393   0.206   1.942   7.941 -0.3581 -0.1370 -0.8134
  164SAPE     N18394   2.631   0.171   5.596  0.0618 -0.0511 -0.6323
  164SAPE   HN118395   2.575   0.248   5.553  3.0790  2.1305 -1.0035
  164SAPE   HN218396   2.718   0.190   5.542  0.5259 -1.6098 -0.4744
  164SAPE   HN318397   2.596   0.077   5.571 -2.1109  0.0201  1.7237
  164SAPE   C1218398   2.666   0.200   5.733 -0.2516  0.4785  0.8095
  164SAPE  H12A18399   2.776   0.187   5.749 -0.3017 -0.0548  0.7147
  164SAPE  H12B18400   2.600   0.139   5.797 -1.0853 -0.7690 -1.1496
  164SAPE   C1118401   2.652   0.352   5.765  0.5272  0.2212 -0.3893
  164SAPE  H11A18402   2.674   0.376   5.872 -3.1235  2.0841  0.0917
  164SAPE  H11B18403   2.548   0.388   5.755  1.1045  2.1183  0.1510
  164SAPE     P18404   2.864   0.499   5.712 -0.1814 -0.1641  0.0930
  164SAPE   O1318405   2.968   0.392   5.708  0.4539  0.2351 -0.2197
  164SAPE   O1418406   2.893   0.609   5.617 -0.2947  0.5767 -0.7940
  164SAPE   O1218407   2.730   0.426   5.675 -0.6242  0.1136 -0.0892
  164SAPE   O1118408   2.845   0.549   5.860  0.1891 -0.5726 -0.0321
  164SAPE    C118409   2.746   0.654   5.879 -0.7212  0.2164  0.6601
  164SAPE    HA18410   2.684   0.663   5.788  1.2261 -0.8616 -0.8491
  164SAPE    HB18411   2.676   0.629   5.962 -0.1539 -2.8208  0.3064
  164SAPE    C218412   2.816   0.793   5.911 -0.3776 -0.9394  0.3518
  164SAPE    HS18413   2.906   0.800   5.847 -0.9036  0.6779 -0.2760
  164SAPE   O2118414   2.855   0.801   6.048 -0.2397  0.2633 -0.1476
  164SAPE   C2118415   2.942   0.890   6.093 -0.7155 -0.0146  0.1104
  164SAPE   O2218416   2.987   0.986   6.027 -0.1026  0.1104  0.3912
  164SAPE   C2218417   2.951   0.890   6.244 -0.5469 -0.6480 -0.1529
  164SAPE   H2R18418   2.856   0.920   6.293  0.1965  0.2193  0.8064
  164SAPE   H2S18419   2.976   0.784   6.268 -2.0723 -0.5395  2.3183
  164SAPE    C318420   2.725   0.913   5.866 -0.3673 -0.3465  0.7859
  164SAPE    HX18421   2.717   0.906   5.756 -3.5225  0.1219  0.8891
  164SAPE    HY18422   2.764   1.016   5.884  1.5966 -1.0012  0.5223
  164SAPE   O3118423   2.596   0.896   5.925  0.0676  0.1739 -0.3297
  164SAPE   C3118424   2.570   0.954   6.047 -0.2903  0.7289 -0.4850
  164SAPE   O3218425   2.642   1.025   6.110 -0.5009 -0.4804 -0.3459
  164SAPE   C3218426   2.431   0.916   6.092 -0.0658  0.4429  0.1761
  164SAPE   H2X18427   2.407   0.811   6.063 -1.1742 -0.7478  4.6955
  164SAPE   H2Y18428   2.361   0.985   6.040 -0.6713 -1.4088 -1.6117
  164SAPE   C2318429   3.064   0.975   6.297 -0.4393  0.5496 -0.4050
  164SAPE   H3R18430   3.020   1.077   6.290  1.2729  1.2331 -2.3972
  164SAPE   H3S18431   3.153   0.986   6.232 -1.2685  3.9510 -1.1676
  164SAPE   C2418432   3.103   0.939   6.447 -0.1107  0.4653  0.2618
  164SAPE   H4R18433   3.140   0.834   6.439 -1.4205  0.0730 -0.9544
  164SAPE   H4S18434   3.016   0.935   6.515  0.6067 -1.4741  1.1596
  164SAPE   C2518435   3.209   1.029   6.507  0.2154 -0.0307  0.0487
  164SAPE   H5R18436   3.264   1.083   6.429 -0.7511 -0.5873 -1.0440
  164SAPE   C2618437   3.246   1.055   6.637  0.0185  0.2222 -0.0358
  164SAPE   H6R18438   3.307   1.145   6.655 -0.1520  0.7432 -1.8759
  164SAPE   C2718439   3.191   0.992   6.760 -0.7600  0.0823 -0.5697
  164SAPE   H7R18440   3.080   0.981   6.754 -0.9053  0.4176  1.0012
  164SAPE   H7S18441   3.192   1.062   6.846 -0.7119  1.1238 -1.3944
  164SAPE   C2818442   3.246   0.863   6.804 -0.4711  0.4586  0.3921
  164SAPE   H8R18443   3.237   0.780   6.732 -0.9142 -1.7301  2.8300
  164SAPE   C2918444   3.302   0.830   6.921 -0.3850 -0.3635 -0.0054
  164SAPE   H9R18445   3.335   0.726   6.933  0.3807 -0.3505 -1.6450
  164SAPE  C21018446   3.318   0.924   7.043 -0.7527  0.5288  1.0064
  164SAPE  H10R18447   3.223   0.941   7.096 -0.6212 -0.3846  1.5648
  164SAPE  H10S18448   3.348   1.025   7.007 -0.2347  0.1492  0.3405
  164SAPE  C21118449   3.420   0.858   7.127 -0.3281 -0.1349  0.1741
  164SAPE  H11R18450   3.512   0.863   7.067 -0.8351  0.0301 -0.6028
  164SAPE  C21218451   3.415   0.813   7.251  0.9939 -0.1565  0.9960
  164SAPE  H12R18452   3.509   0.794   7.305  0.2750  0.0151  2.3670
  164SAPE  C21318453   3.302   0.810   7.348  0.5993  0.0295  0.0233
  164SAPE  H13R18454   3.271   0.915   7.367 -1.3772 -0.8367  2.0029
  164SAPE  H13S18455   3.347   0.770   7.442  0.0960  0.6966  0.5627
  164SAPE  C21418456   3.183   0.727   7.311  0.7225 -0.3080 -0.3905
  164SAPE  H14R18457   3.183   0.640   7.243  0.3497  0.9290 -2.0400
  164SAPE  C21518458   3.057   0.765   7.346 -0.1076 -0.1088 -0.6821
  164SAPE  H15R18459   2.979   0.689   7.331  0.8461 -0.9853 -1.4334
  164SAPE  C21618460   3.019   0.873   7.439  0.1134 -0.4547  0.2422
  164SAPE  H16R18461   2.987   0.967   7.389  2.4028 -0.3197 -1.1644
  164SAPE  H16S18462   3.100   0.892   7.512  0.3403  0.4390 -0.2179
  164SAPE  C21718463   2.910   0.833   7.538 -0.2799 -0.0116 -0.3141
  164SAPE  H17R18464   2.818   0.807   7.482 -0.5749 -1.3180  0.7316
  164SAPE  H17S18465   2.891   0.919   7.606 -1.3877 -2.6852  3.0225
  164SAPE  C21818466   2.948   0.711   7.624  0.2477  0.2461 -0.4906
  164SAPE  H18R18467   3.054   0.715   7.656  1.0428  2.4722 -3.0878
  164SAPE  H18S18468   2.931   0.610   7.582 -1.7940  0.0367  0.6989
  164SAPE  C21918469   2.856   0.707   7.750 -0.1304  0.0458 -0.4432
  164SAPE  H19R18470   2.888   0.802   7.798 -1.1669  1.2938 -2.1119
  164SAPE  H19S18471   2.895   0.618   7.804 -0.7471  0.5818  0.9219
  164SAPE  C22018472   2.703   0.719   7.728  0.1956  0.2378 -0.3472
  164SAPE  H20R18473   2.676   0.662   7.637 -0.7358  2.8577 -1.7846
  164SAPE  H20S18474   2.673   0.824   7.710 -1.1594  0.0893  0.8393
  164SAPE  H20T18475   2.641   0.667   7.805 -0.0654 -0.1546 -0.8097
  164SAPE   C3318476   2.410   0.922   6.245 -0.3602 -0.2129  0.6833
  164SAPE   H3X18477   2.303   0.942   6.265 -0.2706  2.5427 -1.0780
  164SAPE   H3Y18478   2.474   1.002   6.288  1.0227 -0.8282 -0.1478
  164SAPE   C3418479   2.454   0.790   6.324 -0.4401 -0.1092  0.7015
  164SAPE   H4X18480   2.471   0.826   6.427  3.7371  1.3538 -0.2894
  164SAPE   H4Y18481   2.552   0.755   6.283 -0.8365 -1.3078  0.7363
  164SAPE   C3518482   2.360   0.670   6.312  0.3301 -0.1358  0.6987
  164SAPE   H5X18483   2.413   0.581   6.352 -0.7096 -1.9647 -1.7511
  164SAPE   H5Y18484   2.354   0.648   6.203 -1.2574  0.2789  0.6844
  164SAPE   C3618485   2.222   0.696   6.367  0.0387  0.2159 -0.5983
  164SAPE   H6X18486   2.152   0.612   6.347 -0.5569  0.7718 -0.8620
  164SAPE   H6Y18487   2.166   0.784   6.329 -2.1372 -0.5966  0.5289
  164SAPE   C3718488   2.222   0.702   6.521 -0.6851  0.4590 -0.1575
  164SAPE   H7X18489   2.115   0.700   6.551 -0.8932 -0.5855 -0.9227
  164SAPE   H7Y18490   2.272   0.794   6.557  0.9493  0.4231 -2.1596
  164SAPE   C3818491   2.287   0.583   6.593  0.4998 -0.0683  0.0220
  164SAPE   H8X18492   2.395   0.585   6.567  0.1576 -0.1976 -1.5033
  164SAPE   H8Y18493   2.248   0.486   6.556  3.3595 -1.0762 -0.6400
  164SAPE   C3918494   2.280   0.602   6.742 -1.1458  0.4265 -0.4295
  164SAPE   H9X18495   2.177   0.638   6.762 -0.2519  3.0796 -0.0450
  164SAPE   H9Y18496   2.348   0.686   6.768 -0.2376 -0.7368  1.1490
  164SAPE  C31018497   2.314   0.479   6.834  0.3512 -0.2854  0.0478
  164SAPE  H10X18498   2.418   0.443   6.817 -0.1114 -1.1461 -1.0858
  164SAPE  H10Y18499   2.247   0.394   6.810  0.3677  0.2705 -2.1704
  164SAPE  C31118500   2.313   0.519   6.986  0.5433 -0.1055  0.1672
  164SAPE  H11X18501   2.210   0.552   7.007  0.6586  1.2321 -1.2586
  164SAPE  H11Y18502   2.374   0.607   7.017 -0.3574 -0.0854  1.9541
  164SAPE  C31218503   2.342   0.399   7.079  0.1019 -0.4955  0.3127
  164SAPE  H12X18504   2.445   0.366   7.056  0.7274  1.0404  0.7625
  164SAPE  H12Y18505   2.260   0.327   7.062 -1.6122  1.2298  0.9179
  164SAPE  C31318506   2.324   0.424   7.228 -0.1533  0.0361 -0.4997
  164SAPE  H13X18507   2.232   0.486   7.242  1.0416  1.5116  1.4115
  164SAPE  H13Y18508   2.413   0.484   7.257  0.1000 -1.2957  1.7764
  164SAPE  C31418509   2.319   0.293   7.315 -0.0350  1.1528  0.0526
  164SAPE  H14X18510   2.414   0.237   7.323 -1.6287 -1.6970  0.5964
  164SAPE  H14Y18511   2.245   0.222   7.273  1.3007 -0.0662 -0.2811
  164SAPE  C31518512   2.285   0.327   7.461 -0.5185 -0.6247 -0.3654
  164SAPE  H15X18513   2.199   0.397   7.459  0.0481  0.0987 -0.0520
  164SAPE  H15Y18514   2.364   0.401   7.487 -0.8159  0.0589 -1.3427
  164SAPE  C31618515   2.285   0.210   7.570 -0.2097 -0.4880  0.4426
  164SAPE  H16X18516   2.390   0.175   7.569 -0.6292 -1.8895  1.3544
  164SAPE  H16Y18517   2.204   0.141   7.538 -1.8460  0.2589  2.6998
  164SAPE  C31718518   2.264   0.261   7.714 -0.1845  0.6334  0.4787
  164SAPE  H17X18519   2.317   0.356   7.735  2.0013 -0.5568  0.6132
  164SAPE  H17Y18520   2.304   0.180   7.778 -2.5630 -1.0679 -0.0464
  164SAPE  C31818521   2.117   0.272   7.738 -0.0616  0.0451 -0.5060
  164SAPE  H18X18522   2.054   0.182   7.721  1.7211 -1.2724 -0.3196
  164SAPE  H18Y18523   2.066   0.342   7.668 -0.1334 -0.3249 -0.8285
  164SAPE  H18Z18524   2.107   0.307   7.842  0.8896 -0.8590 -0.0988
  165SAPE     N18525   0.089   4.071   5.779  0.4654  0.4040  0.5389
  165SAPE   HN118526   0.150   3.988   5.763 -0.1567  0.3234 -1.7100
  165SAPE   HN218527   0.121   4.142   5.848  1.7840  1.2990 -0.9280
  165SAPE   HN318528   0.000   4.028   5.814  0.5853  0.4210  0.8759
  165SAPE   C1218529   0.080   4.131   5.642  0.2081  0.3846 -0.1570
  165SAPE  H12A18530   0.047   4.049   5.574  0.8278 -0.1768  0.2090
  165SAPE  H12B18531   0.182   4.167   5.619  0.3532 -0.8946 -1.7077
  165SAPE   C1118532  -0.033   4.234   5.626 -0.9580  0.4594 -0.0055
  165SAPE  H11A18533  -0.128   4.184   5.655 -1.4837  0.6804 -1.2764
  165SAPE  H11B18534  -0.050   4.257   5.518 -1.8339  0.5104  0.1355
  165SAPE     P18535  -0.119   4.461   5.717  0.6647 -0.0955 -0.0607
  165SAPE   O1318536  -0.055   4.594   5.734  0.3774  0.0146 -0.3879
  165SAPE   O1418537  -0.213   4.446   5.606 -0.1168 -0.0115  0.2837
  165SAPE   O1218538   0.001   4.355   5.698 -0.2891  0.5144 -0.0088
  165SAPE   O1118539  -0.193   4.421   5.848 -0.8445 -0.5012  0.0518
  165SAPE    C118540  -0.342   4.416   5.856 -0.5434 -0.6951 -0.2587
  165SAPE    HA18541  -0.393   4.506   5.817  3.1039  0.9970 -1.5903
  165SAPE    HB18542  -0.360   4.320   5.805  0.5619 -1.0159 -0.0838
  165SAPE    C218543  -0.392   4.392   6.004 -0.1811  0.7448  0.2173
  165SAPE    HS18544  -0.503   4.385   6.006 -0.1086 -0.4205  1.3087
  165SAPE   O2118545  -0.350   4.487   6.105 -0.0642 -0.7771  0.1083
  165SAPE   C2118546  -0.400   4.605   6.082  0.3981  0.0282 -0.6224
  165SAPE   O2218547  -0.482   4.644   5.999 -0.3184  0.3574  0.0041
  165SAPE   C2218548  -0.324   4.705   6.166 -0.0551 -0.7485 -0.9037
  165SAPE   H2R18549  -0.216   4.677   6.160  0.0332 -0.4048 -0.9917
  165SAPE   H2S18550  -0.328   4.808   6.123 -0.5179 -0.5211 -0.3294
  165SAPE    C318551  -0.353   4.246   6.050  0.2463  0.4574 -0.1918
  165SAPE    HX18552  -0.249   4.217   6.023  0.3264  0.1391  0.4472
  165SAPE    HY18553  -0.419   4.173   5.998 -1.8387  0.9768  1.6009
  165SAPE   O3118554  -0.365   4.233   6.198  0.1167 -0.4335 -0.3260
  165SAPE   C3118555  -0.257   4.279   6.270 -0.1005 -0.7304  1.2925
  165SAPE   O3218556  -0.151   4.312   6.220 -0.5503  0.0980  0.2857
  165SAPE   C3218557  -0.293   4.293   6.417  0.4850  0.0020  0.5770
  165SAPE   H2X18558  -0.323   4.192   6.451  0.7119 -0.3134 -0.1524
  165SAPE   H2Y18559  -0.381   4.361   6.425 -0.4016 -0.9212 -0.9792
  165SAPE   C2318560  -0.365   4.710   6.319 -0.2438  0.6823  0.0359
  165SAPE   H3R18561  -0.272   4.747   6.366  0.0148  1.0790 -0.7792
  165SAPE   H3S18562  -0.389   4.607   6.353 -0.9079  0.6782 -0.4250
  165SAPE   C2418563  -0.490   4.785   6.354 -0.1755  0.8171 -0.1464
  165SAPE   H4R18564  -0.509   4.798   6.463  2.4776  2.0812  0.2496
  165SAPE   H4S18565  -0.576   4.730   6.310 -0.8807  1.4015  0.4694
  165SAPE   C2518566  -0.503   4.926   6.298 -0.7387 -0.1241  0.2255
  165SAPE   H5R18567  -0.575   4.929   6.216  0.1879 -2.4392 -0.7559
  165SAPE   C2618568  -0.448   5.034   6.350 -0.5992  0.0395 -0.3582
  165SAPE   H6R18569  -0.472   5.131   6.304  0.8480  0.4155 -0.3528
  165SAPE   C2718570  -0.346   5.046   6.463  0.0350  1.1387 -0.4893
  165SAPE   H7R18571  -0.245   5.049   6.414  0.9745 -1.8537  1.0372
  165SAPE   H7S18572  -0.349   4.960   6.534  4.5699  1.8363  0.8637
  165SAPE   C2818573  -0.353   5.176   6.540  0.1427  0.1133 -0.1931
  165SAPE   H8R18574  -0.274   5.247   6.513  1.1374 -0.3493  1.3680
  165SAPE   C2918575  -0.440   5.212   6.642 -0.6994  0.5720 -0.8343
  165SAPE   H9R18576  -0.429   5.310   6.690 -1.6481 -0.7157  2.2459
  165SAPE  C21018577  -0.521   5.102   6.712  0.1363 -0.0661  0.1860
  165SAPE  H10R18578  -0.443   5.029   6.744 -1.1453 -0.9153  1.5210
  165SAPE  H10S18579  -0.587   5.038   6.651  0.3520 -2.0589  1.9225
  165SAPE  C21118580  -0.597   5.162   6.828  0.4193  0.0850 -0.2062
  165SAPE  H11R18581  -0.692   5.211   6.803  0.5914 -0.5673 -2.3297
  165SAPE  C21218582  -0.574   5.149   6.960  1.6500  0.5359  0.2590
  165SAPE  H12R18583  -0.649   5.190   7.029  0.3943  0.4556 -1.0176
  165SAPE  C21318584  -0.463   5.078   7.021 -0.0794 -0.1653  0.3315
  165SAPE  H13R18585  -0.409   5.147   7.089 -0.2164  3.1724 -2.6547
  165SAPE  H13S18586  -0.391   5.037   6.947 -0.4068 -2.1424  1.0392
  165SAPE  C21418587  -0.499   4.955   7.103  0.6785  0.8747  0.5279
  165SAPE  H14R18588  -0.517   4.864   7.043 -0.2199  0.4573  1.3974
  165SAPE  C21518589  -0.527   4.947   7.231  0.0556 -0.9361 -0.5459
  165SAPE  H15R18590  -0.551   4.850   7.278  1.8815 -1.4355 -0.5748
  165SAPE  C21618591  -0.509   5.064   7.329  0.3681 -0.9315 -0.5485
  165SAPE  H16R18592  -0.508   5.169   7.292 -0.6158 -0.0877  1.6238
  165SAPE  H16S18593  -0.413   5.051   7.383 -0.9234 -0.2455  2.0639
  165SAPE  C21718594  -0.619   5.057   7.432 -0.9638 -0.2889 -0.0139
  165SAPE  H17R18595  -0.638   4.949   7.452 -1.4273 -0.0872  0.6733
  165SAPE  H17S18596  -0.715   5.092   7.388 -0.0341  1.5571 -0.6382
  165SAPE  C21818597  -0.584   5.127   7.564 -0.6770  0.1834  0.4667
  165SAPE  H18R18598  -0.578   5.235   7.538  2.8055  0.2240  0.8890
  165SAPE  H18S18599  -0.487   5.088   7.603 -1.8509 -3.1223  0.4008
  165SAPE  C21918600  -0.677   5.080   7.669  0.8412  0.0364 -0.9075
  165SAPE  H19R18601  -0.681   4.970   7.681 -2.4518  0.0070 -1.1721
  165SAPE  H19S18602  -0.782   5.097   7.636 -0.1382 -0.6382  1.5888
  165SAPE  C22018603  -0.659   5.149   7.807  0.1641  0.0287  0.6631
  165SAPE  H20R18604  -0.655   5.260   7.809  0.3144  0.0592  3.6726
  165SAPE  H20S18605  -0.566   5.115   7.858 -1.1606  0.4869  3.5425
  165SAPE  H20T18606  -0.736   5.121   7.882  2.3822 -1.9049  2.3671
  165SAPE   C3318607  -0.172   4.343   6.505 -0.7753  0.7015  0.1563
  165SAPE   H3X18608  -0.128   4.439   6.471 -0.1805  0.2598 -0.3577
  165SAPE   H3Y18609  -0.088   4.270   6.509 -0.7277  0.7951  1.1091
  165SAPE   C3418610  -0.198   4.362   6.655  0.1255 -0.5916  0.6159
  165SAPE   H4X18611  -0.268   4.448   6.666  2.1633  1.2994 -0.3891
  165SAPE   H4Y18612  -0.101   4.393   6.697  0.3290 -0.1227 -0.1706
  165SAPE   C3518613  -0.238   4.232   6.721 -0.3652  0.0560  0.0928
  165SAPE   H5X18614  -0.168   4.152   6.688 -1.2375 -1.5674  2.0058
  165SAPE   H5Y18615  -0.343   4.204   6.698 -0.6905 -0.8727  2.4109
  165SAPE   C3618616  -0.234   4.245   6.877  0.0593  0.0683  1.5349
  165SAPE   H6X18617  -0.320   4.305   6.914 -1.8381 -0.6543 -1.2986
  165SAPE   H6Y18618  -0.134   4.288   6.897 -0.7673  1.3723  2.9962
  165SAPE   C3718619  -0.239   4.102   6.938  0.7082 -0.1203  0.2774
  165SAPE   H7X18620  -0.162   4.034   6.897  0.0951 -1.3166  1.0565
  165SAPE   H7Y18621  -0.338   4.058   6.913 -0.8044  2.0294  2.0773
  165SAPE   C3818622  -0.229   4.112   7.090  0.5583  0.4255  0.0177
  165SAPE   H8X18623  -0.282   4.203   7.127  0.2365  0.4128 -0.4079
  165SAPE   H8Y18624  -0.119   4.129   7.099  0.7726 -1.2896  0.8682
  165SAPE   C3918625  -0.271   3.982   7.154  0.1773  0.4660  0.0228
  165SAPE   H9X18626  -0.206   3.897   7.123 -1.0375 -0.1038 -1.0511
  165SAPE   H9Y18627  -0.376   3.962   7.125  1.5018 -3.4296 -2.9988
  165SAPE  C31018628  -0.255   3.993   7.302  0.1485 -0.9275  0.0053
  165SAPE  H10X18629  -0.299   4.090   7.334  2.1160  0.2530 -0.6978
  165SAPE  H10Y18630  -0.149   3.997   7.335 -0.6017  1.3087  2.4742
  165SAPE  C31118631  -0.333   3.872   7.370 -0.5892  0.0910 -0.4461
  165SAPE  H11X18632  -0.285   3.775   7.344  0.1226  0.4610 -0.5454
  165SAPE  H11Y18633  -0.440   3.879   7.340 -0.8999 -0.5897  0.4432
  165SAPE  C31218634  -0.334   3.873   7.524 -0.3371 -0.3086  0.3711
  165SAPE  H12X18635  -0.424   3.820   7.562  0.5642 -0.8386  1.8506
  165SAPE  H12Y18636  -0.342   3.974   7.568 -1.3557 -1.9378  4.3291
  165SAPE  C31318637  -0.206   3.817   7.582 -0.5013  0.7518 -0.0381
  165SAPE  H13X18638  -0.121   3.856   7.522  0.5337  0.1095  0.9607
  165SAPE  H13Y18639  -0.212   3.708   7.562 -0.4397  0.8258 -0.4808
  165SAPE  C31418640  -0.180   3.838   7.729  0.3998  0.4622  0.1549
  165SAPE  H14X18641  -0.080   3.793   7.746 -1.0309 -1.9725  3.1862
  165SAPE  H14Y18642  -0.262   3.800   7.793 -0.9702  3.1463  0.1190
  165SAPE  C31518643  -0.149   3.985   7.762  0.2030  0.1554  0.0056
  165SAPE  H15X18644  -0.239   4.050   7.755 -0.6404 -1.0166 -0.4814
  165SAPE  H15Y18645  -0.069   4.026   7.697  0.3442 -3.7882 -2.6476
  165SAPE  C31618646  -0.091   3.995   7.904 -0.0565 -0.1980 -0.2334
  165SAPE  H16X18647  -0.020   3.911   7.913 -0.1757 -0.3548 -0.7472
  165SAPE  H16Y18648  -0.174   3.980   7.977  1.3931  0.3052  1.5804
  165SAPE  C31718649  -0.033   4.134   7.925 -0.3760 -0.0059 -1.0962
  165SAPE  H17X18650  -0.129   4.187   7.903 -1.1182 -0.8560  0.0009
  165SAPE  H17Y18651   0.040   4.171   7.850 -2.5750  0.0730 -3.3426
  165SAPE  C31818652   0.012   4.152   8.069 -0.3006 -0.5760  0.3484
  165SAPE  H18X18653   0.108   4.101   8.090  0.7273  0.4108 -1.5987
  165SAPE  H18Y18654  -0.063   4.120   8.144 -1.1195  0.4712  0.0075
  165SAPE  H18Z18655   0.032   4.261   8.080  1.3429 -0.9245  1.0794
  166SAPE     N18656   5.622   0.078   5.762 -0.1228  0.0928 -0.4390
  166SAPE   HN118657   5.612  -0.007   5.703 -1.0698  0.8546 -1.4267
  166SAPE   HN218658   5.714   0.116   5.734  0.8981  0.0473  2.5341
  166SAPE   HN318659   5.620   0.050   5.862  0.4923  1.0225 -0.1542
  166SAPE   C1218660   5.508   0.170   5.742  0.4422  0.2604 -0.6530
  166SAPE  H12A18661   5.490   0.193   5.635 -0.5871  0.4913 -0.4370
  166SAPE  H12B18662   5.541   0.266   5.787  1.3077 -0.8328  1.1511
  166SAPE   C1118663   5.385   0.121   5.816 -0.2501  0.1148  0.6019
  166SAPE  H11A18664   5.301   0.187   5.786  0.2690  0.2498 -0.5857
  166SAPE  H11B18665   5.394   0.134   5.926 -2.0291 -1.2368  0.9512
  166SAPE     P18666   5.212  -0.074   5.828  0.0572  0.1306 -0.1811
  166SAPE   O1318667   5.103   0.009   5.765 -0.2684  0.1554  0.8178
  166SAPE   O1418668   5.220  -0.219   5.794  0.5900  0.3512 -0.2184
  166SAPE   O1218669   5.359  -0.014   5.787 -0.3914  0.6078  0.4456
  166SAPE   O1118670   5.217  -0.061   5.989 -0.4128 -0.2053  0.3629
  166SAPE    C118671   5.159   0.052   6.052 -0.6348  0.2694 -0.1234
  166SAPE    HA18672   5.206   0.143   6.008  0.1708 -0.9162 -1.8659
  166SAPE    HB18673   5.052   0.068   6.026 -0.2784  1.4199 -1.0298
  166SAPE    C218674   5.185   0.047   6.207 -1.1667 -0.3633  0.0957
  166SAPE    HS18675   5.144   0.142   6.249 -1.7486 -1.0661  1.1695
  166SAPE   O2118676   5.324   0.015   6.226  0.9151 -0.6138  0.1462
  166SAPE   C2118677   5.396   0.121   6.254 -0.1479  0.0918  0.0237
  166SAPE   O2218678   5.364   0.239   6.240  0.8187  0.3278  0.8798
  166SAPE   C2218679   5.533   0.081   6.316 -0.3506  0.2943 -0.1549
  166SAPE   H2R18680   5.532  -0.025   6.347  0.1589  0.3689  0.1322
  166SAPE   H2S18681   5.619   0.083   6.245 -0.7295 -3.0851 -0.8548
  166SAPE    C318682   5.102  -0.069   6.275 -0.1855  0.6066 -0.0474
  166SAPE    HX18683   5.131  -0.164   6.225  1.4502 -0.3046  2.4637
  166SAPE    HY18684   4.994  -0.050   6.256 -0.5671  2.1246  2.9531
  166SAPE   O3118685   5.136  -0.080   6.417 -0.1062 -0.3731  0.0632
  166SAPE   C3118686   5.079   0.007   6.495 -0.0195 -0.0314 -0.2957
  166SAPE   O3218687   5.017   0.105   6.466  0.4193 -0.0538  0.5344
  166SAPE   C3218688   5.120  -0.023   6.644  0.0983  0.4292  0.0534
  166SAPE   H2X18689   5.223  -0.065   6.641 -0.1549 -0.1685 -1.6803
  166SAPE   H2Y18690   5.050  -0.103   6.675 -1.3366  1.1974 -1.0733
  166SAPE   C2318691   5.570   0.172   6.443  0.2089 -0.9126 -0.8244
  166SAPE   H3R18692   5.546   0.276   6.414  0.2043 -0.7642 -0.2854
  166SAPE   H3S18693   5.680   0.156   6.452  0.1015 -1.3227 -0.1963
  166SAPE   C2418694   5.507   0.117   6.576 -1.0120 -0.3405  0.0046
  166SAPE   H4R18695   5.537   0.012   6.592 -1.8649 -0.1480  3.6623
  166SAPE   H4S18696   5.398   0.123   6.553 -0.5365  1.5441 -2.1413
  166SAPE   C2518697   5.547   0.212   6.687  0.4597 -0.9170  0.2139
  166SAPE   H5R18698   5.580   0.315   6.667 -3.3105 -0.1067 -3.2118
  166SAPE   C2618699   5.555   0.179   6.817 -0.5065 -0.2417  0.6205
  166SAPE   H6R18700   5.581   0.254   6.893 -0.2811 -0.0433  0.3491
  166SAPE   C2718701   5.519   0.043   6.876 -0.1786 -1.2402 -0.5518
  166SAPE   H7R18702   5.605  -0.023   6.853 -0.0794 -1.3476  0.1185
  166SAPE   H7S18703   5.437  -0.006   6.820 -1.3358  0.7889 -0.7537
  166SAPE   C2818704   5.489   0.052   7.027  0.0119  0.4377 -0.6051
  166SAPE   H8R18705   5.443   0.146   7.061 -0.4201 -0.5613  1.7504
  166SAPE   C2918706   5.520  -0.046   7.113  0.3120 -0.0907  0.1320
  166SAPE   H9R18707   5.499  -0.032   7.220  0.2498  0.5678  0.0391
  166SAPE  C21018708   5.581  -0.178   7.086 -0.1792 -0.4296  0.1276
  166SAPE  H10R18709   5.537  -0.222   6.994  0.6908  0.2110 -0.6143
  166SAPE  H10S18710   5.570  -0.244   7.174  3.2096  0.3659  1.2877
  166SAPE  C21118711   5.729  -0.159   7.074  0.0616  0.2846  0.2154
  166SAPE  H11R18712   5.772  -0.069   7.120  1.8506  0.7559 -2.1746
  166SAPE  C21218713   5.808  -0.237   6.980 -0.4709 -0.5311 -0.5024
  166SAPE  H12R18714   5.915  -0.212   6.977 -0.6058  0.2394  0.4227
  166SAPE  C21318715   5.762  -0.357   6.898  0.9358  0.1618  0.6665
  166SAPE  H13R18716   5.731  -0.319   6.798 -2.1432  1.1184  1.8833
  166SAPE  H13S18717   5.675  -0.402   6.950  0.3173  2.2099  1.5028
  166SAPE  C21418718   5.855  -0.469   6.864 -0.2843  0.0121 -0.1007
  166SAPE  H14R18719   5.892  -0.483   6.762  3.0359  0.6215  0.8897
  166SAPE  C21518720   5.912  -0.539   6.963  0.0729  0.9023  0.1765
  166SAPE  H15R18721   5.981  -0.620   6.936  1.5026  2.4637 -1.0917
  166SAPE  C21618722   5.869  -0.532   7.106  1.0175 -0.6827  0.1816
  166SAPE  H16R18723   5.758  -0.528   7.104  1.0644  2.0280 -0.6524
  166SAPE  H16S18724   5.909  -0.435   7.143 -1.4784  0.9770 -1.2156
  166SAPE  C21718725   5.914  -0.648   7.189  0.0147  0.1438  0.6442
  166SAPE  H17R18726   6.024  -0.661   7.180 -0.2434 -1.6612 -0.4579
  166SAPE  H17S18727   5.856  -0.737   7.159  3.2051 -1.5896 -0.9365
  166SAPE  C21818728   5.888  -0.628   7.336  0.1900  0.8892  0.2931
  166SAPE  H18R18729   5.781  -0.606   7.354  0.2947  0.6772  1.2378
  166SAPE  H18S18730   5.938  -0.533   7.365 -2.0303  1.7074  1.6559
  166SAPE  C21918731   5.929  -0.752   7.422 -0.5488 -0.4658  0.6480
  166SAPE  H19R18732   5.876  -0.840   7.378 -0.1663 -1.0869  1.4014
  166SAPE  H19S18733   5.888  -0.737   7.524 -0.8268  0.9765  0.3423
  166SAPE  C22018734   6.079  -0.761   7.445  0.0577  0.5670  1.2369
  166SAPE  H20R18735   6.133  -0.789   7.352 -0.0939  0.5510  1.1550
  166SAPE  H20S18736   6.109  -0.839   7.518  3.8656  0.8219  0.1578
  166SAPE  H20T18737   6.119  -0.662   7.475 -0.4268  0.1178  3.5850
  166SAPE   C3318738   5.102   0.090   6.746  0.4052  0.2913  0.2668
  166SAPE   H3X18739   4.997   0.124   6.742 -0.7792 -2.9570  0.2502
  166SAPE   H3Y18740   5.170   0.176   6.728  1.6702 -0.5088  1.0731
  166SAPE   C3418741   5.134   0.045   6.895 -0.2635 -0.3693  0.4675
  166SAPE   H4X18742   5.245   0.048   6.900 -0.2921  0.1522  0.8536
  166SAPE   H4Y18743   5.097  -0.059   6.906 -4.1127  0.7282 -0.3599
  166SAPE   C3518744   5.071   0.149   6.984  0.0173 -0.1802 -0.4157
  166SAPE   H5X18745   4.961   0.142   6.979 -0.0992  1.9416 -3.0191
  166SAPE   H5Y18746   5.101   0.250   6.950 -0.4084  0.2797  0.5569
  166SAPE   C3618747   5.106   0.129   7.135  0.0815  0.3182  0.9218
  166SAPE   H6X18748   5.216   0.116   7.143  0.3835  0.3596 -2.0271
  166SAPE   H6Y18749   5.057   0.030   7.149  2.7137 -1.9678 -3.7222
  166SAPE   C3718750   5.049   0.240   7.224 -0.4513 -0.7866 -0.3351
  166SAPE   H7X18751   4.948   0.282   7.201  0.1824  0.2347 -1.4039
  166SAPE   H7Y18752   5.110   0.332   7.208 -0.9249 -0.2378  0.8785
  166SAPE   C3818753   5.077   0.202   7.367  0.2596 -0.2229 -0.4224
  166SAPE   H8X18754   5.071   0.305   7.408  0.4887  0.9032 -3.0388
  166SAPE   H8Y18755   5.175   0.150   7.367 -0.4174 -1.6375  1.5753
  166SAPE   C3918756   4.972   0.112   7.429  0.0146 -0.5563 -0.1991
  166SAPE   H9X18757   4.984   0.003   7.412 -0.9478 -0.7247  0.1305
  166SAPE   H9Y18758   4.876   0.139   7.380  0.0021  1.8533  1.0003
  166SAPE  C31018759   4.953   0.128   7.578 -0.2439  0.3448 -0.4869
  166SAPE  H10X18760   4.951   0.238   7.592 -3.2856  0.6082 -2.1109
  166SAPE  H10Y18761   5.038   0.084   7.635 -0.0896 -2.6677 -2.7667
  166SAPE  C31118762   4.826   0.054   7.623 -0.0415  0.7044 -0.7447
  166SAPE  H11X18763   4.839  -0.050   7.585 -1.3216 -0.4885  1.8600
  166SAPE  H11Y18764   4.738   0.100   7.574 -2.0722  0.5897  2.5198
  166SAPE  C31218765   4.796   0.053   7.778 -0.6021 -0.4980 -0.1694
  166SAPE  H12X18766   4.858  -0.020   7.835 -3.7299 -1.3550  2.3933
  166SAPE  H12Y18767   4.692   0.015   7.787 -0.2339 -1.0886  2.4163
  166SAPE  C31318768   4.795   0.186   7.852 -0.3889 -0.7808 -0.2281
  166SAPE  H13X18769   4.741   0.261   7.791 -0.0383 -1.2062 -1.0806
  166SAPE  H13Y18770   4.902   0.214   7.857 -1.2962  3.1154  0.1479
  166SAPE  C31418771   4.744   0.158   7.996  0.3270 -0.3375 -0.1027
  166SAPE  H14X18772   4.813   0.084   8.041  0.4568  0.4681  1.1033
  166SAPE  H14Y18773   4.644   0.111   7.989  0.4556 -0.5669 -0.3929
  166SAPE  C31518774   4.752   0.286   8.075 -0.0755 -0.0141  0.2372
  166SAPE  H15X18775   4.717   0.379   8.025  0.3308 -0.6112 -1.2068
  166SAPE  H15Y18776   4.858   0.315   8.085  0.5149 -1.4549 -1.2639
  166SAPE  C31618777   4.699   0.277   8.218  0.0704 -0.2686 -0.4935
  166SAPE  H16X18778   4.756   0.197   8.271  0.2540  0.7890  0.9810
  166SAPE  H16Y18779   4.591   0.251   8.220 -0.1619  0.6460 -0.6700
  166SAPE  C31718780   4.722   0.405   8.309  0.4091  0.4434  0.6511
  166SAPE  H17X18781   4.669   0.411   8.407 -1.0235 -1.5733  0.0708
  166SAPE  H17Y18782   4.680   0.494   8.258  0.5861  0.3198  0.2830
  166SAPE  C31818783   4.872   0.428   8.334 -0.6472  0.2403 -0.4121
  166SAPE  H18X18784   4.912   0.467   8.237  0.3085 -0.2343 -0.2295
  166SAPE  H18Y18785   4.917   0.328   8.353 -0.6185  0.2462 -0.4491
  166SAPE  H18Z18786   4.887   0.495   8.420  1.4051 -1.4042  0.6264
  167SAPE     N18787   5.216   6.515   5.587  0.4655 -0.3740  0.2781
  167SAPE   HN118788   5.236   6.423   5.632 -1.4814 -1.3664 -0.7654
  167SAPE   HN218789   5.260   6.589   5.646  2.5838 -1.5676  0.3261
  167SAPE   HN318790   5.113   6.520   5.581  0.5044 -0.8925 -1.7366
  167SAPE   C1218791   5.280   6.532   5.457  0.1829  0.9135  0.7747
  167SAPE  H12A18792   5.241   6.630   5.421  1.3788  0.9370 -0.5327
  167SAPE  H12B18793   5.232   6.454   5.394 -0.4163  2.6473 -1.0141
  167SAPE   C1118794   5.429   6.536   5.464  0.1933  0.3822 -0.0695
  167SAPE  H11A18795   5.466   6.560   5.362  0.2757  0.9686  0.0936
  167SAPE  H11B18796   5.472   6.438   5.492  1.8198  1.7308  2.5835
  167SAPE     P18797   5.630   6.659   5.566  0.0024  0.0508 -0.3419
  167SAPE   O1318798   5.693   6.583   5.458 -0.3188  0.4251 -0.3162
  167SAPE   O1418799   5.650   6.805   5.568  0.0451 -0.6826  0.0641
  167SAPE   O1218800   5.474   6.635   5.557  0.1271 -0.0341  0.8709
  167SAPE   O1118801   5.685   6.604   5.703  0.2827 -0.0009  0.5414
  167SAPE    C118802   5.597   6.560   5.809  0.2765  0.4614 -0.2829
  167SAPE    HA18803   5.496   6.529   5.775  1.7434 -2.6588 -2.1836
  167SAPE    HB18804   5.635   6.467   5.856 -0.6115  0.8783  1.3518
  167SAPE    C218805   5.595   6.663   5.926 -0.0533 -0.1508  0.5548
  167SAPE    HS18806   5.553   6.746   5.866  1.3789 -0.0657 -0.3902
  167SAPE   O2118807   5.729   6.682   5.982  0.4692 -0.3025  0.4888
  167SAPE   C2118808   5.755   6.800   6.032  0.1974 -0.1591  0.1823
  167SAPE   O2218809   5.680   6.896   6.029  0.3865 -0.6508 -0.3964
  167SAPE   C2218810   5.894   6.790   6.097 -0.0656  0.0457  0.1572
  167SAPE   H2R18811   5.963   6.763   6.014 -0.9773 -0.5115 -0.4450
  167SAPE   H2S18812   5.903   6.894   6.136 -3.8869  0.7660 -0.4439
  167SAPE    C318813   5.481   6.632   6.035 -1.2090  0.1208  0.9312
  167SAPE    HX18814   5.388   6.603   5.981 -1.1336 -0.7328  1.2458
  167SAPE    HY18815   5.461   6.723   6.096 -1.1585  1.1959 -0.6085
  167SAPE   O3118816   5.515   6.508   6.108 -0.2237 -0.0321  0.2019
  167SAPE   C3118817   5.577   6.532   6.220  0.5939  0.3305 -0.1791
  167SAPE   O3218818   5.607   6.641   6.268  0.6491 -0.4374 -0.4043
  167SAPE   C3218819   5.608   6.400   6.291 -0.2390  0.2094 -0.4500
  167SAPE   H2X18820   5.598   6.313   6.222 -1.0790  0.1195 -0.2302
  167SAPE   H2Y18821   5.532   6.399   6.372 -1.6447  2.0262 -1.6467
  167SAPE   C2318822   5.903   6.687   6.209 -0.3492 -0.2393  0.3845
  167SAPE   H3R18823   5.829   6.610   6.178 -1.7696  1.4181 -0.5165
  167SAPE   H3S18824   5.866   6.719   6.309 -2.8037 -0.3239 -0.4445
  167SAPE   C2418825   6.047   6.627   6.228 -0.0059  0.1475  0.5739
  167SAPE   H4R18826   6.082   6.580   6.133  0.2623  1.6622 -0.1167
  167SAPE   H4S18827   6.037   6.551   6.308  0.9424  0.8671  1.4126
  167SAPE   C2518828   6.150   6.730   6.268  0.2585  0.2897 -0.0867
  167SAPE   H5R18829   6.181   6.801   6.190  2.8434 -2.2040 -1.5305
  167SAPE   C2618830   6.203   6.755   6.387 -0.1772  0.1200  0.0127
  167SAPE   H6R18831   6.264   6.846   6.397 -0.5194  0.2390  1.0738
  167SAPE   C2718832   6.174   6.684   6.519 -0.1050 -0.1811  0.4535
  167SAPE   H7R18833   6.088   6.618   6.496 -1.2793  1.1981  0.7345
  167SAPE   H7S18834   6.144   6.760   6.594 -0.9347 -1.5031  1.4896
  167SAPE   C2818835   6.285   6.607   6.583 -0.1316  0.7409 -0.2488
  167SAPE   H8R18836   6.355   6.555   6.516 -1.1772 -0.3006 -0.5525
  167SAPE   C2918837   6.305   6.599   6.717 -0.1057  0.0048 -0.0949
  167SAPE   H9R18838   6.407   6.572   6.750  0.0312 -0.0112 -0.5130
  167SAPE  C21018839   6.220   6.645   6.834  0.5338  0.0253 -0.1679
  167SAPE  H10R18840   6.114   6.648   6.804  0.6134  1.0735 -0.3668
  167SAPE  H10S18841   6.251   6.749   6.858 -2.7923  0.6120  2.2527
  167SAPE  C21118842   6.228   6.554   6.951  0.0098  0.7156 -1.1467
  167SAPE  H11R18843   6.215   6.448   6.925  2.5514  0.1215 -0.2085
  167SAPE  C21218844   6.248   6.588   7.076  0.0465 -0.3998 -0.1628
  167SAPE  H12R18845   6.254   6.520   7.162  1.5954  0.3159  0.3435
  167SAPE  C21318846   6.252   6.732   7.121 -0.0465 -0.4761  0.4316
  167SAPE  H13R18847   6.245   6.808   7.040 -1.7203 -0.2548  0.7442
  167SAPE  H13S18848   6.348   6.755   7.171  1.3867  0.3221 -2.4692
  167SAPE  C21418849   6.146   6.764   7.220 -0.1512  0.1430 -0.3965
  167SAPE  H14R18850   6.050   6.795   7.177 -0.5006  1.0920  0.9866
  167SAPE  C21518851   6.158   6.787   7.350 -0.5859 -0.1992 -0.0907
  167SAPE  H15R18852   6.062   6.817   7.396  1.0279  4.5343  0.6616
  167SAPE  C21618853   6.277   6.764   7.436 -0.1046  0.5053  0.3032
  167SAPE  H16R18854   6.259   6.834   7.521  0.0446  0.8688  0.0399
  167SAPE  H16S18855   6.366   6.809   7.386 -0.2657 -0.5957 -1.0281
  167SAPE  C21718856   6.297   6.621   7.486  0.0417 -0.3416  0.3237
  167SAPE  H17R18857   6.401   6.602   7.518  0.6862 -0.5029 -1.7123
  167SAPE  H17S18858   6.275   6.551   7.402  1.2690 -1.6312  1.0277
  167SAPE  C21818859   6.198   6.572   7.593  0.8276  0.6228 -0.3473
  167SAPE  H18R18860   6.135   6.501   7.535  1.9808 -0.2124 -0.6336
  167SAPE  H18S18861   6.148   6.654   7.648  0.1076 -1.2086  1.8775
  167SAPE  C21918862   6.266   6.492   7.707 -0.3371  0.4475 -0.1633
  167SAPE  H19R18863   6.329   6.408   7.671 -1.9233 -0.5639 -0.6377
  167SAPE  H19S18864   6.191   6.442   7.772  0.2611  0.8766  0.8875
  167SAPE  C22018865   6.354   6.582   7.799 -0.0341 -0.6886 -0.0333
  167SAPE  H20R18866   6.447   6.615   7.748  0.4625 -1.3077  0.4449
  167SAPE  H20S18867   6.392   6.519   7.883  1.1134 -0.7734 -0.5968
  167SAPE  H20T18868   6.290   6.664   7.836 -1.1408 -0.4410 -2.3000
  167SAPE   C3318869   5.746   6.393   6.362  0.5070  0.1040  0.1572
  167SAPE   H3X18870   5.765   6.491   6.410  0.9197 -1.2702  3.0071
  167SAPE   H3Y18871   5.836   6.385   6.297 -1.0082 -2.1996 -1.8228
  167SAPE   C3418872   5.747   6.284   6.470  0.2292 -0.1589 -0.8055
  167SAPE   H4X18873   5.655   6.290   6.533  0.5689 -0.4869 -0.2744
  167SAPE   H4Y18874   5.831   6.291   6.542 -1.1934 -0.4591  0.9676
  167SAPE   C3518875   5.750   6.144   6.415  0.2568  0.6152 -0.3459
  167SAPE   H5X18876   5.843   6.137   6.355  0.3787 -2.1657  0.0233
  167SAPE   H5Y18877   5.671   6.125   6.339 -0.2341 -0.8679  0.4943
  167SAPE   C3618878   5.754   6.032   6.520  0.4275  0.6308  0.2575
  167SAPE   H6X18879   5.750   5.932   6.472  4.5742  0.5122 -0.1516
  167SAPE   H6Y18880   5.656   6.030   6.573 -0.1603 -1.7114 -0.7463
  167SAPE   C3718881   5.863   6.054   6.626 -0.1371  1.0815  0.4745
  167SAPE   H7X18882   5.848   6.145   6.689  1.2833  2.7592 -1.4679
  167SAPE   H7Y18883   5.955   6.071   6.566 -1.8705  2.2092 -2.0364
  167SAPE   C3818884   5.880   5.933   6.733  0.3981 -0.0937 -0.2852
  167SAPE   H8X18885   5.932   5.847   6.685  1.2941 -0.3476  1.0874
  167SAPE   H8Y18886   5.774   5.900   6.743  0.9396 -1.2753  2.2229
  167SAPE   C3918887   5.952   5.966   6.865 -0.1419 -0.2430 -0.2822
  167SAPE   H9X18888   5.910   6.059   6.908  0.6869  1.4068 -2.8650
  167SAPE   H9Y18889   6.063   5.969   6.859 -0.1459 -0.6872 -0.6838
  167SAPE  C31018890   5.931   5.854   6.967  0.7228 -0.1153 -0.1173
  167SAPE  H10X18891   5.952   5.752   6.930 -0.4939 -0.0856 -0.9513
  167SAPE  H10Y18892   5.821   5.844   6.979  0.4359  1.6234 -0.9474
  167SAPE  C31118893   5.993   5.888   7.100 -0.0267  0.2322 -0.3450
  167SAPE  H11X18894   5.964   5.990   7.131 -2.3196 -0.0153 -1.4652
  167SAPE  H11Y18895   6.101   5.903   7.080  0.3228  0.3517  1.4454
  167SAPE  C31218896   5.974   5.795   7.218  0.3688  0.3235  0.6316
  167SAPE  H12X18897   6.027   5.835   7.307 -3.2850  1.9743  2.3016
  167SAPE  H12Y18898   6.016   5.696   7.190  1.7195  0.6662  1.3782
  167SAPE  C31318899   5.828   5.772   7.260 -0.4248 -0.2226  0.0006
  167SAPE  H13X18900   5.766   5.729   7.179 -1.8621 -0.0294  0.9663
  167SAPE  H13Y18901   5.781   5.867   7.295  1.7844  0.6971  0.6561
  167SAPE  C31418902   5.818   5.666   7.373 -1.0553  0.0402 -0.3906
  167SAPE  H14X18903   5.884   5.709   7.450  0.6600 -2.7870 -0.1393
  167SAPE  H14Y18904   5.870   5.576   7.333  1.2659 -0.0236  2.4688
  167SAPE  C31518905   5.683   5.629   7.418 -0.0650  0.1331 -0.3253
  167SAPE  H15X18906   5.628   5.569   7.341 -2.6647 -2.7079  3.3638
  167SAPE  H15Y18907   5.629   5.723   7.442 -0.4988 -0.1171 -0.3206
  167SAPE  C31618908   5.686   5.533   7.540  0.1849  0.0079 -0.1959
  167SAPE  H16X18909   5.763   5.574   7.608 -0.2605  0.3534  0.1046
  167SAPE  H16Y18910   5.713   5.430   7.506 -0.6277 -0.4151  0.4040
  167SAPE  C31718911   5.556   5.533   7.620  0.3422 -0.7083 -0.0457
  167SAPE  H17X18912   5.557   5.453   7.698 -0.0121  0.3144  1.0394
  167SAPE  H17Y18913   5.475   5.502   7.550 -1.1592  1.8071  0.4641
  167SAPE  C31818914   5.518   5.670   7.675 -0.8299 -0.0994 -0.5557
  167SAPE  H18X18915   5.494   5.745   7.597  0.6870  0.6297 -0.3450
  167SAPE  H18Y18916   5.609   5.708   7.726 -0.0681 -1.2418 -1.0021
  167SAPE  H18Z18917   5.435   5.664   7.749 -0.5909  2.4108  0.0032
  168SAPE     N18918   0.232   1.332   5.754  0.3875  0.0151 -0.2145
  168SAPE   HN118919   0.136   1.334   5.715  0.3551  1.9277 -0.1323
  168SAPE   HN218920   0.298   1.371   5.683  0.7962 -1.7459 -0.8533
  168SAPE   HN318921   0.264   1.234   5.762  0.3931 -0.1109 -1.5249
  168SAPE   C1218922   0.233   1.405   5.880 -0.5293 -0.7798 -0.5229
  168SAPE  H12A18923   0.239   1.511   5.848 -0.6111 -0.4634  0.5006
  168SAPE  H12B18924   0.333   1.390   5.926 -0.0087  1.5912 -0.7971
  168SAPE   C1118925   0.111   1.377   5.973 -0.5006 -0.0731 -0.0508
  168SAPE  H11A18926   0.100   1.472   6.030  0.8760 -0.5508  1.0844
  168SAPE  H11B18927   0.148   1.300   6.044 -0.7977  0.0646  0.2557
  168SAPE     P18928  -0.119   1.258   5.952  0.2276 -0.3864  0.3030
  168SAPE   O1318929  -0.251   1.315   5.912 -0.6044 -0.3496  0.3097
  168SAPE   O1418930  -0.093   1.121   5.901  0.3415 -0.2671  0.2665
  168SAPE   O1218931  -0.008   1.354   5.897 -0.0571  0.0428 -0.2787
  168SAPE   O1118932  -0.103   1.265   6.107 -0.2503 -0.5414  0.0583
  168SAPE    C118933  -0.145   1.381   6.180 -0.0171 -0.5762 -0.1916
  168SAPE    HA18934  -0.054   1.408   6.236  0.4566  1.0529 -1.6671
  168SAPE    HB18935  -0.181   1.468   6.121 -3.9210 -2.4572 -0.9232
  168SAPE    C218936  -0.257   1.348   6.282  0.0082 -0.2170  0.0571
  168SAPE    HS18937  -0.359   1.325   6.244 -0.1329  0.0965  0.2446
  168SAPE   O2118938  -0.265   1.462   6.375  0.2083 -0.4824 -0.0739
  168SAPE   C2118939  -0.333   1.569   6.340  0.2823  0.2686 -0.1772
  168SAPE   O2218940  -0.391   1.578   6.229 -0.6421 -0.0177 -0.4936
  168SAPE   C2218941  -0.320   1.686   6.430 -0.1778  0.1851  0.3132
  168SAPE   H2R18942  -0.211   1.684   6.448 -0.3930  0.0036  1.7042
  168SAPE   H2S18943  -0.344   1.782   6.378  1.7051  1.0490  0.9532
  168SAPE    C318944  -0.220   1.222   6.364 -0.7224  0.1088 -0.2565
  168SAPE    HX18945  -0.113   1.221   6.395 -0.7161  1.2106 -0.2070
  168SAPE    HY18946  -0.245   1.132   6.303 -0.0913 -0.2362 -0.0256
  168SAPE   O3118947  -0.288   1.214   6.489  0.7180  0.3812  0.1996
  168SAPE   C3118948  -0.419   1.193   6.484 -0.2079 -0.5337  0.2939
  168SAPE   O3218949  -0.485   1.171   6.387  0.4018  0.4218  0.1712
  168SAPE   C3218950  -0.470   1.211   6.627 -0.1117  0.4432 -0.0427
  168SAPE   H2X18951  -0.580   1.210   6.618 -0.2014 -1.8167  0.5534
  168SAPE   H2Y18952  -0.449   1.313   6.663  0.0319  1.0105 -1.6505
  168SAPE   C2318953  -0.406   1.683   6.561 -0.5660  0.0773  0.2403
  168SAPE   H3R18954  -0.386   1.778   6.615 -0.5632  0.8368 -1.0426
  168SAPE   H3S18955  -0.374   1.593   6.618 -1.4901 -2.3259 -2.7619
  168SAPE   C2418956  -0.557   1.664   6.544 -0.2310  0.7547 -0.3135
  168SAPE   H4R18957  -0.595   1.643   6.646 -2.6463  1.9484 -0.8960
  168SAPE   H4S18958  -0.576   1.574   6.482 -1.0635  1.0840 -0.5577
  168SAPE   C2518959  -0.645   1.769   6.474 -0.5889  0.5055 -0.0837
  168SAPE   H5R18960  -0.613   1.792   6.371  0.8396 -0.4052  0.1342
  168SAPE   C2618961  -0.741   1.837   6.530  0.3229 -0.1786 -0.3488
  168SAPE   H6R18962  -0.797   1.906   6.465 -1.4148 -1.0538  0.1468
  168SAPE   C2718963  -0.793   1.820   6.673 -0.3779  0.0180 -1.1372
  168SAPE   H7R18964  -0.764   1.724   6.720  0.2850 -0.0133 -1.5872
  168SAPE   H7S18965  -0.902   1.807   6.659 -0.5189 -0.7144  0.4090
  168SAPE   C2818966  -0.774   1.934   6.769 -0.1490 -0.3643 -0.0646
  168SAPE   H8R18967  -0.809   2.029   6.725  2.0903  0.5556 -0.0171
  168SAPE   C2918968  -0.727   1.932   6.893 -0.6219  0.0858 -0.1772
  168SAPE   H9R18969  -0.712   2.030   6.941 -0.2351 -0.6756  1.2899
  168SAPE  C21018970  -0.652   1.820   6.966 -0.2664 -0.4463 -0.1453
  168SAPE  H10R18971  -0.726   1.737   6.960  1.0724 -1.9533  2.3869
  168SAPE  H10S18972  -0.646   1.854   7.072  2.1923 -0.1248 -0.3409
  168SAPE  C21118973  -0.515   1.767   6.922  0.6918 -1.2417 -0.0051
  168SAPE  H11R18974  -0.491   1.787   6.817 -0.6050 -2.5638 -0.5832
  168SAPE  C21218975  -0.435   1.695   6.997  1.6152 -0.1912  0.7211
  168SAPE  H12R18976  -0.334   1.671   6.959  0.6081 -3.0957 -0.3561
  168SAPE  C21318977  -0.452   1.654   7.139  0.3570  0.3348 -0.3378
  168SAPE  H13R18978  -0.450   1.543   7.141 -2.4041  0.2154 -0.5779
  168SAPE  H13S18979  -0.555   1.674   7.177 -0.1394 -0.3901 -1.2431
  168SAPE  C21418980  -0.338   1.713   7.224  0.7791  0.0985 -1.0141
  168SAPE  H14R18981  -0.235   1.708   7.187  1.3695 -2.4550  0.7750
  168SAPE  C21518982  -0.352   1.739   7.356  0.6739 -0.3264 -0.3874
  168SAPE  H15R18983  -0.269   1.786   7.411 -0.5348  0.6849  0.6499
  168SAPE  C21618984  -0.484   1.736   7.448 -0.2145  0.3025 -0.1344
  168SAPE  H16R18985  -0.503   1.632   7.484  0.7101  0.3713  0.5608
  168SAPE  H16S18986  -0.571   1.754   7.380  0.8361  1.1959 -1.2737
  168SAPE  C21718987  -0.487   1.831   7.569 -0.9192 -0.1468 -1.3359
  168SAPE  H17R18988  -0.587   1.836   7.617  0.2126  1.2707  1.0582
  168SAPE  H17S18989  -0.474   1.935   7.533 -2.6773  0.0440 -1.5065
  168SAPE  C21818990  -0.388   1.794   7.680  0.2682  0.1025 -0.6534
  168SAPE  H18R18991  -0.287   1.811   7.637  0.0964 -0.4766 -1.3002
  168SAPE  H18S18992  -0.402   1.685   7.698 -1.1666  0.4448  0.4728
  168SAPE  C21918993  -0.404   1.882   7.805  0.0720 -0.0635 -0.0379
  168SAPE  H19R18994  -0.458   1.975   7.776  0.6093  0.0488 -0.7272
  168SAPE  H19S18995  -0.304   1.922   7.833  0.3840  1.0907 -2.4901
  168SAPE  C22018996  -0.488   1.819   7.915 -0.3607 -0.2528 -0.0527
  168SAPE  H20R18997  -0.588   1.781   7.887 -0.0301 -0.8972 -0.3863
  168SAPE  H20S18998  -0.485   1.883   8.006 -3.0184 -2.6395  1.8961
  168SAPE  H20T18999  -0.431   1.730   7.951  0.5241 -0.9076 -2.8509
  168SAPE   C3319000  -0.432   1.087   6.719 -0.2257 -0.1627 -0.0840
  168SAPE   H3X19001  -0.333   1.108   6.763 -1.3721 -1.4515  3.4272
  168SAPE   H3Y19002  -0.433   0.992   6.661 -1.7175  0.2737 -0.8398
  168SAPE   C3419003  -0.529   1.050   6.834 -0.4726  0.4308 -0.0865
  168SAPE   H4X19004  -0.633   1.040   6.796  0.3925  0.4794 -2.6758
  168SAPE   H4Y19005  -0.537   1.141   6.898 -0.2883 -0.1438  0.7681
  168SAPE   C3519006  -0.487   0.923   6.918  0.7222  0.0802  0.2360
  168SAPE   H5X19007  -0.382   0.948   6.947  0.2678  1.5063  0.7534
  168SAPE   H5Y19008  -0.499   0.834   6.852  1.6255 -0.6279  1.0060
  168SAPE   C3619009  -0.575   0.927   7.051 -0.2454  0.2274  0.0588
  168SAPE   H6X19010  -0.683   0.903   7.037 -0.1607 -0.2053  0.1211
  168SAPE   H6Y19011  -0.565   1.029   7.093 -0.4893  0.5868 -0.7472
  168SAPE   C3719012  -0.540   0.820   7.156 -0.4209  0.5606 -0.7573
  168SAPE   H7X19013  -0.430   0.829   7.153 -0.3886  0.0553 -1.3438
  168SAPE   H7Y19014  -0.568   0.721   7.113 -0.7760  0.5562 -0.5187
  168SAPE   C3819015  -0.578   0.849   7.294 -0.3442 -0.7350 -0.2544
  168SAPE   H8X19016  -0.677   0.799   7.305 -0.2699 -1.0570 -0.9794
  168SAPE   H8Y19017  -0.592   0.958   7.309 -0.8985 -1.1221  2.6066
  168SAPE   C3919018  -0.472   0.797   7.392  0.0262  0.5041  0.2912
  168SAPE   H9X19019  -0.375   0.837   7.353 -0.4391 -0.3808 -1.9388
  168SAPE   H9Y19020  -0.464   0.687   7.392  1.1659  0.5773  0.1428
  168SAPE  C31019021  -0.505   0.842   7.538 -0.0368  0.0127 -0.1742
  168SAPE  H10X19022  -0.603   0.804   7.575 -0.4354 -0.8325 -1.9912
  168SAPE  H10Y19023  -0.501   0.952   7.533  0.2021 -0.0107 -0.5443
  168SAPE  C31119024  -0.397   0.809   7.645  0.4800 -0.1964  0.2756
  168SAPE  H11X19025  -0.375   0.889   7.719  1.2911 -1.4370  1.4253
  168SAPE  H11Y19026  -0.299   0.804   7.591  0.7561 -2.5850  0.8776
  168SAPE  C31219027  -0.419   0.676   7.705 -1.2762  0.8329 -0.9971
  168SAPE  H12X19028  -0.414   0.601   7.624  1.5231 -0.5921  0.3570
  168SAPE  H12Y19029  -0.519   0.667   7.751 -0.0244 -1.6028  1.5643
  168SAPE  C31319030  -0.321   0.633   7.820  0.0153 -0.8356 -0.0886
  168SAPE  H13X19031  -0.330   0.704   7.905  2.5378  0.0459 -0.4662
  168SAPE  H13Y19032  -0.218   0.632   7.777  0.6989  0.1265  1.4216
  168SAPE  C31419033  -0.351   0.493   7.878  0.0404 -0.0099  0.1986
  168SAPE  H14X19034  -0.326   0.422   7.797  0.1696 -1.4327  1.4562
  168SAPE  H14Y19035  -0.461   0.491   7.897  0.1655  0.8308  1.0963
  168SAPE  C31519036  -0.266   0.453   8.004  0.0669 -0.3565  0.5669
  168SAPE  H15X19037  -0.281   0.541   8.070  0.0109 -1.8001  2.5536
  168SAPE  H15Y19038  -0.159   0.449   7.975 -0.8579 -1.9222 -3.2465
  168SAPE  C31619039  -0.304   0.320   8.067 -0.3449 -0.1661  0.2024
  168SAPE  H16X19040  -0.328   0.247   7.987  1.5741 -0.5317 -0.1101
  168SAPE  H16Y19041  -0.393   0.330   8.132 -0.3140 -2.5483  0.6954
  168SAPE  C31719042  -0.206   0.247   8.169  0.1433 -0.1404  0.6586
  168SAPE  H17X19043  -0.191   0.305   8.262  2.4863 -0.2813  0.4339
  168SAPE  H17Y19044  -0.105   0.252   8.122 -1.2306  1.1136 -2.4268
  168SAPE  C31819045  -0.232   0.096   8.194  0.1325 -0.4337  0.5167
  168SAPE  H18X19046  -0.244   0.035   8.103  0.0991  1.7558 -1.0365
  168SAPE  H18Y19047  -0.328   0.084   8.250 -0.0333 -0.2890  0.2640
  168SAPE  H18Z19048  -0.150   0.069   8.264  1.1214  1.4923  0.1911
  169SAPE     N19049   5.229   3.496   5.867  0.4549 -0.1594  0.1691
  169SAPE   HN119050   5.223   3.394   5.887  2.7311 -0.6254 -1.1590
  169SAPE   HN219051   5.332   3.511   5.870  0.8309 -1.6242 -2.3086
  169SAPE   HN319052   5.176   3.553   5.936 -1.4185  2.5813 -3.2269
  169SAPE   C1219053   5.177   3.541   5.735  0.2166 -0.1613  0.7392
  169SAPE  H12A19054   5.137   3.644   5.745 -1.8084 -0.7976 -0.2732
  169SAPE  H12B19055   5.092   3.483   5.693 -0.4293  0.6854  0.8508
  169SAPE   C1119056   5.298   3.540   5.638 -0.5298 -0.0331 -0.2884
  169SAPE  H11A19057   5.270   3.575   5.537  0.4128 -0.1994 -0.6142
  169SAPE  H11B19058   5.321   3.434   5.615  1.2979  0.3113 -0.2385
  169SAPE     P19059   5.545   3.552   5.712  0.0619  0.2754  0.3769
  169SAPE   O1319060   5.500   3.439   5.797 -0.0546 -0.0690  0.3924
  169SAPE   O1419061   5.627   3.525   5.596  0.1598 -0.1535 -0.0444
  169SAPE   O1219062   5.412   3.627   5.670 -0.0529  0.4246 -0.3674
  169SAPE   O1119063   5.611   3.662   5.806 -0.0410  0.6094 -0.6087
  169SAPE    C119064   5.561   3.794   5.832  0.0148  0.0645  0.1416
  169SAPE    HA19065   5.646   3.861   5.855  1.4484 -2.2229  2.0234
  169SAPE    HB19066   5.512   3.837   5.742  2.1534 -1.9850 -2.1398
  169SAPE    C219067   5.470   3.790   5.962  0.3438 -0.3252  0.4048
  169SAPE    HS19068   5.532   3.850   6.032 -1.1338 -1.0456  2.4230
  169SAPE   O2119069   5.443   3.654   6.006  0.4467 -0.6819  0.2912
  169SAPE   C2119070   5.448   3.632   6.137 -0.4899  1.0062  1.1273
  169SAPE   O2219071   5.475   3.716   6.221 -0.1786  0.2299 -0.1413
  169SAPE   C2219072   5.455   3.480   6.155  0.3777  0.1938 -0.1587
  169SAPE   H2R19073   5.395   3.419   6.084  0.0332 -1.0041  1.1342
  169SAPE   H2S19074   5.556   3.437   6.136 -0.1593 -1.2808  0.2002
  169SAPE    C319075   5.335   3.868   5.927  0.6275 -0.0198 -0.4956
  169SAPE    HX19076   5.273   3.806   5.858  2.2041  1.4493 -3.4463
  169SAPE    HY19077   5.355   3.966   5.879  0.6216 -0.3050 -1.0897
  169SAPE   O3119078   5.263   3.886   6.055  0.4484 -0.3767 -0.1716
  169SAPE   C3119079   5.299   3.977   6.137  0.7547 -0.5352  0.2512
  169SAPE   O3219080   5.367   4.076   6.107 -0.4570 -0.1139  0.0872
  169SAPE   C3219081   5.250   3.943   6.274 -0.0201 -0.5617  0.3452
  169SAPE   H2X19082   5.286   3.843   6.304 -1.5952 -1.7929 -1.6100
  169SAPE   H2Y19083   5.139   3.941   6.262 -0.0319 -0.3284  0.4023
  169SAPE   C2319084   5.413   3.448   6.301 -0.0703 -0.0640 -0.5112
  169SAPE   H3R19085   5.368   3.346   6.299 -2.9449  1.0287  1.6879
  169SAPE   H3S19086   5.327   3.506   6.341 -0.5264 -1.3367  0.4398
  169SAPE   C2419087   5.529   3.452   6.403 -0.4388 -0.0319 -0.4194
  169SAPE   H4R19088   5.499   3.434   6.509  0.9396  2.0845  0.4145
  169SAPE   H4S19089   5.548   3.562   6.396 -1.0124 -0.0097 -2.0664
  169SAPE   C2519090   5.652   3.373   6.375 -0.4308 -0.4122 -0.4524
  169SAPE   H5R19091   5.728   3.406   6.301  1.6559 -2.0004  0.8557
  169SAPE   C2619092   5.679   3.257   6.431  0.7417  0.7363 -0.5383
  169SAPE   H6R19093   5.765   3.199   6.395 -0.1480  0.4508 -2.3515
  169SAPE   C2719094   5.597   3.184   6.533  0.0188  0.3224 -0.0188
  169SAPE   H7R19095   5.608   3.075   6.514  0.5181  0.4370 -0.4310
  169SAPE   H7S19096   5.492   3.216   6.519  0.1469  2.3248  2.7313
  169SAPE   C2819097   5.646   3.212   6.672 -0.3762  0.2943 -0.5520
  169SAPE   H8R19098   5.755   3.209   6.686 -0.4133  0.4748 -0.1817
  169SAPE   C2919099   5.577   3.229   6.785  0.1460  0.2787 -0.3527
  169SAPE   H9R19100   5.627   3.269   6.875 -1.5500 -0.2145  0.8549
  169SAPE  C21019101   5.422   3.233   6.788  0.0424 -0.2733  0.3625
  169SAPE  H10R19102   5.381   3.132   6.812 -1.4862 -0.2978 -2.0321
  169SAPE  H10S19103   5.384   3.254   6.686  0.2173 -0.9991  0.1375
  169SAPE  C21119104   5.376   3.319   6.898 -0.0359  0.9502 -0.0777
  169SAPE  H11R19105   5.399   3.282   6.999  3.0108  3.2770  0.2285
  169SAPE  C21219106   5.322   3.439   6.896  0.4571  0.0361 -0.4958
  169SAPE  H12R19107   5.290   3.485   6.990  1.1282 -1.6478  0.5984
  169SAPE  C21319108   5.310   3.526   6.770  0.3447  0.1181  0.0499
  169SAPE  H13R19109   5.405   3.524   6.712  2.2675 -1.2039  2.9916
  169SAPE  H13S19110   5.295   3.633   6.796 -0.0156  0.2282 -0.5907
  169SAPE  C21419111   5.195   3.476   6.682 -0.5185  0.0233  0.9176
  169SAPE  H14R19112   5.183   3.367   6.693  3.8641 -0.5022  2.2280
  169SAPE  C21519113   5.132   3.550   6.587  0.3554 -0.7795  0.6247
  169SAPE  H15R19114   5.048   3.507   6.531  0.2916 -0.2202  0.2776
  169SAPE  C21619115   5.156   3.693   6.563  0.3201 -0.9095  0.2935
  169SAPE  H16R19116   5.155   3.703   6.452 -0.8432 -0.0897  0.3639
  169SAPE  H16S19117   5.257   3.727   6.595  1.0283 -2.8561  0.2326
  169SAPE  C21719118   5.049   3.773   6.635  0.0757 -0.2224  0.9260
  169SAPE  H17R19119   4.952   3.721   6.624 -0.8992  1.7725 -0.3484
  169SAPE  H17S19120   5.037   3.863   6.572 -0.4864 -0.5284  0.5889
  169SAPE  C21819121   5.065   3.809   6.784 -0.0239  0.3262  0.1838
  169SAPE  H18R19122   5.157   3.871   6.792  1.0730 -0.5965 -3.4152
  169SAPE  H18S19123   5.081   3.713   6.837 -3.7189 -1.4921 -1.6434
  169SAPE  C21919124   4.938   3.862   6.831 -0.1562  0.0439 -0.1699
  169SAPE  H19R19125   4.866   3.778   6.837  0.6082 -0.5147  1.7689
  169SAPE  H19S19126   4.912   3.938   6.754 -2.8824 -2.1587 -1.6042
  169SAPE  C22019127   4.945   3.923   6.975  0.1539  0.0421  0.1875
  169SAPE  H20R19128   4.846   3.955   7.015  1.0268  2.4512  0.6415
  169SAPE  H20S19129   5.005   4.017   6.975 -0.2705  0.3313 -1.2450
  169SAPE  H20T19130   4.998   3.846   7.034  1.4896  0.9548  0.2111
  169SAPE   C3319131   5.274   4.049   6.392  0.2876 -0.0548  0.1223
  169SAPE   H3X19132   5.196   4.030   6.469  1.9054  3.1169  2.7275
  169SAPE   H3Y19133   5.266   4.153   6.353  0.1716 -0.7079 -1.7231
  169SAPE   C3419134   5.415   4.028   6.446  0.0805 -0.2075  0.0766
  169SAPE   H4X19135   5.490   4.043   6.365 -1.9876 -0.1182 -1.9294
  169SAPE   H4Y19136   5.424   3.923   6.481 -2.7520 -0.9466 -1.1924
  169SAPE   C3519137   5.451   4.123   6.570  0.3641 -0.3266  0.7176
  169SAPE   H5X19138   5.482   4.222   6.530  2.2666 -1.2267 -0.2006
  169SAPE   H5Y19139   5.549   4.085   6.608  0.1622 -0.3393  1.2273
  169SAPE   C3619140   5.340   4.124   6.675 -0.1532  0.0570  0.1156
  169SAPE   H6X19141   5.311   4.018   6.689  1.7437 -0.6625 -0.9771
  169SAPE   H6Y19142   5.253   4.172   6.625  0.1871 -0.7012 -1.2403
  169SAPE   C3719143   5.374   4.194   6.803 -0.8946  0.2951  0.7630
  169SAPE   H7X19144   5.403   4.293   6.761 -1.3156  0.9855  2.0433
  169SAPE   H7Y19145   5.464   4.151   6.853 -0.5586  0.4772  0.3206
  169SAPE   C3819146   5.248   4.200   6.891 -0.3745 -0.8746  0.0897
  169SAPE   H8X19147   5.204   4.099   6.906 -0.4451 -1.3734 -2.9023
  169SAPE   H8Y19148   5.170   4.264   6.845 -0.0067 -1.3470 -1.2311
  169SAPE   C3919149   5.299   4.259   7.023 -0.1586 -0.1951 -0.6974
  169SAPE   H9X19150   5.365   4.346   7.001  1.5802 -1.2545  0.1166
  169SAPE   H9Y19151   5.372   4.183   7.056 -1.5751 -2.0251 -1.6193
  169SAPE  C31019152   5.196   4.280   7.136  0.1643 -0.0883  0.9508
  169SAPE  H10X19153   5.138   4.185   7.131  1.7483 -1.1456  1.5571
  169SAPE  H10Y19154   5.127   4.358   7.098 -2.3154 -2.6252 -0.1569
  169SAPE  C31119155   5.259   4.292   7.272  0.1826  0.3859  0.4466
  169SAPE  H11X19156   5.299   4.395   7.285  1.3008  0.5001 -2.9479
  169SAPE  H11Y19157   5.346   4.223   7.281  1.1795  1.7219  1.5553
  169SAPE  C31219158   5.154   4.270   7.382  0.3686 -0.8466 -0.2603
  169SAPE  H12X19159   5.138   4.161   7.368  1.5429 -1.3416  1.8240
  169SAPE  H12Y19160   5.062   4.320   7.344  1.1576  0.8832 -0.0306
  169SAPE  C31319161   5.178   4.310   7.531 -0.0498 -0.2583  0.2180
  169SAPE  H13X19162   5.095   4.264   7.588  1.2615 -1.8226  0.9391
  169SAPE  H13Y19163   5.173   4.421   7.522  0.7305 -0.3182 -1.3381
  169SAPE  C31419164   5.319   4.279   7.587  0.2386  0.1173 -0.5207
  169SAPE  H14X19165   5.403   4.330   7.535  2.2051 -1.8464  0.5712
  169SAPE  H14Y19166   5.338   4.173   7.560 -0.6587 -0.7818  2.0886
  169SAPE  C31519167   5.343   4.303   7.731 -0.8499  0.0034 -0.4110
  169SAPE  H15X19168   5.311   4.403   7.765  2.0762  0.9762 -0.2518
  169SAPE  H15Y19169   5.451   4.281   7.745 -0.3875  1.0996 -1.9037
  169SAPE  C31619170   5.266   4.203   7.830  0.0107 -0.0524 -0.5219
  169SAPE  H16X19171   5.294   4.099   7.806  1.1169  0.0933  0.0527
  169SAPE  H16Y19172   5.160   4.217   7.798 -0.3541 -0.3848  0.5056
  169SAPE  C31719173   5.272   4.232   7.982  0.8129  0.2776 -0.9725
  169SAPE  H17X19174   5.261   4.341   7.999  0.2696 -0.0279  0.7709
  169SAPE  H17Y19175   5.375   4.207   8.015 -0.1429  0.8221  2.8281
  169SAPE  C31819176   5.181   4.140   8.068 -0.4024  0.4263  0.5526
  169SAPE  H18X19177   5.167   4.043   8.015 -0.4396  0.7870 -0.1142
  169SAPE  H18Y19178   5.080   4.183   8.084 -0.1684  0.4321  2.1127
  169SAPE  H18Z19179   5.227   4.149   8.168 -1.0560  1.7817  0.7529
  170SAPE     N19180   1.059   0.115   5.358  0.5397  0.1073  0.2655
  170SAPE   HN119181   1.075   0.023   5.404 -0.9850 -1.8796 -2.8498
  170SAPE   HN219182   0.989   0.109   5.282  1.6826 -3.4620 -0.7244
  170SAPE   HN319183   1.145   0.145   5.308 -0.6760  3.7882  0.1464
  170SAPE   C1219184   1.027   0.215   5.470 -0.0017 -0.2866 -0.6470
  170SAPE  H12A19185   0.923   0.203   5.509 -0.0809 -0.4145 -0.8980
  170SAPE  H12B19186   1.040   0.315   5.424  2.9838  0.8087  2.1803
  170SAPE   C1119187   1.125   0.204   5.585 -0.0835  0.0890 -0.2185
  170SAPE  H11A19188   1.109   0.103   5.629  2.4943 -0.9632 -1.4775
  170SAPE  H11B19189   1.094   0.261   5.676  1.0221 -2.1738  1.6828
  170SAPE     P19190   1.342   0.351   5.570  0.2110  0.1003 -0.3910
  170SAPE   O1319191   1.476   0.347   5.497 -0.2263 -0.5084  0.0715
  170SAPE   O1419192   1.249   0.461   5.532  0.6709 -0.4710 -0.2290
  170SAPE   O1219193   1.258   0.223   5.550  0.3503  0.0466  0.2353
  170SAPE   O1119194   1.366   0.356   5.723 -0.4228  0.5367  0.2755
  170SAPE    C119195   1.434   0.264   5.808  0.3463 -0.2943  0.3745
  170SAPE    HA19196   1.454   0.172   5.749 -0.1317 -0.6812  0.8082
  170SAPE    HB19197   1.524   0.312   5.852 -1.4893  2.4308  1.4497
  170SAPE    C219198   1.354   0.216   5.931  0.3295  1.0099 -0.0571
  170SAPE    HS19199   1.261   0.170   5.891  0.0894  0.3855  1.1589
  170SAPE   O2119200   1.323   0.320   6.021 -0.4871  0.3567 -0.6375
  170SAPE   C2119201   1.220   0.314   6.094  0.0510  0.4851  0.2542
  170SAPE   O2219202   1.153   0.215   6.114  0.2427 -0.4735  0.0869
  170SAPE   C2219203   1.205   0.447   6.166  0.1076  0.0217  0.7141
  170SAPE   H2R19204   1.155   0.518   6.096 -1.1172 -0.4558  1.0755
  170SAPE   H2S19205   1.136   0.421   6.249  0.6741 -1.5798  0.7243
  170SAPE    C319206   1.441   0.105   6.000 -0.1026 -0.1178 -0.1812
  170SAPE    HX19207   1.540   0.148   6.027 -0.7887  2.2299 -1.1045
  170SAPE    HY19208   1.466   0.020   5.934 -1.0103 -1.6707  1.3844
  170SAPE   O3119209   1.378   0.044   6.119  0.3716 -0.3016 -0.2465
  170SAPE   C3119210   1.287  -0.052   6.093  0.4027  0.9687  0.4355
  170SAPE   O3219211   1.259  -0.096   5.983  0.2125 -0.0918  0.3113
  170SAPE   C3219212   1.223  -0.095   6.229 -0.3650 -0.1624 -0.4633
  170SAPE   H2X19213   1.170  -0.191   6.210  0.2092 -0.5928  0.0393
  170SAPE   H2Y19214   1.150  -0.016   6.258  0.0851 -0.0131  0.2925
  170SAPE   C2319215   1.324   0.525   6.224 -0.2452 -0.8219 -0.3636
  170SAPE   H3R19216   1.292   0.626   6.259  2.3988  0.7359 -2.0650
  170SAPE   H3S19217   1.407   0.547   6.153  0.2917 -0.3553  0.4033
  170SAPE   C2419218   1.400   0.469   6.342  0.5855  0.6961 -0.2403
  170SAPE   H4R19219   1.482   0.543   6.353  1.5211 -0.2299 -0.8280
  170SAPE   H4S19220   1.445   0.371   6.314 -1.8513 -0.3878 -0.6605
  170SAPE   C2519221   1.318   0.451   6.465  0.0308  0.1947  0.2593
  170SAPE   H5R19222   1.223   0.398   6.446 -1.2560  2.6539 -0.7001
  170SAPE   C2619223   1.348   0.499   6.584  0.4048  0.1520  0.2861
  170SAPE   H6R19224   1.280   0.484   6.670  1.6496  0.4413  1.3500
  170SAPE   C2719225   1.477   0.569   6.633 -0.0805  0.1010 -0.0531
  170SAPE   H7R19226   1.542   0.560   6.543 -2.1314 -0.8449 -1.5260
  170SAPE   H7S19227   1.514   0.507   6.717  0.5695 -1.9299 -1.7304
  170SAPE   C2819228   1.460   0.716   6.674 -0.1610  1.1006  0.2981
  170SAPE   H8R19229   1.446   0.785   6.589 -2.9292 -0.5625 -0.7563
  170SAPE   C2919230   1.454   0.771   6.795 -0.0123 -0.0557  0.1495
  170SAPE   H9R19231   1.438   0.880   6.805 -1.6732 -0.3642  1.1778
  170SAPE  C21019232   1.454   0.706   6.934 -0.2012 -0.7131 -0.0639
  170SAPE  H10R19233   1.508   0.610   6.919 -0.6843 -1.0343  0.2236
  170SAPE  H10S19234   1.348   0.688   6.964  0.2246 -1.1034  1.2447
  170SAPE  C21119235   1.522   0.785   7.035 -0.2849 -0.5681  0.3029
  170SAPE  H11R19236   1.592   0.864   7.003 -0.7922  0.5323  1.8109
  170SAPE  C21219237   1.506   0.774   7.168  0.6292  0.5692  0.4779
  170SAPE  H12R19238   1.574   0.830   7.234 -0.3949  1.0808  1.1302
  170SAPE  C21319239   1.432   0.661   7.228  0.6176  0.4407 -0.1793
  170SAPE  H13R19240   1.434   0.581   7.151 -0.2880  0.4985 -0.2726
  170SAPE  H13S19241   1.323   0.677   7.243  0.4939 -0.0108 -0.5560
  170SAPE  C21419242   1.494   0.610   7.357  0.0588 -0.2518  0.1556
  170SAPE  H14R19243   1.555   0.520   7.338  2.2113  1.3080 -0.7787
  170SAPE  C21519244   1.505   0.668   7.483  0.3369 -0.0968  0.2191
  170SAPE  H15R19245   1.547   0.618   7.571  0.9578  0.1389  0.0614
  170SAPE  C21619246   1.432   0.798   7.510 -0.0689 -0.6117 -0.3052
  170SAPE  H16R19247   1.358   0.780   7.590 -1.4831  1.5661 -1.0207
  170SAPE  H16S19248   1.376   0.837   7.422  0.6565  2.5044  0.4632
  170SAPE  C21719249   1.529   0.916   7.554  0.3177  0.4152  0.3037
  170SAPE  H17R19250   1.461   1.004   7.556 -0.7724 -0.4112  1.0342
  170SAPE  H17S19251   1.610   0.926   7.479 -0.6564  3.2063 -0.5033
  170SAPE  C21819252   1.597   0.898   7.693  0.0366 -0.1966  0.2562
  170SAPE  H18R19253   1.533   0.827   7.749  1.1521 -3.1543 -1.9732
  170SAPE  H18S19254   1.605   0.999   7.739  0.5575 -0.2603  0.3154
  170SAPE  C21919255   1.738   0.845   7.676  0.0902 -0.5498 -0.2719
  170SAPE  H19R19256   1.796   0.924   7.624 -1.6722  0.5411 -0.6334
  170SAPE  H19S19257   1.735   0.754   7.612  0.4758  0.1825 -1.3534
  170SAPE  C22019258   1.808   0.803   7.806 -0.4551 -0.2232  0.1098
  170SAPE  H20R19259   1.742   0.739   7.869 -0.2833  0.3247  0.8553
  170SAPE  H20S19260   1.834   0.890   7.870 -1.8433 -0.5888  1.2334
  170SAPE  H20T19261   1.901   0.753   7.772  0.3884  1.6831 -0.4815
  170SAPE   C3319262   1.324  -0.112   6.341 -0.0802 -0.4325 -0.0160
  170SAPE   H3X19263   1.376  -0.014   6.347  1.0111 -0.8858 -1.5320
  170SAPE   H3Y19264   1.391  -0.196   6.315 -1.4092 -1.4927 -0.1572
  170SAPE   C3419265   1.250  -0.141   6.479  0.5733 -0.0344  0.8757
  170SAPE   H4X19266   1.174  -0.219   6.458  1.0205 -0.6588  1.5241
  170SAPE   H4Y19267   1.190  -0.051   6.502  1.5902  0.1708  2.9248
  170SAPE   C3519268   1.340  -0.179   6.595  0.3859 -0.0028  1.1165
  170SAPE   H5X19269   1.417  -0.099   6.594  0.4155 -0.0283  0.4503
  170SAPE   H5Y19270   1.399  -0.269   6.564  0.2567 -0.5678  2.4398
  170SAPE   C3619271   1.276  -0.184   6.731 -0.1707 -0.3458 -0.9624
  170SAPE   H6X19272   1.196  -0.261   6.733 -2.8403  2.2007  2.0626
  170SAPE   H6Y19273   1.224  -0.088   6.752  0.4043 -0.5617  1.9542
  170SAPE   C3719274   1.369  -0.215   6.844  0.2421 -0.2704  0.3648
  170SAPE   H7X19275   1.458  -0.150   6.854  0.5519 -0.5799 -0.3052
  170SAPE   H7Y19276   1.407  -0.319   6.852  1.6580 -0.3107 -4.3287
  170SAPE   C3819277   1.297  -0.171   6.975 -0.1951 -0.2782 -0.0287
  170SAPE   H8X19278   1.219  -0.248   6.993 -0.6319 -0.3859 -2.1591
  170SAPE   H8Y19279   1.254  -0.069   6.961  0.5359  0.1827  0.9486
  170SAPE   C3919280   1.394  -0.179   7.096 -0.4764  0.5146  0.3911
  170SAPE   H9X19281   1.472  -0.105   7.067  0.3097 -0.7772 -0.8839
  170SAPE   H9Y19282   1.438  -0.280   7.096  2.1794  1.5759  1.9174
  170SAPE  C31019283   1.341  -0.146   7.230 -0.7090  0.1678  0.1101
  170SAPE  H10X19284   1.244  -0.199   7.245 -0.4497 -1.0676 -2.1666
  170SAPE  H10Y19285   1.319  -0.037   7.230 -0.9764  0.1714 -2.1745
  170SAPE  C31119286   1.449  -0.177   7.338 -0.7475 -0.2716  0.1953
  170SAPE  H11X19287   1.543  -0.124   7.312 -1.3930  0.4196 -0.7848
  170SAPE  H11Y19288   1.464  -0.288   7.337 -0.4167 -0.2281 -0.9354
  170SAPE  C31219289   1.402  -0.129   7.482  0.5022 -0.0154  0.0043
  170SAPE  H12X19290   1.304  -0.180   7.495 -0.0237  1.1201  0.6574
  170SAPE  H12Y19291   1.390  -0.019   7.481 -0.8950 -0.1572  0.0918
  170SAPE  C31319292   1.490  -0.174   7.603  0.6351  0.7275  0.0766
  170SAPE  H13X19293   1.595  -0.137   7.605  1.7450 -2.1410 -0.2274
  170SAPE  H13Y19294   1.512  -0.283   7.605  0.9886  0.7826  2.7746
  170SAPE  C31419295   1.409  -0.144   7.724  0.2935 -1.0678  0.0720
  170SAPE  H14X19296   1.311  -0.197   7.715  0.7272 -1.6975 -1.1107
  170SAPE  H14Y19297   1.382  -0.037   7.734 -2.8767 -1.8467  1.2076
  170SAPE  C31519298   1.488  -0.180   7.854  0.3952 -0.1184 -1.0069
  170SAPE  H15X19299   1.594  -0.154   7.834  1.0747 -2.4392 -0.7221
  170SAPE  H15Y19300   1.488  -0.291   7.852  2.5916 -0.1681 -0.6427
  170SAPE  C31619301   1.427  -0.123   7.989 -0.7389  0.0409  0.0529
  170SAPE  H16X19302   1.427  -0.012   7.987  0.6572  0.1120  1.7603
  170SAPE  H16Y19303   1.488  -0.158   8.075  1.4389 -0.6152 -1.6710
  170SAPE  C31719304   1.279  -0.168   8.017 -0.2648 -0.2918 -0.1972
  170SAPE  H17X19305   1.263  -0.269   7.974 -1.2175  0.6516 -2.1860
  170SAPE  H17Y19306   1.216  -0.098   7.958  0.9174 -0.8683 -2.2343
  170SAPE  C31819307   1.246  -0.168   8.162 -0.1617  0.5921 -0.3477
  170SAPE  H18X19308   1.277  -0.070   8.205  1.6957  0.4415 -1.2327
  170SAPE  H18Y19309   1.304  -0.243   8.220  0.4669 -0.4953 -2.2853
  170SAPE  H18Z19310   1.138  -0.174   8.186  0.4401 -2.4306  2.3478
  171SAPE     N19311   1.983   0.723   5.990 -0.4611 -0.2079  0.1343
  171SAPE   HN119312   2.040   0.665   6.055  0.1064  1.1098  0.8569
  171SAPE   HN219313   1.953   0.667   5.908  0.1694 -0.1149 -0.1594
  171SAPE   HN319314   2.037   0.800   5.947  1.5181 -0.7821  1.4355
  171SAPE   C1219315   1.874   0.793   6.059  0.5519  0.1134  0.1591
  171SAPE  H12A19316   1.822   0.720   6.124  1.2086  1.7678  2.6656
  171SAPE  H12B19317   1.800   0.835   5.987 -1.3527 -2.0769  0.6985
  171SAPE   C1119318   1.941   0.906   6.139 -0.4096 -0.6676  0.6401
  171SAPE  H11A19319   2.007   0.868   6.220 -0.5217 -2.2428  0.0211
  171SAPE  H11B19320   1.860   0.963   6.189  0.4046 -0.0874  1.3422
  171SAPE     P19321   1.976   1.137   6.019 -0.0563  0.0891  0.5134
  171SAPE   O1319322   2.093   1.201   5.970  0.0350  0.5385  0.4737
  171SAPE   O1419323   1.859   1.136   5.935  0.2494  0.0290 -0.1275
  171SAPE   O1219324   2.011   0.991   6.051  0.7900 -0.7964  0.1984
  171SAPE   O1119325   1.950   1.215   6.154  0.0746  0.8900 -0.0968
  171SAPE    C119326   2.046   1.186   6.264 -0.6853 -0.2860 -0.1230
  171SAPE    HA19327   2.062   1.077   6.282  3.2373  0.0276 -0.8042
  171SAPE    HB19328   2.145   1.233   6.247 -0.0947 -0.9043  1.4290
  171SAPE    C219329   2.004   1.243   6.401 -0.1249 -0.1738  0.1276
  171SAPE    HS19330   2.080   1.246   6.482 -1.6279 -0.5236  1.6080
  171SAPE   O2119331   1.879   1.181   6.452 -0.1587 -0.2730  0.7057
  171SAPE   C2119332   1.885   1.056   6.491 -0.8201  0.8105 -0.4020
  171SAPE   O2219333   1.993   0.998   6.518  0.0017  0.2200  0.1076
  171SAPE   C2219334   1.744   0.993   6.502 -0.6419  0.7984  0.2464
  171SAPE   H2R19335   1.707   0.979   6.398 -1.2671 -1.2364  0.7044
  171SAPE   H2S19336   1.746   0.892   6.549  4.1891  0.4743 -0.1725
  171SAPE    C319337   1.963   1.386   6.378 -0.1279 -0.2391  0.7811
  171SAPE    HX19338   1.885   1.385   6.299  2.2677  0.2084 -1.7041
  171SAPE    HY19339   2.040   1.437   6.317 -0.5946 -0.7936 -0.3061
  171SAPE   O3119340   1.940   1.458   6.505 -1.0191 -0.3233 -0.3962
  171SAPE   C3119341   1.812   1.456   6.558 -0.0876  0.0570  0.5374
  171SAPE   O3219342   1.714   1.409   6.499 -0.3307  0.5465  0.1949
  171SAPE   C3219343   1.802   1.512   6.694 -0.4331 -0.0666  0.7176
  171SAPE   H2X19344   1.700   1.482   6.726 -1.1101  0.7432 -0.5952
  171SAPE   H2Y19345   1.823   1.621   6.687 -0.0261 -0.1641  0.3544
  171SAPE   C2319346   1.646   1.072   6.587  0.4484  0.2465  0.2380
  171SAPE   H3R19347   1.546   1.031   6.563  0.5489 -0.2570  0.6690
  171SAPE   H3S19348   1.652   1.176   6.548 -1.6108  0.0784 -0.6876
  171SAPE   C2419349   1.695   1.065   6.734  0.6553 -0.4931 -0.5739
  171SAPE   H4R19350   1.791   1.122   6.735 -0.8976  2.2846 -0.0392
  171SAPE   H4S19351   1.722   0.966   6.776 -0.1793 -0.4698  0.0378
  171SAPE   C2519352   1.589   1.129   6.822  0.2376  0.1159  0.8872
  171SAPE   H5R19353   1.501   1.169   6.771  0.5122 -0.1759  0.1747
  171SAPE   C2619354   1.587   1.151   6.953  0.1299  0.5195  0.2288
  171SAPE   H6R19355   1.493   1.182   7.000 -0.9860 -1.9958 -0.1666
  171SAPE   C2719356   1.707   1.117   7.038  0.7827 -0.7712  0.3114
  171SAPE   H7R19357   1.798   1.171   7.007  0.3512 -1.4705 -2.4074
  171SAPE   H7S19358   1.730   1.009   7.025  2.5587 -0.4655  0.7423
  171SAPE   C2819359   1.676   1.150   7.182  0.0785 -0.2731  0.6128
  171SAPE   H8R19360   1.585   1.206   7.209  0.0336 -1.1251  2.4004
  171SAPE   C2919361   1.742   1.098   7.285 -0.1974 -0.2008 -0.0210
  171SAPE   H9R19362   1.726   1.133   7.388 -0.8526 -3.3213  1.0450
  171SAPE  C21019363   1.866   1.004   7.273  0.0940 -0.6211 -0.0191
  171SAPE  H10R19364   1.929   1.027   7.362 -1.6569 -1.0975  1.3819
  171SAPE  H10S19365   1.930   1.013   7.182  0.6523 -2.0531  0.2053
  171SAPE  C21119366   1.842   0.855   7.287 -0.0683  0.1907 -0.1448
  171SAPE  H11R19367   1.766   0.833   7.364 -0.2839 -2.1312 -0.9358
  171SAPE  C21219368   1.913   0.753   7.243 -0.7352 -0.3435  0.5877
  171SAPE  H12R19369   1.869   0.655   7.264  0.1328 -0.1690  3.7377
  171SAPE  C21319370   2.027   0.753   7.147  0.3498 -0.0316 -0.0969
  171SAPE  H13R19371   2.069   0.651   7.155 -0.7057 -0.3437  2.6518
  171SAPE  H13S19372   2.107   0.827   7.169  0.9737 -0.5958 -0.4769
  171SAPE  C21419373   1.978   0.781   7.007 -0.2701 -0.7936 -0.8653
  171SAPE  H14R19374   1.894   0.718   6.974 -1.0117  0.0909 -0.6915
  171SAPE  C21519375   2.029   0.868   6.929 -0.3230 -0.6873 -0.0541
  171SAPE  H15R19376   1.963   0.888   6.844 -2.2713  0.9003  1.7239
  171SAPE  C21619377   2.150   0.958   6.965  0.9076 -0.1475  0.0937
  171SAPE  H16R19378   2.249   0.908   6.966 -0.5259 -3.1563  1.1557
  171SAPE  H16S19379   2.132   1.005   7.064  0.5709 -0.4422  0.1733
  171SAPE  C21719380   2.184   1.076   6.869  0.9567  0.5549 -0.6725
  171SAPE  H17R19381   2.099   1.146   6.880  1.2675  0.6136  1.9494
  171SAPE  H17S19382   2.186   1.044   6.762 -1.8861 -1.3693 -0.2377
  171SAPE  C21819383   2.309   1.142   6.915 -0.2158 -0.5157  0.7836
  171SAPE  H18R19384   2.399   1.079   6.904  0.0226 -0.0586  0.0183
  171SAPE  H18S19385   2.297   1.182   7.018 -1.9959  1.3590 -0.0769
  171SAPE  C21919386   2.335   1.277   6.840 -0.2948  0.0804  0.0199
  171SAPE  H19R19387   2.431   1.312   6.884  2.0254 -1.2894 -3.5398
  171SAPE  H19S19388   2.251   1.343   6.870 -0.6523  0.1892 -1.1552
  171SAPE  C22019389   2.357   1.269   6.686  0.1405  0.9161 -0.2036
  171SAPE  H20R19390   2.263   1.223   6.649  1.1216 -2.7487  1.4104
  171SAPE  H20S19391   2.433   1.200   6.643  1.0808  2.7867 -1.6945
  171SAPE  H20T19392   2.363   1.371   6.643 -2.9774  0.7720 -1.2369
  171SAPE   C3319393   1.918   1.458   6.782 -0.3839  0.0977 -0.2818
  171SAPE   H3X19394   2.016   1.509   6.772  0.0013 -1.0281 -3.4883
  171SAPE   H3Y19395   1.936   1.350   6.760  0.4409 -0.0586  1.0504
  171SAPE   C3419396   1.878   1.460   6.932 -0.0720 -0.7437 -0.7952
  171SAPE   H4X19397   1.820   1.366   6.949  1.6858 -1.5126  1.4942
  171SAPE   H4Y19398   1.833   1.558   6.959  2.4858  0.0933  0.7834
  171SAPE   C3519399   1.998   1.431   7.032 -0.3737  0.3435 -0.0631
  171SAPE   H5X19400   2.084   1.491   6.993  0.3507 -0.1831  0.6898
  171SAPE   H5Y19401   2.025   1.325   7.012 -1.5418  0.1465 -0.6732
  171SAPE   C3619402   1.973   1.446   7.179 -0.9192  0.2623 -0.3673
  171SAPE   H6X19403   1.872   1.403   7.197 -0.0487 -1.0541  1.8586
  171SAPE   H6Y19404   1.969   1.554   7.205  1.5438  0.2327  0.3900
  171SAPE   C3719405   2.075   1.367   7.264  0.7932  0.4459  0.0107
  171SAPE   H7X19406   2.178   1.404   7.243  0.9781 -1.3070 -2.6046
  171SAPE   H7Y19407   2.075   1.259   7.238 -1.2836 -0.2932  2.6691
  171SAPE   C3819408   2.032   1.371   7.415 -0.4177  0.6103 -0.2703
  171SAPE   H8X19409   1.940   1.311   7.432  1.2048 -1.9696  0.0532
  171SAPE   H8Y19410   2.023   1.475   7.451  3.0350  0.2053  2.3016
  171SAPE   C3919411   2.136   1.307   7.511 -0.2895  0.3920  0.4686
  171SAPE   H9X19412   2.151   1.199   7.489  1.5006  0.6368  0.2994
  171SAPE   H9Y19413   2.089   1.322   7.610 -1.6455  2.8809 -0.4678
  171SAPE  C31019414   2.266   1.383   7.515 -0.2663 -0.4655 -0.2137
  171SAPE  H10X19415   2.247   1.492   7.529 -2.4297 -0.8096 -0.1814
  171SAPE  H10Y19416   2.320   1.375   7.418  1.3475  0.5752  0.5416
  171SAPE  C31119417   2.368   1.318   7.617 -0.3882 -0.5083  0.1880
  171SAPE  H11X19418   2.315   1.295   7.712  0.1822 -0.7040  0.4627
  171SAPE  H11Y19419   2.442   1.400   7.625  0.9510 -1.7478  0.8157
  171SAPE  C31219420   2.444   1.193   7.572 -0.1460 -0.4034 -0.0208
  171SAPE  H12X19421   2.480   1.212   7.468 -1.0447 -0.8705 -0.4291
  171SAPE  H12Y19422   2.372   1.110   7.586  0.2419 -0.5203  1.3526
  171SAPE  C31319423   2.566   1.159   7.663 -0.5604  0.0142 -0.3850
  171SAPE  H13X19424   2.646   1.234   7.647  0.7759 -1.6567 -2.1373
  171SAPE  H13Y19425   2.608   1.060   7.634 -2.6970 -1.0531 -0.1022
  171SAPE  C31419426   2.532   1.165   7.819  0.1896 -0.3875  0.0862
  171SAPE  H14X19427   2.428   1.128   7.825 -0.0685  0.2203 -0.4828
  171SAPE  H14Y19428   2.519   1.267   7.860 -2.9772  0.2788 -2.1984
  171SAPE  C31519429   2.624   1.073   7.903 -0.4093  0.0985  0.1009
  171SAPE  H15X19430   2.726   1.115   7.891 -0.1133 -0.5674  0.2583
  171SAPE  H15Y19431   2.618   0.974   7.853  0.8069 -0.0215  0.1796
  171SAPE  C31619432   2.589   1.067   8.049 -0.2350 -0.1244 -0.1804
  171SAPE  H16X19433   2.486   1.029   8.063 -0.1667 -0.0746  0.4942
  171SAPE  H16Y19434   2.610   1.169   8.088  0.7061  0.6807 -2.5699
  171SAPE  C31719435   2.677   0.971   8.130 -0.3933 -1.4440 -0.2174
  171SAPE  H17X19436   2.783   1.005   8.128 -0.4998 -1.0413  0.6121
  171SAPE  H17Y19437   2.677   0.874   8.076  0.7767 -0.8580 -1.3436
  171SAPE  C31819438   2.622   0.959   8.274 -0.2543  0.0416  0.5121
  171SAPE  H18X19439   2.619   1.062   8.315  0.8023 -0.1134  1.0081
  171SAPE  H18Y19440   2.691   0.900   8.338 -0.1166 -0.1596  0.1860
  171SAPE  H18Z19441   2.517   0.923   8.265 -0.1182 -0.5146  1.0471
  172SAPE     N19442   3.649   6.874   5.746 -0.5295  0.1569  0.1041
  172SAPE   HN119443   3.738   6.909   5.788  0.7144 -0.8109 -1.6263
  172SAPE   HN219444   3.664   6.802   5.673 -0.3602 -1.9413  2.0866
  172SAPE   HN319445   3.589   6.945   5.699 -0.3809 -0.1443 -0.5531
  172SAPE   C1219446   3.568   6.813   5.860  0.2140  0.5407  0.3980
  172SAPE  H12A19447   3.551   6.896   5.932  1.3018  0.1501  1.1296
  172SAPE  H12B19448   3.637   6.736   5.900 -0.6311 -0.0936  0.6680
  172SAPE   C1119449   3.435   6.750   5.819 -0.3116  0.8282  0.3661
  172SAPE  H11A19450   3.373   6.736   5.909 -3.5747 -0.2010 -1.8728
  172SAPE  H11B19451   3.452   6.650   5.773 -2.2995  0.6928 -0.1443
  172SAPE     P19452   3.224   6.901   5.765  0.1089  0.2999  0.1308
  172SAPE   O1319453   3.261   7.003   5.864  0.8958 -0.1049 -0.3509
  172SAPE   O1419454   3.163   6.946   5.636 -0.3809  0.7812  0.4175
  172SAPE   O1219455   3.358   6.821   5.731 -0.2437 -0.3756 -0.2205
  172SAPE   O1119456   3.138   6.783   5.833 -0.0372 -0.3086 -0.7621
  172SAPE    C119457   2.994   6.796   5.872 -0.9527 -0.0681  0.2379
  172SAPE    HA19458   2.953   6.888   5.825 -0.6779 -0.9267 -1.7795
  172SAPE    HB19459   2.939   6.703   5.848  0.4514 -0.7126 -0.6576
  172SAPE    C219460   2.982   6.807   6.022  0.3440 -0.2510  0.7244
  172SAPE    HS19461   2.883   6.777   6.063  0.0149 -0.1071  0.0486
  172SAPE   O2119462   3.021   6.939   6.072 -0.2860  0.6347  0.3048
  172SAPE   C2119463   2.936   7.035   6.049  1.6891 -0.5368  0.3976
  172SAPE   O2219464   2.827   7.015   5.987 -0.0962 -0.4829  0.2100
  172SAPE   C2219465   2.969   7.171   6.115 -0.1743  0.5131 -0.2266
  172SAPE   H2R19466   3.035   7.162   6.204 -0.6318 -0.5533  0.0149
  172SAPE   H2S19467   3.014   7.241   6.042  0.3108  1.7580  1.2017
  172SAPE    C319468   3.078   6.706   6.095  0.0009 -0.0348 -0.3552
  172SAPE    HX19469   3.184   6.735   6.083  0.3973 -0.6042  1.5088
  172SAPE    HY19470   3.059   6.601   6.063 -1.6638  0.0183  0.3751
  172SAPE   O3119471   3.037   6.720   6.237 -0.2923  0.1997  0.5056
  172SAPE   C3119472   3.117   6.778   6.316 -0.4675 -0.8057 -0.6258
  172SAPE   O3219473   3.218   6.845   6.287  0.0255  0.2042 -0.5274
  172SAPE   C3219474   3.067   6.767   6.457 -0.0371 -0.0647 -0.1503
  172SAPE   H2X19475   3.128   6.690   6.509 -1.6313 -0.5963  1.0586
  172SAPE   H2Y19476   2.962   6.729   6.449 -0.2341  0.8826 -3.4630
  172SAPE   C2319477   2.840   7.248   6.163  0.0169  0.1392 -0.3920
  172SAPE   H3R19478   2.786   7.188   6.239  1.1490  0.6250  0.8359
  172SAPE   H3S19479   2.771   7.275   6.080  0.0779 -1.7436 -1.1020
  172SAPE   C2419480   2.876   7.391   6.210  0.6061  0.0951 -0.1273
  172SAPE   H4R19481   2.798   7.468   6.192  0.2822 -0.3317 -0.5891
  172SAPE   H4S19482   2.952   7.425   6.137  0.5516 -0.6100 -0.5207
  172SAPE   C2519483   2.932   7.407   6.345 -0.0510  0.4874 -0.0921
  172SAPE   H5R19484   3.022   7.345   6.350  1.5483  2.6943 -0.1244
  172SAPE   C2619485   2.876   7.469   6.454 -0.1755 -0.3524 -0.1612
  172SAPE   H6R19486   2.936   7.478   6.545  2.1999  2.7033 -1.8398
  172SAPE   C2719487   2.743   7.541   6.443  0.6882  0.5709  0.5888
  172SAPE   H7R19488   2.680   7.497   6.362  0.8786  0.7014  0.3686
  172SAPE   H7S19489   2.751   7.647   6.412  0.9283  0.6827  1.0227
  172SAPE   C2819490   2.657   7.527   6.575 -0.1366  0.0064  0.8728
  172SAPE   H8R19491   2.583   7.446   6.572 -2.5503  2.0948 -1.7761
  172SAPE   C2919492   2.677   7.594   6.691 -0.4021  0.3706  0.3498
  172SAPE   H9R19493   2.604   7.576   6.771 -2.0382 -1.9958 -1.5094
  172SAPE  C21019494   2.776   7.698   6.726  0.6655 -0.3391 -0.2428
  172SAPE  H10R19495   2.725   7.787   6.769  2.1132 -0.3270  1.5800
  172SAPE  H10S19496   2.834   7.728   6.636  2.8794 -0.3843  1.0865
  172SAPE  C21119497   2.873   7.651   6.829  0.0743 -0.1698  0.5301
  172SAPE  H11R19498   2.970   7.624   6.785  0.5360  1.4214  0.4746
  172SAPE  C21219499   2.853   7.644   6.960  0.4214  0.4897 -0.0437
  172SAPE  H12R19500   2.931   7.599   7.023 -0.8838 -0.3787  0.9959
  172SAPE  C21319501   2.718   7.683   7.030 -0.2135 -0.7286  0.1688
  172SAPE  H13R19502   2.667   7.587   7.055 -1.1711  0.0739  1.3500
  172SAPE  H13S19503   2.642   7.732   6.966 -0.7527 -1.8075 -0.0434
  172SAPE  C21419504   2.747   7.771   7.149  0.5828 -0.4772  0.1445
  172SAPE  H14R19505   2.845   7.821   7.140  1.0347 -1.5884 -1.6938
  172SAPE  C21519506   2.663   7.813   7.251 -0.2235  0.3527  1.0588
  172SAPE  H15R19507   2.711   7.878   7.326 -0.1373  1.6177 -0.0445
  172SAPE  C21619508   2.526   7.765   7.277  0.8463  0.1208 -0.2868
  172SAPE  H16R19509   2.490   7.708   7.189  1.7441  0.5764 -0.9666
  172SAPE  H16S19510   2.462   7.854   7.295  0.9452 -0.1535  1.6882
  172SAPE  C21719511   2.524   7.680   7.407 -0.2773 -0.5820 -0.3272
  172SAPE  H17R19512   2.548   7.752   7.488  1.5655 -0.4083 -0.9932
  172SAPE  H17S19513   2.601   7.600   7.411  0.2616 -0.0177  1.8754
  172SAPE  C21819514   2.385   7.629   7.446  0.5356 -0.4681  0.0384
  172SAPE  H18R19515   2.399   7.560   7.532  1.6357 -1.2797 -0.7616
  172SAPE  H18S19516   2.325   7.578   7.368  1.3334 -1.6387  0.1640
  172SAPE  C21919517   2.285   7.738   7.488 -0.0862  0.4134  0.1510
  172SAPE  H19R19518   2.244   7.783   7.395 -0.7537  0.3788  0.4224
  172SAPE  H19S19519   2.339   7.812   7.551 -2.5932  2.7774 -0.2688
  172SAPE  C22019520   2.165   7.681   7.572 -0.3747  1.2928  0.2878
  172SAPE  H20R19521   2.103   7.770   7.598  1.3742  2.0953  1.9866
  172SAPE  H20S19522   2.204   7.631   7.664 -0.1304 -1.1276 -1.0615
  172SAPE  H20T19523   2.118   7.599   7.514  3.7768  0.3611 -2.1323
  172SAPE   C3319524   3.060   6.907   6.510 -0.4171 -0.6601 -0.1052
  172SAPE   H3X19525   3.001   6.972   6.442 -1.7874 -0.1495  1.5077
  172SAPE   H3Y19526   3.160   6.955   6.522 -0.6806 -0.5755  2.1606
  172SAPE   C3419527   2.995   6.914   6.650 -0.0966 -0.6467 -0.0406
  172SAPE   H4X19528   2.916   6.836   6.658 -0.0696 -0.8591 -1.5204
  172SAPE   H4Y19529   2.956   7.015   6.677 -1.6436 -1.2911  0.2587
  172SAPE   C3519530   3.095   6.868   6.764 -0.0724  1.1098 -0.7613
  172SAPE   H5X19531   3.194   6.917   6.759  0.9570 -0.4740  1.8256
  172SAPE   H5Y19532   3.095   6.757   6.751 -0.9641  1.1649 -1.2999
  172SAPE   C3619533   3.044   6.887   6.912 -0.2835 -0.0795 -0.3927
  172SAPE   H6X19534   2.957   6.818   6.922  0.0948 -0.3554  1.4125
  172SAPE   H6Y19535   3.007   6.990   6.926 -0.3312  0.1357 -1.9654
  172SAPE   C3719536   3.137   6.840   7.027  0.1577  0.0833 -0.4134
  172SAPE   H7X19537   3.236   6.889   7.014 -0.3922  0.7475 -2.6346
  172SAPE   H7Y19538   3.155   6.731   7.016  0.2293 -0.0782  1.1547
  172SAPE   C3819539   3.077   6.863   7.171 -0.3080 -0.5042  0.3933
  172SAPE   H8X19540   2.978   6.813   7.182 -0.4856 -0.0260  1.0539
  172SAPE   H8Y19541   3.067   6.973   7.187 -0.0452 -0.3785 -0.2671
  172SAPE   C3919542   3.178   6.815   7.271  0.5447 -0.1725 -0.1409
  172SAPE   H9X19543   3.281   6.851   7.251  1.7111 -2.7423  0.8126
  172SAPE   H9Y19544   3.183   6.705   7.267  0.8678 -0.1693  0.0965
  172SAPE  C31019545   3.147   6.866   7.412  0.1545 -1.1278  0.1311
  172SAPE  H10X19546   3.058   6.808   7.445  0.3026 -0.5188  1.6995
  172SAPE  H10Y19547   3.124   6.974   7.403 -2.2256 -1.3376  2.4545
  172SAPE  C31119548   3.251   6.842   7.526 -0.0193  0.5205 -0.1184
  172SAPE  H11X19549   3.348   6.892   7.508  0.3253  0.1391  0.6438
  172SAPE  H11Y19550   3.277   6.735   7.539  2.1927  1.1212  0.8177
  172SAPE  C31219551   3.205   6.896   7.667  0.6709 -0.7533 -0.1699
  172SAPE  H12X19552   3.113   6.839   7.693  0.2905  0.0298  0.2233
  172SAPE  H12Y19553   3.172   7.001   7.656  0.8414 -0.6338  0.4133
  172SAPE  C31319554   3.319   6.866   7.766  0.2528  0.1018  0.0977
  172SAPE  H13X19555   3.403   6.937   7.756  0.2438  0.0328 -0.5357
  172SAPE  H13Y19556   3.362   6.763   7.765  0.3865  0.1466  0.7157
  172SAPE  C31419557   3.279   6.893   7.913  0.4362  0.2314 -0.1131
  172SAPE  H14X19558   3.189   6.830   7.930  1.5952 -1.6258 -0.5937
  172SAPE  H14Y19559   3.255   6.997   7.946  2.3685  0.9041 -0.6706
  172SAPE  C31519560   3.376   6.842   8.020 -0.0451  0.3659 -0.3762
  172SAPE  H15X19561   3.482   6.870   8.001  0.2448  0.1518  0.8195
  172SAPE  H15Y19562   3.385   6.731   8.010  0.8977  0.5980 -2.5036
  172SAPE  C31619563   3.342   6.882   8.164 -0.2734 -0.9578  0.0586
  172SAPE  H16X19564   3.231   6.878   8.176 -0.2519 -2.3927 -0.0762
  172SAPE  H16Y19565   3.375   6.985   8.187 -0.5827 -0.5919 -1.0978
  172SAPE  C31719566   3.407   6.781   8.260  0.6837  0.5489 -0.1240
  172SAPE  H17X19567   3.516   6.758   8.252  0.6125  0.2490 -0.2231
  172SAPE  H17Y19568   3.360   6.681   8.251 -0.0004  0.8424  0.1532
  172SAPE  C31819569   3.384   6.824   8.410 -0.5862 -0.0888 -0.1590
  172SAPE  H18X19570   3.280   6.861   8.426  0.1866  1.3359  2.1604
  172SAPE  H18Y19571   3.450   6.911   8.429 -0.6567 -0.1880  0.5939
  172SAPE  H18Z19572   3.413   6.738   8.475  0.9834 -0.1319 -0.8746
  173SOPE     N19573   6.813   5.224  10.122 -0.0871  0.4672  0.8123
  173SOPE   HN119574   6.857   5.154  10.185 -2.7825 -1.2750  0.9446
  173SOPE   HN219575   6.711   5.233  10.141 -0.0232  1.0442  0.9041
  173SOPE   HN319576   6.818   5.176  10.030  4.6790  0.3146  0.9172
  173SOPE   C1219577   6.881   5.360  10.106 -0.2734  0.4205  1.0046
  173SOPE  H12A19578   6.989   5.342  10.087 -0.9512 -2.0014 -1.2744
  173SOPE  H12B19579   6.852   5.409  10.201 -1.0595  0.0331  0.9718
  173SOPE   C1119580   6.830   5.440   9.981 -0.8901  0.1436 -0.0157
  173SOPE  H11A19581   6.884   5.391   9.897  1.4295 -1.5499  2.2733
  173SOPE  H11B19582   6.871   5.543   9.975  1.0935 -0.6290 -0.9118
  173SOPE     P19583   6.603   5.561   9.947 -0.4009  0.0539 -0.1509
  173SOPE   O1319584   6.632   5.648  10.065  0.4111 -0.4056 -0.5237
  173SOPE   O1419585   6.462   5.525   9.933  0.3064  0.6400 -0.1464
  173SOPE   O1219586   6.694   5.422   9.965 -0.6558  0.3409  0.2808
  173SOPE   O1119587   6.672   5.631   9.818  0.1224 -0.3172 -0.2526
  173SOPE    C119588   6.665   5.548   9.706 -0.2140  0.2077  0.1264
  173SOPE    HA19589   6.562   5.517   9.682  0.1350 -1.0705  0.1908
  173SOPE    HB19590   6.721   5.455   9.729  0.3533  0.5336  0.1028
  173SOPE    C219591   6.729   5.630   9.586 -0.0824  0.1079  0.1343
  173SOPE    HS19592   6.716   5.556   9.504  1.7455 -2.5168  2.0285
  173SOPE   O2119593   6.867   5.652   9.611  0.6748 -0.4897 -0.3956
  173SOPE   C2119594   6.945   5.555   9.575 -0.7866  0.4116 -0.4241
  173SOPE   O2219595   6.913   5.442   9.540  0.5146 -0.4346  0.2053
  173SOPE   C2219596   7.095   5.596   9.589  0.0297 -0.2649 -0.3134
  173SOPE   H2R19597   7.147   5.514   9.535  1.5923  1.2892 -1.2796
  173SOPE   H2S19598   7.118   5.586   9.697  1.6202  0.3950 -0.5621
  173SOPE    C319599   6.658   5.771   9.554 -0.2404 -0.3887 -0.2317
  173SOPE    HX19600   6.700   5.843   9.627 -1.5919 -0.2074  0.4081
  173SOPE    HY19601   6.551   5.758   9.584 -0.1130  2.4137  1.8225
  173SOPE   O3119602   6.678   5.817   9.419  0.2653 -0.2532  0.6175
  173SOPE   C3119603   6.582   5.775   9.335  0.2510  0.4185  0.1349
  173SOPE   O3219604   6.484   5.701   9.364  0.2499 -0.4712  0.3564
  173SOPE   C3219605   6.611   5.823   9.197 -0.1033 -0.3320  0.0096
  173SOPE   H2X19606   6.715   5.792   9.174  0.1717 -0.3096  1.1643
  173SOPE   H2Y19607   6.598   5.934   9.192  2.5697  0.0143 -1.0393
  173SOPE   C2319608   7.138   5.729   9.513 -0.3409  0.2780 -0.0949
  173SOPE   H3R19609   7.237   5.762   9.551 -1.0576  1.2082  1.0455
  173SOPE   H3S19610   7.064   5.808   9.537 -0.3158  0.0431  0.7996
  173SOPE   C2419611   7.133   5.725   9.360 -0.0550  0.0801 -1.1407
  173SOPE   H4R19612   7.240   5.722   9.330  0.4715  2.2052  0.2812
  173SOPE   H4S19613   7.068   5.643   9.322  0.3733 -1.2823  0.8993
  173SOPE   C2519614   7.082   5.858   9.299 -0.1663 -0.2038  0.1087
  173SOPE   H5R19615   6.978   5.885   9.326  0.6638  1.7582  1.5649
  173SOPE   H5S19616   7.144   5.938   9.344  1.0123 -0.8210 -0.3881
  173SOPE   C2619617   7.104   5.874   9.147  0.2739 -0.2482  0.0086
  173SOPE   H6R19618   7.105   5.981   9.120 -1.2389  1.3772  5.1927
  173SOPE   H6S19619   7.197   5.820   9.118 -1.1570 -1.5149 -2.5671
  173SOPE   C2719620   6.988   5.813   9.061 -0.0800 -0.7464 -0.3597
  173SOPE   H7R19621   6.961   5.717   9.109 -0.7238  0.0386  0.8956
  173SOPE   H7S19622   6.901   5.877   9.088 -0.3330 -1.2189 -0.0449
  173SOPE   C2819623   7.021   5.779   8.917 -0.0259  0.4151  0.1578
  173SOPE   H8R19624   7.104   5.705   8.917  1.3022  1.7881  2.3546
  173SOPE   H8S19625   6.928   5.735   8.875 -1.8120  2.4844  1.6918
  173SOPE   C2919626   7.052   5.901   8.837 -0.1179  0.0404  0.5980
  173SOPE   H9119627   7.115   5.975   8.887  1.7823 -1.4102  0.4788
  173SOPE  C21019628   6.995   5.932   8.720 -0.4007  0.0073 -0.8003
  173SOPE  H10119629   7.039   6.019   8.668  1.7132 -0.9983 -0.8013
  173SOPE  C21119630   6.906   5.848   8.627 -0.6477 -0.3653  0.8158
  173SOPE  H11R19631   6.815   5.910   8.611 -0.5131  0.3206  2.4570
  173SOPE  H11S19632   6.866   5.756   8.674  1.0385 -2.2156 -1.1863
  173SOPE  C21219633   6.968   5.803   8.494 -0.2008  0.5853 -0.1517
  173SOPE  H12R19634   7.019   5.887   8.443  2.7082 -0.8803  0.1604
  173SOPE  H12S19635   6.891   5.772   8.421  1.3687  3.0258 -3.0432
  173SOPE  C21319636   7.073   5.695   8.507 -0.5274  0.1336 -0.1924
  173SOPE  H13R19637   7.041   5.606   8.565 -0.1600 -0.0794 -0.3126
  173SOPE  H13S19638   7.161   5.740   8.557 -1.8937  0.4557  2.0862
  173SOPE  C21419639   7.104   5.634   8.378  0.2746  1.2357  1.2277
  173SOPE  H14R19640   7.138   5.707   8.301 -1.1621 -0.2113 -0.8914
  173SOPE  H14S19641   7.013   5.590   8.330  0.9104 -0.1230  1.2307
  173SOPE  C21519642   7.195   5.510   8.384 -0.5555 -0.6093 -0.2307
  173SOPE  H15R19643   7.156   5.436   8.457 -1.7711 -1.4385 -1.6779
  173SOPE  H15S19644   7.287   5.542   8.439 -1.6556 -0.0916  1.3709
  173SOPE  C21619645   7.232   5.458   8.241  0.6583  0.6857 -0.3173
  173SOPE  H16R19646   7.267   5.547   8.184  0.6732  1.3637  0.7185
  173SOPE  H16S19647   7.134   5.451   8.190  1.9323  2.8616 -3.4106
  173SOPE  C21719648   7.326   5.342   8.247  0.1226  0.4091  0.0782
  173SOPE  H17R19649   7.279   5.252   8.203 -0.6088  0.3244  1.0115
  173SOPE  H17S19650   7.349   5.313   8.351  1.8736  0.4187 -0.2648
  173SOPE  C21819651   7.463   5.380   8.191  0.0315 -0.4749 -0.0611
  173SOPE  H18R19652   7.506   5.476   8.227  0.6652 -0.5440 -0.5988
  173SOPE  H18S19653   7.462   5.398   8.081  2.3103  4.4715  0.4700
  173SOPE  H18T19654   7.531   5.294   8.212 -0.8762 -0.9870  0.8657
  173SOPE   C3319655   6.504   5.774   9.082 -0.3549  0.5478  0.0273
  173SOPE   H3X19656   6.533   5.825   8.988 -0.2253  1.6595  0.6514
  173SOPE   H3Y19657   6.405   5.808   9.117 -1.0666 -1.6425  0.2760
  173SOPE   C3419658   6.513   5.619   9.064  0.2351 -0.6502 -0.3440
  173SOPE   H4X19659   6.538   5.565   9.158 -0.3604 -2.3089 -1.1105
  173SOPE   H4Y19660   6.595   5.586   8.997  0.3111 -1.7095  0.2511
  173SOPE   C3519661   6.385   5.565   9.005  0.2659 -0.1887  0.0130
  173SOPE   H5X19662   6.298   5.580   9.074 -0.1174 -3.5635  0.4246
  173SOPE   H5Y19663   6.400   5.456   8.993  1.2189 -0.0584 -0.0570
  173SOPE   C3619664   6.350   5.619   8.866 -0.5019  0.2265 -0.7913
  173SOPE   H6X19665   6.352   5.730   8.866  0.2732  0.2490  1.0579
  173SOPE   H6Y19666   6.246   5.600   8.830 -2.4147  5.1069  1.2805
  173SOPE   C3719667   6.457   5.576   8.766  0.4936  0.3461 -0.1933
  173SOPE   H7X19668   6.474   5.466   8.776  1.3234  0.3255 -1.5487
  173SOPE   H7Y19669   6.551   5.632   8.788  0.0336  1.1767 -0.3269
  173SOPE   C3819670   6.426   5.604   8.621 -0.6000 -0.2868  0.3564
  173SOPE   H8X19671   6.428   5.715   8.624  1.5951 -0.2935  3.5585
  173SOPE   H8Y19672   6.323   5.567   8.599 -0.3815 -0.3804 -0.5592
  173SOPE   C3919673   6.523   5.548   8.516 -0.0430  0.1509  0.9609
  173SOPE   H9X19674   6.542   5.439   8.520  1.7562  0.3389 -0.9869
  173SOPE   H9Y19675   6.616   5.602   8.543 -0.3593  0.8293  0.7221
  173SOPE  C31019676   6.490   5.583   8.370  0.5764  0.1362 -0.2067
  173SOPE  H10X19677   6.567   5.529   8.310  2.1207  0.0452  1.7818
  173SOPE  H10Y19678   6.504   5.693   8.360 -2.5099  0.6793  0.2786
  173SOPE  C31119679   6.352   5.538   8.322  0.2396  0.3562 -0.0261
  173SOPE  H11X19680   6.273   5.601   8.368  1.1290  2.0637 -0.7530
  173SOPE  H11Y19681   6.343   5.432   8.354  0.8771 -0.0112 -1.0404
  173SOPE  C31219682   6.330   5.552   8.163  0.5282 -0.0328  0.1644
  173SOPE  H12X19683   6.411   5.492   8.118 -0.3035 -0.0696 -1.3705
  173SOPE  H12Y19684   6.337   5.660   8.137 -0.8877 -0.4301 -2.1974
  173SOPE  C31319685   6.185   5.493   8.132  0.3736  0.3195  0.7197
  173SOPE  H13X19686   6.109   5.521   8.207 -1.2446  0.3026 -0.8601
  173SOPE  H13Y19687   6.182   5.382   8.134 -1.3311  0.3519  1.0083
  173SOPE  C31419688   6.111   5.532   8.002  0.3304  0.4243 -0.1673
  173SOPE  H14X19689   6.036   5.456   7.972 -0.3967  0.5899  1.1790
  173SOPE  H14Y19690   6.190   5.542   7.925  0.4786 -2.3417 -0.4708
  173SOPE  C31519691   6.059   5.670   8.009  0.1911  0.3557 -0.2539
  173SOPE  H15X19692   6.124   5.741   8.063 -0.5008 -0.5636  1.9141
  173SOPE  H15Y19693   5.961   5.672   8.063  0.4826  2.1425  0.2662
  173SOPE  C31619694   6.037   5.731   7.872 -0.8294  0.0723  0.3327
  173SOPE  H16X19695   5.939   5.697   7.830 -0.1439 -0.4425 -0.8839
  173SOPE  H16Y19696   6.097   5.693   7.787 -0.1388 -0.0359  0.8636
  173SOPE  C31719697   6.044   5.888   7.869 -0.3600 -0.4082  0.7318
  173SOPE  H17X19698   6.147   5.913   7.903 -0.7676  0.1812  1.5855
  173SOPE  H17Y19699   5.986   5.927   7.956  0.0845  1.2146  0.3364
  173SOPE  C31819700   6.018   5.953   7.737  0.2038  0.5520  0.2609
  173SOPE  H18X19701   6.076   5.899   7.660 -1.7929 -2.8849  0.9723
  173SOPE  H18Y19702   6.063   6.055   7.732  1.0912  0.1515 -0.0307
  173SOPE  H18Z19703   5.911   5.949   7.708  0.7499 -0.1879 -1.8018
  174SOPE     N19704   1.490   6.611  10.216  0.1279  0.1536  0.2368
  174SOPE   HN119705   1.425   6.530  10.213  0.8154 -0.4907  1.4342
  174SOPE   HN219706   1.583   6.567  10.236  0.7685  1.7651  0.9649
  174SOPE   HN319707   1.468   6.665  10.302  1.6167 -1.0909  1.4767
  174SOPE   C1219708   1.494   6.687  10.088  1.2434 -0.1402 -0.4187
  174SOPE  H12A19709   1.400   6.743  10.074  0.8199 -1.4359 -3.8971
  174SOPE  H12B19710   1.515   6.624   9.998 -0.4808  0.7853 -1.5260
  174SOPE   C1119711   1.606   6.792  10.089 -0.3438 -0.1005  0.4782
  174SOPE  H11A19712   1.588   6.848  10.183 -3.7340  0.4372 -0.3467
  174SOPE  H11B19713   1.596   6.874  10.015  1.2282  0.5140  0.9125
  174SOPE     P19714   1.860   6.840  10.093 -0.0101  0.1078 -0.0456
  174SOPE   O1319715   1.973   6.778  10.164  0.1306 -0.3733 -0.6765
  174SOPE   O1419716   1.820   6.972  10.142  0.4449  0.3342 -0.6897
  174SOPE   O1219717   1.738   6.733  10.080  0.0349  0.4526  0.2930
  174SOPE   O1119718   1.897   6.862   9.943 -0.3453  0.4637 -0.1214
  174SOPE    C119719   1.877   6.768   9.833 -0.4063  0.4998  0.2701
  174SOPE    HA19720   1.775   6.725   9.839 -0.7147  1.1972  0.1565
  174SOPE    HB19721   1.952   6.687   9.843  0.6291  1.3941 -0.0666
  174SOPE    C219722   1.878   6.836   9.686  0.0927 -0.2807 -0.3306
  174SOPE    HS19723   1.841   6.753   9.621 -1.8856  1.3825 -1.4606
  174SOPE   O2119724   2.007   6.883   9.650  0.0160  0.2652  0.2795
  174SOPE   C2119725   2.028   6.880   9.521  0.1292 -0.0075 -0.1398
  174SOPE   O2219726   1.943   6.845   9.440  0.4959  0.3762 -0.1361
  174SOPE   C2219727   2.176   6.900   9.493 -0.1479  0.4669 -0.0653
  174SOPE   H2R19728   2.226   6.805   9.521  1.3661  0.6444 -1.9273
  174SOPE   H2S19729   2.218   6.984   9.552  1.4503 -0.8022  0.6436
  174SOPE    C319730   1.771   6.952   9.683 -0.5278 -0.6725 -0.1034
  174SOPE    HX19731   1.811   7.043   9.734 -1.7839 -0.4121  0.4496
  174SOPE    HY19732   1.685   6.923   9.748 -1.1098  2.2842  0.6036
  174SOPE   O3119733   1.730   6.992   9.554  0.3449 -0.4409  0.1167
  174SOPE   C3119734   1.649   6.910   9.486 -0.5370 -0.5437 -0.4535
  174SOPE   O3219735   1.606   6.803   9.519 -0.3174 -0.5446 -0.0903
  174SOPE   C3219736   1.612   6.984   9.356 -0.1617  0.5552  0.9489
  174SOPE   H2X19737   1.689   6.949   9.284 -0.3830 -0.3438  1.1454
  174SOPE   H2Y19738   1.607   7.092   9.384  0.9598  0.4642  1.5442
  174SOPE   C2319739   2.200   6.924   9.348  0.2313  0.3583 -0.2179
  174SOPE   H3R19740   2.174   7.023   9.306 -1.4446  0.6112  1.2982
  174SOPE   H3S19741   2.143   6.851   9.287  1.0055  1.7396 -2.7288
  174SOPE   C2419742   2.346   6.908   9.305  0.2281  0.3294 -0.1980
  174SOPE   H4R19743   2.389   6.813   9.344 -0.9520  0.3621  1.2493
  174SOPE   H4S19744   2.361   6.914   9.195  3.1476 -0.3800  0.0700
  174SOPE   C2519745   2.432   7.027   9.359  0.3492 -1.0592 -0.0726
  174SOPE   H5R19746   2.371   7.119   9.348  1.4583 -0.4502 -1.3580
  174SOPE   H5S19747   2.447   7.006   9.467  0.0568  0.1699  0.2179
  174SOPE   C2619748   2.569   7.024   9.295  0.4303  0.4857 -0.4994
  174SOPE   H6R19749   2.634   7.078   9.367 -1.9322 -0.1313  2.2692
  174SOPE   H6S19750   2.602   6.918   9.289 -2.1876 -0.4716  0.5060
  174SOPE   C2719751   2.581   7.102   9.160  0.2726 -0.1002 -0.5176
  174SOPE   H7R19752   2.485   7.086   9.107 -1.5268 -1.0270  2.7217
  174SOPE   H7S19753   2.592   7.210   9.186 -0.3680 -0.1119 -0.1847
  174SOPE   C2819754   2.705   7.056   9.081 -0.4089 -0.5741  0.3895
  174SOPE   H8R19755   2.800   7.059   9.139 -0.1571 -1.3428  0.0272
  174SOPE   H8S19756   2.710   6.948   9.054  3.1405  0.2022 -3.0921
  174SOPE   C2919757   2.704   7.138   8.953  0.4444  0.8329  0.1392
  174SOPE   H9119758   2.741   7.241   8.961  0.2228  0.8591  0.9131
  174SOPE  C21019759   2.653   7.088   8.832 -0.4063 -0.3641  0.4362
  174SOPE  H10119760   2.664   7.149   8.741  1.6122 -0.6043  0.4704
  174SOPE  C21119761   2.594   6.954   8.800 -0.0032  0.3692  0.5063
  174SOPE  H11R19762   2.605   6.879   8.882 -0.6174  0.4829  0.6985
  174SOPE  H11S19763   2.651   6.903   8.720  2.6295  0.5093  2.1535
  174SOPE  C21219764   2.437   6.943   8.772  0.3798 -0.2996  0.4834
  174SOPE  H12R19765   2.392   6.994   8.860 -1.5909 -0.0244 -0.6318
  174SOPE  H12S19766   2.407   6.837   8.788  0.4874 -0.2347  1.1425
  174SOPE  C21319767   2.380   7.015   8.653 -0.3308  0.3271  0.4580
  174SOPE  H13R19768   2.386   7.125   8.669 -0.9466  0.3900  0.2948
  174SOPE  H13S19769   2.274   6.985   8.637  0.2352 -0.2729 -3.0298
  174SOPE  C21419770   2.460   6.993   8.520 -0.0612 -0.2258 -0.2148
  174SOPE  H14R19771   2.480   6.883   8.517 -0.2666 -0.2868  0.5457
  174SOPE  H14S19772   2.561   7.037   8.529  1.8081 -3.7783 -1.5115
  174SOPE  C21519773   2.391   7.042   8.396  0.4658  0.6532  0.9996
  174SOPE  H15R19774   2.365   7.150   8.402  0.4230  0.7542 -0.5994
  174SOPE  H15S19775   2.296   6.992   8.371  0.7574  0.2142  0.7573
  174SOPE  C21619776   2.485   7.032   8.275 -0.7014 -0.0483 -0.4917
  174SOPE  H16R19777   2.533   6.932   8.263 -1.1765 -0.5475  1.5213
  174SOPE  H16S19778   2.571   7.091   8.313 -0.3688 -0.8469  0.0252
  174SOPE  C21719779   2.444   7.080   8.141  0.6653  0.4956  0.0409
  174SOPE  H17R19780   2.523   7.131   8.083 -2.1377  3.5963 -1.3483
  174SOPE  H17S19781   2.369   7.161   8.148  1.0616  0.8055  0.9476
  174SOPE  C21819782   2.386   6.966   8.054 -0.2235  0.1423 -0.0388
  174SOPE  H18R19783   2.453   6.883   8.022  0.6017  0.8826 -0.2830
  174SOPE  H18S19784   2.325   7.016   7.976 -0.1963 -0.8771 -0.7219
  174SOPE  H18T19785   2.314   6.909   8.116 -0.6087 -1.6627 -2.0333
  174SOPE   C3319786   1.462   6.961   9.302 -0.0073  0.2900  0.1722
  174SOPE   H3X19787   1.388   6.973   9.384  0.4408  0.1271  0.6072
  174SOPE   H3Y19788   1.450   6.852   9.281 -0.3824 -0.3537  3.2749
  174SOPE   C3419789   1.413   7.047   9.180  0.1466  0.0665  0.2597
  174SOPE   H4X19790   1.391   7.153   9.208 -1.0827  0.7093 -2.7335
  174SOPE   H4Y19791   1.315   7.001   9.157 -0.6567  1.3372  1.0051
  174SOPE   C3519792   1.507   7.020   9.048 -0.2993 -0.4049 -0.5240
  174SOPE   H5X19793   1.492   6.913   9.021  1.9334 -0.9562  0.1989
  174SOPE   H5Y19794   1.614   7.040   9.070 -0.4566 -0.3897  0.2634
  174SOPE   C3619795   1.474   7.110   8.924  0.6992 -0.3738 -0.3567
  174SOPE   H6X19796   1.482   7.211   8.968 -0.8698 -0.2735 -0.2384
  174SOPE   H6Y19797   1.369   7.088   8.896 -0.4251  1.7184  1.8311
  174SOPE   C3719798   1.579   7.108   8.811 -0.2427  0.0976 -0.2128
  174SOPE   H7X19799   1.678   7.114   8.860 -0.2119 -1.3016 -0.0517
  174SOPE   H7Y19800   1.574   7.201   8.750 -0.7955  1.7000  2.1523
  174SOPE   C3819801   1.581   6.982   8.717 -0.7706 -0.1826 -0.1505
  174SOPE   H8X19802   1.487   6.972   8.658  0.7757  0.2433 -2.8417
  174SOPE   H8Y19803   1.590   6.893   8.782 -1.3447 -0.0054  0.1831
  174SOPE   C3919804   1.712   6.986   8.625  0.7214 -0.4374 -0.7045
  174SOPE   H9X19805   1.788   6.980   8.706  0.1401  0.2565 -0.0919
  174SOPE   H9Y19806   1.732   7.080   8.569  1.5918 -1.5425 -2.3385
  174SOPE  C31019807   1.731   6.871   8.530  0.8612  0.9369  0.5434
  174SOPE  H10X19808   1.634   6.842   8.483  0.2233  5.3896 -1.4077
  174SOPE  H10Y19809   1.763   6.793   8.602  1.0467  0.2653 -0.2442
  174SOPE  C31119810   1.828   6.896   8.419 -0.5166 -0.1709 -0.3846
  174SOPE  H11X19811   1.926   6.935   8.454 -0.6807  0.1503 -0.2685
  174SOPE  H11Y19812   1.789   6.964   8.340  0.3055  1.7290  0.7669
  174SOPE  C31219813   1.852   6.759   8.346 -0.2939 -0.6605 -0.4408
  174SOPE  H12X19814   1.760   6.733   8.288  0.6387 -1.0469 -1.8005
  174SOPE  H12Y19815   1.891   6.685   8.420  0.4849  0.1408 -0.0374
  174SOPE  C31319816   1.967   6.780   8.245  0.1739 -0.4887  0.2923
  174SOPE  H13X19817   2.053   6.831   8.292  1.3222 -0.5525 -1.6151
  174SOPE  H13Y19818   1.941   6.851   8.162  0.7872  2.0260  2.1314
  174SOPE  C31419819   2.002   6.651   8.180  0.2296  0.7914  0.0485
  174SOPE  H14X19820   1.954   6.651   8.080 -0.6395  1.8210  0.4497
  174SOPE  H14Y19821   1.960   6.569   8.243  0.1218 -0.2219 -1.2871
  174SOPE  C31519822   2.157   6.630   8.165  0.6174  0.0897  0.0211
  174SOPE  H15X19823   2.195   6.629   8.269  2.3493  1.6746 -0.5493
  174SOPE  H15Y19824   2.195   6.714   8.103  3.7113 -0.0864  1.4873
  174SOPE  C31619825   2.197   6.491   8.099  0.2439  0.8780  0.2941
  174SOPE  H16X19826   2.132   6.475   8.010 -0.2369  0.2675  0.7544
  174SOPE  H16Y19827   2.180   6.412   8.175 -0.4016  0.0681 -0.6689
  174SOPE  C31719828   2.352   6.492   8.072  0.6370 -0.2786 -0.1868
  174SOPE  H17X19829   2.403   6.496   8.170 -0.2702 -1.7099  0.3716
  174SOPE  H17Y19830   2.369   6.580   8.006 -1.6731  1.0638  0.8818
  174SOPE  C31819831   2.397   6.370   7.994  0.8780  0.5275  0.0070
  174SOPE  H18X19832   2.359   6.276   8.041  0.1737  0.4751 -0.6448
  174SOPE  H18Y19833   2.508   6.365   7.996  0.8829 -1.2658  3.5843
  174SOPE  H18Z19834   2.356   6.380   7.891 -1.7001 -0.9582  0.7970
  175SOPE     N19835   1.301   3.803  11.023  0.2162 -0.3762 -0.9919
  175SOPE   HN119836   1.383   3.777  10.964  1.1376 -0.0361  0.0988
  175SOPE   HN219837   1.220   3.849  10.977  1.1321  1.2994 -0.9954
  175SOPE   HN319838   1.340   3.857  11.103  0.2535 -0.1616 -1.1570
  175SOPE   C1219839   1.254   3.672  11.084 -0.1424  0.7398 -0.2695
  175SOPE  H12A19840   1.179   3.689  11.164 -0.9435 -1.0873 -0.5678
  175SOPE  H12B19841   1.334   3.613  11.133 -1.0426 -0.2859  0.0198
  175SOPE   C1119842   1.187   3.581  10.978 -0.0544 -0.2076 -0.3183
  175SOPE  H11A19843   1.092   3.625  10.940  0.7910  1.2766 -0.7589
  175SOPE  H11B19844   1.168   3.484  11.030  0.1452 -0.1263 -0.0933
  175SOPE     P19845   1.345   3.441  10.810  0.0837 -0.1512  0.0600
  175SOPE   O1319846   1.249   3.334  10.824 -0.5152 -0.2859  0.2818
  175SOPE   O1419847   1.485   3.424  10.860 -0.6962 -0.2059  0.6681
  175SOPE   O1219848   1.286   3.568  10.875 -0.0243 -0.2272  0.4448
  175SOPE   O1119849   1.346   3.476  10.649 -0.3737  0.4396 -0.1500
  175SOPE    C119850   1.249   3.417  10.564 -0.9942 -0.2410 -0.3266
  175SOPE    HA19851   1.153   3.398  10.615 -0.7321 -0.1362  0.2112
  175SOPE    HB19852   1.286   3.317  10.533  1.9367  0.8712 -0.7775
  175SOPE    C219853   1.219   3.496  10.433 -0.2902  0.1285  0.1656
  175SOPE    HS19854   1.141   3.446  10.371  2.2336 -2.4243 -1.1945
  175SOPE   O2119855   1.324   3.524  10.348  0.1282  0.5920 -0.7957
  175SOPE   C2119856   1.370   3.417  10.279  0.3828 -0.0095 -0.5839
  175SOPE   O2219857   1.321   3.305  10.278  0.1936  0.1736 -0.7111
  175SOPE   C2219858   1.497   3.459  10.203  0.4073 -0.1584  0.4396
  175SOPE   H2R19859   1.583   3.411  10.254  1.2129  2.1472  1.3946
  175SOPE   H2S19860   1.515   3.569  10.208 -0.6605  0.2074 -2.0293
  175SOPE    C319861   1.145   3.626  10.481  0.7007  1.0817  0.7109
  175SOPE    HX19862   1.215   3.696  10.532  0.0280 -0.3657  3.8578
  175SOPE    HY19863   1.065   3.596  10.551  0.1784  0.6836 -0.0449
  175SOPE   O3119864   1.061   3.669  10.369  0.1188 -0.5895  0.0375
  175SOPE   C3119865   1.110   3.777  10.304  0.8618  0.3594  0.7843
  175SOPE   O3219866   1.198   3.851  10.345  0.2270 -0.4545 -0.0615
  175SOPE   C3219867   1.059   3.769  10.157  0.4248 -0.1116  0.1745
  175SOPE   H2X19868   0.948   3.774  10.158  0.4551  2.8885 -1.0970
  175SOPE   H2Y19869   1.093   3.671  10.118  1.4008 -0.2913  1.4292
  175SOPE   C2319870   1.495   3.425  10.046 -0.1620 -0.2347  0.4135
  175SOPE   H3R19871   1.472   3.317  10.033  0.0694 -0.1260 -1.1885
  175SOPE   H3S19872   1.595   3.454  10.006  0.3284  0.7375  2.2601
  175SOPE   C2419873   1.381   3.491   9.969 -0.4475 -0.1659  0.4379
  175SOPE   H4R19874   1.284   3.461  10.013  0.1062 -2.7585  0.0539
  175SOPE   H4S19875   1.390   3.601   9.977  0.4954 -0.3434  2.2551
  175SOPE   C2519876   1.392   3.447   9.819  0.0087  0.0002  0.5427
  175SOPE   H5R19877   1.399   3.543   9.764  1.5232  1.4411  3.0568
  175SOPE   H5S19878   1.484   3.387   9.802 -0.4670 -0.8028  0.7492
  175SOPE   C2619879   1.269   3.367   9.778 -0.1702  0.1055  0.2469
  175SOPE   H6R19880   1.254   3.271   9.832  0.6137  0.9922  2.1016
  175SOPE   H6S19881   1.183   3.435   9.794  1.2963  2.6441 -1.8906
  175SOPE   C2719882   1.279   3.323   9.628 -0.0979  0.5167  0.4780
  175SOPE   H7R19883   1.182   3.281   9.593 -0.1715 -0.0856  1.3751
  175SOPE   H7S19884   1.318   3.414   9.577  2.3849 -0.5887  0.2359
  175SOPE   C2819885   1.375   3.219   9.596 -0.1839 -0.5367  0.1303
  175SOPE   H8R19886   1.479   3.250   9.620 -0.2530 -0.8734  0.9003
  175SOPE   H8S19887   1.361   3.133   9.665 -2.6695 -0.5690 -0.3259
  175SOPE   C2919888   1.370   3.172   9.453  0.0875  0.7946  1.0090
  175SOPE   H9119889   1.313   3.079   9.438  1.2385  0.1660  0.4003
  175SOPE  C21019890   1.438   3.234   9.355  0.1377 -0.5663  0.1455
  175SOPE  H10119891   1.426   3.186   9.257 -0.8202  0.5905 -0.3342
  175SOPE  C21119892   1.520   3.357   9.372  0.4310 -0.0485  0.6470
  175SOPE  H11R19893   1.492   3.427   9.454  1.5548  0.9385  0.2175
  175SOPE  H11S19894   1.497   3.426   9.288  0.8697  0.2824  0.7927
  175SOPE  C21219895   1.674   3.333   9.378 -0.0471 -0.7324  0.7317
  175SOPE  H12R19896   1.709   3.241   9.328 -1.3437 -0.7507 -0.1758
  175SOPE  H12S19897   1.698   3.312   9.485 -0.3921  0.7184  1.1257
  175SOPE  C21319898   1.751   3.458   9.326 -0.2839  0.5106  0.0637
  175SOPE  H13R19899   1.858   3.438   9.348 -0.4286  1.0223  1.3046
  175SOPE  H13S19900   1.728   3.551   9.380 -0.9881  0.0428  0.5806
  175SOPE  C21419901   1.756   3.494   9.172 -0.4547 -0.2452 -0.2550
  175SOPE  H14R19902   1.844   3.561   9.172 -0.2733 -0.4269  1.5580
  175SOPE  H14S19903   1.664   3.551   9.151 -1.2686 -0.2392  2.7563
  175SOPE  C21519904   1.779   3.379   9.074  0.0551 -0.3811 -0.6395
  175SOPE  H15R19905   1.694   3.308   9.066  1.2984 -2.5250  2.7211
  175SOPE  H15S19906   1.856   3.317   9.125  0.7928 -0.2109 -1.5139
  175SOPE  C21619907   1.851   3.429   8.949 -0.7177  0.1288  0.2723
  175SOPE  H16R19908   1.899   3.356   8.880  1.2797  2.1445 -0.5602
  175SOPE  H16S19909   1.938   3.491   8.979 -0.2765  0.1821 -1.0799
  175SOPE  C21719910   1.759   3.517   8.860 -0.4099  0.6410 -0.8805
  175SOPE  H17R19911   1.694   3.583   8.922 -0.2127  0.6627 -0.6939
  175SOPE  H17S19912   1.677   3.469   8.804 -0.7654  0.0933  0.0866
  175SOPE  C21819913   1.837   3.592   8.757  0.4892 -0.3367 -0.4453
  175SOPE  H18R19914   1.884   3.518   8.690  0.2486 -1.4532  0.5725
  175SOPE  H18S19915   1.918   3.656   8.797 -0.9092  1.3177 -0.1556
  175SOPE  H18T19916   1.768   3.653   8.695 -2.9888  2.7489  5.5354
  175SOPE   C3319917   1.126   3.885  10.069  0.7446  0.2632  0.4874
  175SOPE   H3X19918   1.235   3.865  10.069  0.7090  0.0512  1.2762
  175SOPE   H3Y19919   1.108   3.982  10.120  0.0409  1.4011 -1.7741
  175SOPE   C3419920   1.073   3.885   9.923 -0.1649  0.0374  0.9071
  175SOPE   H4X19921   1.105   3.984   9.884 -1.2829 -0.2737 -0.9448
  175SOPE   H4Y19922   0.962   3.886   9.932 -0.2715 -2.2237  0.5577
  175SOPE   C3519923   1.132   3.769   9.837  0.1107  0.1699  0.2398
  175SOPE   H5X19924   1.106   3.665   9.866 -1.0514  0.0322 -1.1685
  175SOPE   H5Y19925   1.242   3.782   9.838  0.1818 -0.4078  0.2846
  175SOPE   C3619926   1.083   3.777   9.690 -0.3888 -0.6062 -1.1622
  175SOPE   H6X19927   1.137   3.863   9.646  2.4823 -0.0586  2.8438
  175SOPE   H6Y19928   0.976   3.807   9.692 -0.3493 -0.1681 -3.3510
  175SOPE   C3719929   1.099   3.648   9.611  0.2662  0.2770  0.7113
  175SOPE   H7X19930   1.023   3.572   9.637 -0.2266  0.2146 -0.8573
  175SOPE   H7Y19931   1.198   3.603   9.634 -0.3027 -1.6652 -0.4420
  175SOPE   C3819932   1.094   3.669   9.456 -0.7346  0.8730  0.4405
  175SOPE   H8X19933   1.164   3.754   9.440 -0.6455  0.4782 -1.5961
  175SOPE   H8Y19934   0.990   3.697   9.429 -1.5481 -0.5754  1.9344
  175SOPE   C3919935   1.147   3.545   9.379 -0.0346 -0.1483  0.7130
  175SOPE   H9X19936   1.095   3.452   9.410  1.9093 -0.9102  1.8713
  175SOPE   H9Y19937   1.256   3.528   9.390  0.1717 -2.0639 -3.0187
  175SOPE  C31019938   1.136   3.556   9.221 -0.2742 -0.2101  0.3266
  175SOPE  H10X19939   1.168   3.659   9.194 -0.4380 -0.4609 -0.8851
  175SOPE  H10Y19940   1.029   3.550   9.193  0.1060 -1.8712 -0.9903
  175SOPE  C31119941   1.216   3.443   9.152 -0.7723  0.1180  0.4767
  175SOPE  H11X19942   1.163   3.351   9.186 -0.7226  0.3148  1.0938
  175SOPE  H11Y19943   1.319   3.435   9.193  0.1949  0.0842 -1.8088
  175SOPE  C31219944   1.230   3.443   8.994 -1.5025 -0.5296 -0.5248
  175SOPE  H12X19945   1.262   3.545   8.965 -0.5564 -0.1336  1.7125
  175SOPE  H12Y19946   1.140   3.410   8.939 -0.3037 -0.6359 -2.4982
  175SOPE  C31319947   1.336   3.333   8.944  0.0461 -0.0776 -1.0513
  175SOPE  H13X19948   1.319   3.233   8.989  0.6672 -0.0153 -0.6578
  175SOPE  H13Y19949   1.440   3.356   8.977 -0.1435 -1.7192  0.8768
  175SOPE  C31419950   1.346   3.336   8.787 -0.1621  0.7765  0.1320
  175SOPE  H14X19951   1.366   3.444   8.772 -0.8628  0.7060 -1.4939
  175SOPE  H14Y19952   1.243   3.321   8.748  0.7310 -0.4672 -1.9565
  175SOPE  C31519953   1.448   3.246   8.728  0.5073  0.0167 -0.2107
  175SOPE  H15X19954   1.423   3.149   8.777 -0.6834  0.6275  0.4318
  175SOPE  H15Y19955   1.550   3.283   8.750  0.6342 -0.4670  0.0274
  175SOPE  C31619956   1.425   3.220   8.580  0.3897 -0.2058  0.2066
  175SOPE  H16X19957   1.420   3.313   8.520 -0.4406  0.1880  0.8649
  175SOPE  H16Y19958   1.324   3.173   8.581  0.9035 -1.4446  2.6251
  175SOPE  C31719959   1.530   3.125   8.512 -0.3403  0.0854 -0.7440
  175SOPE  H17X19960   1.525   3.026   8.562 -1.7108  1.0424  1.1626
  175SOPE  H17Y19961   1.637   3.154   8.525 -0.5078  0.1852  0.5096
  175SOPE  C31819962   1.500   3.100   8.370  0.1928  0.2875 -0.2927
  175SOPE  H18X19963   1.395   3.068   8.350  0.2949  1.5717 -3.5986
  175SOPE  H18Y19964   1.564   3.015   8.341  1.8423 -0.5004  4.7615
  175SOPE  H18Z19965   1.508   3.182   8.296 -1.8985  0.2326 -0.6527
  176SOPE     N19966   0.433   3.214  10.204 -0.5442 -0.6446  0.0709
  176SOPE   HN119967   0.477   3.264  10.124  2.0391 -2.4646  0.2397
  176SOPE   HN219968   0.474   3.119  10.208  0.1081 -0.3638  0.2097
  176SOPE   HN319969   0.330   3.210  10.189 -0.8746  0.4383  1.6780
  176SOPE   C1219970   0.462   3.289  10.333 -0.5545  0.1761 -0.6013
  176SOPE  H12A19971   0.430   3.220  10.414  1.7686 -0.2160  0.0681
  176SOPE  H12B19972   0.403   3.383  10.334  1.1968  1.7126  5.5724
  176SOPE   C1119973   0.612   3.323  10.357  0.9998 -0.5412 -0.5510
  176SOPE  H11A19974   0.660   3.229  10.392  2.0422  0.4259  0.6958
  176SOPE  H11B19975   0.610   3.394  10.442 -1.5814 -0.0541 -0.9432
  176SOPE     P19976   0.807   3.466  10.253 -0.2580  0.0717  0.2924
  176SOPE   O1319977   0.909   3.406  10.342 -0.6666  0.0803 -0.1009
  176SOPE   O1419978   0.755   3.601  10.287  0.0126 -0.2500 -0.5205
  176SOPE   O1219979   0.679   3.368  10.239  0.3665  0.0509  0.5636
  176SOPE   O1119980   0.870   3.463  10.110  0.6447 -0.6861  0.5501
  176SOPE    C119981   0.966   3.376  10.053 -0.2980  0.8820  0.7844
  176SOPE    HA19982   1.062   3.404  10.100  1.3280 -0.0237 -1.8221
  176SOPE    HB19983   0.982   3.382   9.944  3.3821 -4.3760  0.6623
  176SOPE    C219984   0.944   3.223  10.077  0.8520  0.0731  0.6278
  176SOPE    HS19985   0.924   3.203  10.184 -1.3266  0.2582  0.3043
  176SOPE   O2119986   1.051   3.147  10.021  0.3606  0.0765 -0.5663
  176SOPE   C2119987   1.079   3.027  10.071  0.3083 -0.1449 -0.8729
  176SOPE   O2219988   1.014   2.965  10.151 -0.5943 -0.4506  0.4737
  176SOPE   C2219989   1.218   2.985  10.024  0.1031 -0.7851  0.1025
  176SOPE   H2R19990   1.240   2.888  10.072 -1.5432 -1.6654 -0.8250
  176SOPE   H2S19991   1.287   3.066  10.055  1.1062 -1.8846  0.8032
  176SOPE    C319992   0.812   3.192   9.994 -0.2420 -0.0108  0.3304
  176SOPE    HX19993   0.726   3.256  10.022  1.5669  2.9224 -0.4274
  176SOPE    HY19994   0.776   3.091  10.025 -1.0969  0.6971  1.7085
  176SOPE   O3119995   0.830   3.204   9.853  0.2297  0.4335  0.1733
  176SOPE   C3119996   0.840   3.088   9.785 -0.1572  0.0660 -0.2527
  176SOPE   O3219997   0.806   2.982   9.822  0.1194 -0.2227 -0.3310
  176SOPE   C3219998   0.903   3.124   9.652  0.0542 -0.6321  0.5117
  176SOPE   H2X19999   1.012   3.105   9.664  0.6285  2.4073  0.9082
  176SOPE   H2Y20000   0.903   3.233   9.634  0.1435 -0.6816  0.2033
  176SOPE   C2320001   1.215   2.972   9.867 -0.0968  0.1967  0.3931
  176SOPE   H3R20002   1.320   2.978   9.831 -0.1306 -0.4719  0.1636
  176SOPE   H3S20003   1.167   3.061   9.821  1.5045 -0.3843 -2.6636
  176SOPE   C2420004   1.156   2.833   9.828  0.0508  0.1938  0.5694
  176SOPE   H4R20005   1.214   2.751   9.875  0.3120  0.9313  1.5672
  176SOPE   H4S20006   1.056   2.825   9.877 -0.0530  0.5473  0.4131
  176SOPE   C2520007   1.158   2.810   9.680  0.2812  0.2388  0.2140
  176SOPE   H5R20008   1.111   2.711   9.660  0.2976  0.5556 -1.5119
  176SOPE   H5S20009   1.102   2.888   9.625 -0.6665 -0.4281  0.1990
  176SOPE   C2620010   1.308   2.790   9.623 -0.0934 -0.6822 -0.4798
  176SOPE   H6R20011   1.365   2.885   9.613 -0.8657 -0.0935  0.6108
  176SOPE   H6S20012   1.357   2.733   9.705 -1.4364  0.9641  1.5456
  176SOPE   C2720013   1.313   2.707   9.493  0.3070 -0.0475  0.2148
  176SOPE   H7R20014   1.252   2.761   9.418  0.9320  0.0773 -0.2114
  176SOPE   H7S20015   1.410   2.700   9.441  0.1347  2.0945 -0.5258
  176SOPE   C2820016   1.264   2.563   9.509  0.0554  1.0061  0.1256
  176SOPE   H8R20017   1.321   2.516   9.592  0.0475  0.0827 -0.3765
  176SOPE   H8S20018   1.159   2.565   9.545 -0.2509 -0.9487 -0.5616
  176SOPE   C2920019   1.282   2.484   9.384 -1.0206  0.2801  0.1407
  176SOPE   H9120020   1.387   2.480   9.352 -1.2658 -0.8692 -0.5592
  176SOPE  C21020021   1.190   2.414   9.314  0.0152 -0.1889 -0.3077
  176SOPE  H10120022   1.238   2.350   9.238 -2.1528 -1.8967 -0.3743
  176SOPE  C21120023   1.043   2.395   9.336  0.3326  0.1588  0.0479
  176SOPE  H11R20024   0.995   2.423   9.432 -1.6221 -0.1259 -0.7942
  176SOPE  H11S20025   1.029   2.285   9.333  2.6687 -0.1761 -0.1764
  176SOPE  C21220026   0.929   2.447   9.239 -0.2462  0.0530  0.0110
  176SOPE  H12R20027   0.954   2.549   9.205  0.8621  0.6373  2.3697
  176SOPE  H12S20028   0.830   2.450   9.289 -0.2710  0.1991 -0.0497
  176SOPE  C21320029   0.912   2.365   9.104 -0.1888  0.6415 -0.7496
  176SOPE  H13R20030   0.856   2.271   9.125  0.6933 -0.1109 -1.6206
  176SOPE  H13S20031   1.010   2.320   9.076 -0.8033 -1.0056 -0.4059
  176SOPE  C21420032   0.859   2.447   8.993 -0.1290  0.8441  0.2908
  176SOPE  H14R20033   0.937   2.523   8.971  0.1345  0.9680  1.5766
  176SOPE  H14S20034   0.761   2.494   9.017 -1.0774 -0.9318  0.0511
  176SOPE  C21520035   0.837   2.353   8.866  0.2038 -0.6197  0.0437
  176SOPE  H15R20036   0.757   2.280   8.891  0.1830 -0.8744 -0.7312
  176SOPE  H15S20037   0.929   2.295   8.841 -0.8212 -2.0377 -0.5986
  176SOPE  C21620038   0.804   2.439   8.740 -0.2739  0.3384  0.1399
  176SOPE  H16R20039   0.873   2.524   8.727 -1.0060  0.6637 -2.0509
  176SOPE  H16S20040   0.699   2.475   8.739 -0.6515 -0.6982 -1.6923
  176SOPE  C21720041   0.825   2.379   8.599 -0.2079 -0.9216 -0.4120
  176SOPE  H17R20042   0.782   2.446   8.522  1.3938 -0.0266 -0.5529
  176SOPE  H17S20043   0.767   2.285   8.587  0.2391 -1.2865  0.2366
  176SOPE  C21820044   0.968   2.337   8.566  0.1439 -0.8414 -0.5477
  176SOPE  H18R20045   0.997   2.258   8.638 -0.4784 -0.5292  0.0597
  176SOPE  H18S20046   1.025   2.429   8.593 -0.7519 -0.1314 -1.0141
  176SOPE  H18T20047   0.979   2.313   8.458  0.9752  0.1016 -0.6952
  176SOPE   C3320048   0.867   3.051   9.524 -0.9663  1.0000  0.5104
  176SOPE   H3X20049   0.763   3.070   9.488 -1.7083 -0.4954  1.7422
  176SOPE   H3Y20050   0.872   2.941   9.535 -0.2870  0.6534 -2.5913
  176SOPE   C3420051   0.971   3.081   9.420 -0.4369  0.0498 -0.6457
  176SOPE   H4X20052   1.061   3.020   9.445 -1.3523 -1.6676 -1.3177
  176SOPE   H4Y20053   1.001   3.186   9.403 -3.5142  1.5253  2.0828
  176SOPE   C3520054   0.928   3.019   9.284  0.1623  0.0391  0.0827
  176SOPE   H5X20055   0.836   3.072   9.251 -0.3826 -0.6732  0.4236
  176SOPE   H5Y20056   0.909   2.910   9.295  2.3550 -0.5719 -1.4795
  176SOPE   C3620057   1.036   3.039   9.176 -0.4720  0.1614  0.3885
  176SOPE   H6X20058   1.134   3.002   9.212 -0.4130  2.1806  2.5564
  176SOPE   H6Y20059   1.033   3.147   9.152 -2.1759  0.8325  3.1160
  176SOPE   C3720060   1.006   2.957   9.053  1.0030 -0.5600 -0.0431
  176SOPE   H7X20061   0.912   2.999   9.011 -0.6925 -2.0927  1.9442
  176SOPE   H7Y20062   0.991   2.848   9.070 -2.5230 -0.4386 -1.4361
  176SOPE   C3820063   1.113   2.972   8.951 -0.1313  0.1194 -0.2227
  176SOPE   H8X20064   1.200   2.924   9.001 -2.6268 -1.8312  2.6781
  176SOPE   H8Y20065   1.138   3.080   8.947  1.0102 -0.1714 -1.6817
  176SOPE   C3920066   1.090   2.910   8.809 -0.2532 -0.5113  0.5624
  176SOPE   H9X20067   1.004   2.957   8.757  0.3233 -0.4286 -0.3311
  176SOPE   H9Y20068   1.062   2.803   8.820 -0.0927 -0.7860 -1.3222
  176SOPE  C31020069   1.219   2.914   8.722  0.0661  0.3657 -0.4609
  176SOPE  H10X20070   1.304   2.912   8.793 -1.0836  0.5011  0.9688
  176SOPE  H10Y20071   1.233   3.014   8.677 -1.7595  2.3800  3.0288
  176SOPE  C31120072   1.231   2.801   8.616 -0.5733 -0.1403 -0.0269
  176SOPE  H11X20073   1.224   2.698   8.657  0.7042 -0.7259 -1.1972
  176SOPE  H11Y20074   1.337   2.802   8.584 -0.1480  0.8850  1.2992
  176SOPE  C31220075   1.138   2.820   8.499 -0.3049  0.7945  0.0451
  176SOPE  H12X20076   1.148   2.924   8.464  0.3005 -0.1966 -3.0618
  176SOPE  H12Y20077   1.034   2.798   8.532  0.4878 -3.4851  0.3031
  176SOPE  C31320078   1.162   2.740   8.367 -0.4074  0.3593  0.5867
  176SOPE  H13X20079   1.080   2.758   8.295 -0.1467 -1.1804 -0.1430
  176SOPE  H13Y20080   1.168   2.630   8.381 -0.1847  0.4856  1.5735
  176SOPE  C31420081   1.294   2.776   8.308  0.2479 -0.4168  0.6848
  176SOPE  H14X20082   1.365   2.727   8.378  0.3810  1.4380  1.8870
  176SOPE  H14Y20083   1.304   2.886   8.317 -0.2560 -0.3556  0.4946
  176SOPE  C31520084   1.303   2.735   8.159  0.7959 -0.0978  0.0840
  176SOPE  H15X20085   1.253   2.637   8.141  2.3208 -0.7196 -0.9935
  176SOPE  H15Y20086   1.408   2.758   8.131 -0.1244  2.5168 -1.4961
  176SOPE  C31620087   1.239   2.833   8.061 -0.1790  0.3334 -0.2384
  176SOPE  H16X20088   1.282   2.935   8.053 -0.6552  0.4170 -2.2333
  176SOPE  H16Y20089   1.133   2.844   8.092 -0.4085  0.2341 -0.9706
  176SOPE  C31720090   1.221   2.775   7.920  0.3812  0.5432  0.0234
  176SOPE  H17X20091   1.166   2.684   7.953  0.1259  1.1470  1.3187
  176SOPE  H17Y20092   1.319   2.746   7.877 -0.3309  2.1140 -2.9306
  176SOPE  C31820093   1.165   2.851   7.798  0.7299 -0.7182 -0.5268
  176SOPE  H18X20094   1.165   2.788   7.707 -0.2166 -1.7880  0.1816
  176SOPE  H18Y20095   1.226   2.943   7.792  1.3684 -1.0971  0.0869
  176SOPE  H18Z20096   1.059   2.882   7.816 -0.2202 -3.4005 -1.0904
  177SOPE     N20097   6.875   3.440  10.428  0.1089 -0.2224  0.6020
  177SOPE   HN120098   6.836   3.347  10.403 -1.0556 -0.5377  3.2594
  177SOPE   HN220099   6.973   3.437  10.460 -0.1221 -0.5862  1.2964
  177SOPE   HN320100   6.813   3.459  10.510  1.0723  2.5155  0.7959
  177SOPE   C1220101   6.866   3.544  10.315 -0.5215 -0.8119 -0.1670
  177SOPE  H12A20102   6.934   3.514  10.233  1.7401 -0.2646  1.4236
  177SOPE  H12B20103   6.905   3.641  10.353 -0.4483 -1.3435  1.1965
  177SOPE   C1120104   6.718   3.574  10.290  0.3550 -0.0472  0.4081
  177SOPE  H11A20105   6.708   3.673  10.239 -0.3783  0.1154  0.8407
  177SOPE  H11B20106   6.668   3.580  10.389  0.0571  1.4828  0.1942
  177SOPE     P20107   6.594   3.488  10.076 -0.1559  0.1290 -0.1445
  177SOPE   O1320108   6.486   3.589  10.086  0.7273 -0.0092 -0.1121
  177SOPE   O1420109   6.548   3.356  10.028 -0.4061 -0.6885  0.4304
  177SOPE   O1220110   6.665   3.459  10.218  0.5475 -0.6554  0.6745
  177SOPE   O1120111   6.710   3.539   9.980  0.4275 -0.1878  0.4644
  177SOPE    C120112   6.696   3.619   9.868  0.1524  0.7364 -0.3868
  177SOPE    HA20113   6.792   3.663   9.834  0.6030 -0.9005 -1.3324
  177SOPE    HB20114   6.629   3.705   9.891 -0.5565 -0.2944  1.6071
  177SOPE    C220115   6.634   3.546   9.744  0.3396 -0.8543 -0.3301
  177SOPE    HS20116   6.537   3.505   9.779  0.4473  0.6292  1.8686
  177SOPE   O2120117   6.716   3.434   9.705 -0.0095 -0.6659 -0.3666
  177SOPE   C2120118   6.821   3.464   9.632 -0.5530 -0.3911 -0.4500
  177SOPE   O2220119   6.874   3.574   9.620 -0.5963 -0.1803  0.6175
  177SOPE   C2220120   6.871   3.332   9.581 -0.1214 -1.2639  0.0898
  177SOPE   H2R20121   6.807   3.290   9.501 -0.1881 -1.3966  0.2109
  177SOPE   H2S20122   6.886   3.259   9.663 -0.9610 -0.8991  0.5871
  177SOPE    C320123   6.589   3.643   9.623  0.3597  0.0592  0.4403
  177SOPE    HX20124   6.676   3.710   9.606  1.3042 -0.5154  2.7296
  177SOPE    HY20125   6.502   3.709   9.646 -0.3139 -0.3165 -0.8783
  177SOPE   O3120126   6.561   3.567   9.495  0.3774  0.3905  0.2025
  177SOPE   C3120127   6.441   3.526   9.467 -0.7049 -0.2689  0.5073
  177SOPE   O3220128   6.337   3.552   9.527 -0.6044 -0.0795 -0.4200
  177SOPE   C3220129   6.458   3.417   9.359  0.2653 -0.0357  0.3717
  177SOPE   H2X20130   6.430   3.321   9.408 -2.7425  1.1494  1.1734
  177SOPE   H2Y20131   6.563   3.422   9.322 -0.5712  1.5492 -1.9463
  177SOPE   C2320132   7.013   3.353   9.514 -0.3760  0.1642 -0.0961
  177SOPE   H3R20133   7.069   3.258   9.529 -0.8704 -0.0954  0.1192
  177SOPE   H3S20134   7.066   3.430   9.574  0.0167 -0.5507  0.4772
  177SOPE   C2420135   7.010   3.387   9.364 -0.0706 -0.6029 -0.1780
  177SOPE   H4R20136   6.951   3.308   9.314  0.4189 -0.5061 -0.9225
  177SOPE   H4S20137   6.961   3.487   9.358  0.5325  0.0053  3.0322
  177SOPE   C2520138   7.155   3.391   9.306  0.3337 -0.0296 -0.8300
  177SOPE   H5R20139   7.226   3.458   9.359  1.2879 -1.0080 -0.8419
  177SOPE   H5S20140   7.186   3.284   9.309  0.3787 -0.0005  0.4189
  177SOPE   C2620141   7.167   3.451   9.164  0.8649 -0.2062 -0.5515
  177SOPE   H6R20142   7.190   3.559   9.180  0.1509 -0.3117  1.5717
  177SOPE   H6S20143   7.250   3.411   9.102 -0.1891 -0.3873 -1.8900
  177SOPE   C2720144   7.048   3.418   9.077 -0.0790  0.0196  0.4238
  177SOPE   H7R20145   7.017   3.312   9.086  2.1416 -0.6324  1.1738
  177SOPE   H7S20146   6.959   3.479   9.100  0.5418  1.1641 -0.0908
  177SOPE   C2820147   7.087   3.440   8.925 -1.0685  0.7649  0.1651
  177SOPE   H8R20148   7.157   3.361   8.890 -3.8281 -2.4272  1.2954
  177SOPE   H8S20149   6.996   3.408   8.869  0.7834 -1.4592 -1.7471
  177SOPE   C2920150   7.123   3.579   8.890  0.1629  0.8223 -0.2099
  177SOPE   H9120151   7.034   3.643   8.905 -0.6096 -0.1884 -0.3269
  177SOPE  C21020152   7.245   3.631   8.863  0.6803  0.3720 -0.8160
  177SOPE  H10120153   7.253   3.740   8.848  1.5381  0.4864  0.3530
  177SOPE  C21120154   7.374   3.561   8.861  0.5516 -0.7978  0.0980
  177SOPE  H11R20155   7.384   3.461   8.908 -0.0103 -1.5785 -1.3532
  177SOPE  H11S20156   7.442   3.626   8.919  0.8655 -0.2563 -0.8623
  177SOPE  C21220157   7.433   3.545   8.718  0.4554  0.1439 -0.4860
  177SOPE  H12R20158   7.543   3.541   8.730  0.3297  1.1285  1.5802
  177SOPE  H12S20159   7.406   3.632   8.656 -0.5917  0.0678 -0.1696
  177SOPE  C21320160   7.381   3.413   8.663  0.0143  0.3351  0.3093
  177SOPE  H13R20161   7.270   3.409   8.650  0.2035 -0.1294 -1.3773
  177SOPE  H13S20162   7.406   3.335   8.737 -0.0359 -1.0990 -1.1377
  177SOPE  C21420163   7.457   3.363   8.536 -0.3938 -0.7378 -1.0085
  177SOPE  H14R20164   7.472   3.253   8.541  2.7642 -0.3582 -0.4388
  177SOPE  H14S20165   7.562   3.401   8.532  0.0026 -1.5866  0.5546
  177SOPE  C21520166   7.389   3.407   8.404 -0.2385  0.6914  0.2856
  177SOPE  H15R20167   7.416   3.514   8.398  0.5704  0.5738  1.3838
  177SOPE  H15S20168   7.279   3.391   8.411 -0.2724 -0.3268 -1.7879
  177SOPE  C21620169   7.444   3.333   8.278  0.1989 -0.3359  0.3815
  177SOPE  H16R20170   7.446   3.223   8.296 -0.7049 -0.6251 -1.1290
  177SOPE  H16S20171   7.546   3.375   8.271 -0.9341  2.6159  0.4593
  177SOPE  C21720172   7.354   3.357   8.153 -0.3222 -0.4401 -0.3985
  177SOPE  H17R20173   7.331   3.465   8.139 -2.8031 -0.9307 -0.3924
  177SOPE  H17S20174   7.256   3.307   8.164 -1.1208  0.7430 -1.7538
  177SOPE  C21820175   7.420   3.285   8.034  0.6210  0.2668 -0.5096
  177SOPE  H18R20176   7.357   3.270   7.944  0.3818  0.6805 -0.4134
  177SOPE  H18S20177   7.444   3.180   8.061  0.2781  0.4329  0.4832
  177SOPE  H18T20178   7.518   3.330   8.009 -0.0164  2.4051  0.5632
  177SOPE   C3320179   6.360   3.450   9.245 -0.3176  0.0080  0.6506
  177SOPE   H3X20180   6.358   3.561   9.232 -0.4152 -0.1286 -0.6816
  177SOPE   H3Y20181   6.252   3.427   9.256 -0.3865 -1.3543 -2.0685
  177SOPE   C3420182   6.393   3.362   9.122  0.3521 -0.1518  0.3093
  177SOPE   H4X20183   6.376   3.254   9.140 -2.4779  0.2081  0.3234
  177SOPE   H4Y20184   6.500   3.366   9.092  0.5157  1.7726  1.0248
  177SOPE   C3520185   6.319   3.398   8.991 -0.0680 -0.3304  0.2172
  177SOPE   H5X20186   6.334   3.508   8.984  2.0890 -0.6585 -1.3049
  177SOPE   H5Y20187   6.213   3.372   9.011  0.0286 -0.2687  0.8201
  177SOPE   C3620188   6.365   3.338   8.857 -0.4289  0.5632 -0.0468
  177SOPE   H6X20189   6.330   3.233   8.850 -2.0242  1.1617 -2.7442
  177SOPE   H6Y20190   6.473   3.353   8.838  0.1914 -0.5518  2.2322
  177SOPE   C3720191   6.287   3.407   8.748 -0.4387 -0.2711 -0.1747
  177SOPE   H7X20192   6.316   3.514   8.743 -0.8655 -0.1522 -0.0733
  177SOPE   H7Y20193   6.179   3.422   8.766 -0.4029  0.2876 -0.4050
  177SOPE   C3820194   6.314   3.338   8.612 -0.0401  0.6593 -0.0986
  177SOPE   H8X20195   6.263   3.240   8.600  0.8381  0.3275 -1.3554
  177SOPE   H8Y20196   6.424   3.320   8.609 -0.0948  0.4041 -0.7034
  177SOPE   C3920197   6.277   3.431   8.493 -0.1727  0.2579 -0.0050
  177SOPE   H9X20198   6.365   3.497   8.477 -0.2282  0.0026 -1.5203
  177SOPE   H9Y20199   6.196   3.500   8.525  0.1976  0.5272  0.3692
  177SOPE  C31020200   6.209   3.363   8.370  0.1414  0.1274 -0.0554
  177SOPE  H10X20201   6.189   3.440   8.292 -0.1564  0.1573  0.0512
  177SOPE  H10Y20202   6.113   3.316   8.398  0.9690 -1.6443 -0.0759
  177SOPE  C31120203   6.303   3.254   8.316 -0.3648 -0.1028 -0.1592
  177SOPE  H11X20204   6.296   3.168   8.386  0.7123  0.0367  0.1310
  177SOPE  H11Y20205   6.404   3.299   8.329  0.2100 -1.3005 -0.3379
  177SOPE  C31220206   6.273   3.229   8.165 -0.3215  0.8561 -0.6612
  177SOPE  H12X20207   6.259   3.324   8.110 -0.4898  0.5552 -1.1524
  177SOPE  H12Y20208   6.173   3.182   8.159 -0.2363 -0.0708  3.0279
  177SOPE  C31320209   6.374   3.145   8.085  0.1711 -0.0807 -0.7106
  177SOPE  H13X20210   6.378   3.046   8.135 -3.2073 -0.2639 -0.6060
  177SOPE  H13Y20211   6.474   3.191   8.099  0.2147  0.3735 -2.3180
  177SOPE  C31420212   6.331   3.113   7.941 -0.6093 -0.0122 -0.0012
  177SOPE  H14X20213   6.398   3.040   7.890 -1.4118 -2.0427  1.7327
  177SOPE  H14Y20214   6.334   3.206   7.880  0.1356  0.8289  1.2669
  177SOPE  C31520215   6.192   3.054   7.926  0.2751 -0.0300  0.1348
  177SOPE  H15X20216   6.116   3.135   7.932 -1.7161 -1.6908 -1.3252
  177SOPE  H15Y20217   6.165   2.981   8.005 -0.3893 -1.5791 -1.4721
  177SOPE  C31620218   6.163   2.992   7.788 -0.0083 -0.9145 -0.5228
  177SOPE  H16X20219   6.061   2.947   7.798 -0.6129  0.0915 -1.9316
  177SOPE  H16Y20220   6.243   2.916   7.774  3.1768  2.1724 -0.3157
  177SOPE  C31720221   6.180   3.084   7.665 -0.1573 -1.0479  0.5949
  177SOPE  H17X20222   6.276   3.139   7.675 -1.2996  1.2778 -0.5544
  177SOPE  H17Y20223   6.110   3.170   7.673  1.4832  0.3746  0.2349
  177SOPE  C31820224   6.175   3.010   7.537  0.2384 -0.0730 -0.3247
  177SOPE  H18X20225   6.091   2.937   7.537 -0.2366  0.4541  0.8592
  177SOPE  H18Y20226   6.265   2.946   7.525  1.0501  1.1525 -0.9770
  177SOPE  H18Z20227   6.164   3.070   7.444  1.4423  0.4817 -0.1191
  178SOPE     N20228   6.270   5.457  10.112  0.5311  0.8106  0.7790
  178SOPE   HN120229   6.340   5.486  10.040  0.0969 -0.7963 -0.3469
  178SOPE   HN220230   6.284   5.355  10.130 -0.9499  0.5944  0.7744
  178SOPE   HN320231   6.175   5.457  10.071  1.8611  0.2631 -2.6856
  178SOPE   C1220232   6.276   5.530  10.243 -0.0089  0.1000  0.1133
  178SOPE  H12A20233   6.354   5.486  10.309 -2.7715 -1.0888  2.8795
  178SOPE  H12B20234   6.187   5.516  10.308  0.6734  0.6842  1.2163
  178SOPE   C1120235   6.299   5.682  10.236  0.0017 -0.2065 -0.3347
  178SOPE  H11A20236   6.390   5.682  10.172 -0.1111 -0.1840 -0.4958
  178SOPE  H11B20237   6.327   5.716  10.337 -0.8964  1.8275 -0.7318
  178SOPE     P20238   6.073   5.814  10.269 -0.3509 -0.0694 -0.0636
  178SOPE   O1320239   6.104   5.783  10.413  0.1285  0.5571 -0.0193
  178SOPE   O1420240   5.942   5.770  10.218  0.2912  0.7965  0.5360
  178SOPE   O1220241   6.181   5.749  10.183 -0.1302 -0.8723  0.4503
  178SOPE   O1120242   6.093   5.970  10.242  0.3874 -0.2397 -0.9332
  178SOPE    C120243   6.225   6.027  10.254 -0.5946 -0.2694  0.5701
  178SOPE    HA20244   6.296   5.952  10.295  0.9455 -1.3439 -3.5786
  178SOPE    HB20245   6.226   6.108  10.331  1.6093 -0.6073  0.9530
  178SOPE    C220246   6.285   6.089  10.121 -0.2894  0.2583 -0.1666
  178SOPE    HS20247   6.201   6.153  10.087 -2.9272 -2.1939  1.2891
  178SOPE   O2120248   6.312   5.989  10.023  0.2903  0.1630  0.4324
  178SOPE   C2120249   6.202   5.942   9.962 -0.7527  0.2426 -0.2725
  178SOPE   O2220250   6.091   5.987   9.971  0.2193  0.5451  0.0405
  178SOPE   C2220251   6.246   5.827   9.875  0.2811  0.2211 -0.4139
  178SOPE   H2R20252   6.154   5.787   9.828 -0.5764  1.4870  0.1607
  178SOPE   H2S20253   6.279   5.744   9.943  0.7908 -0.2974 -1.2705
  178SOPE    C320254   6.416   6.178  10.140  0.4675 -0.0917  0.4343
  178SOPE    HX20255   6.495   6.102  10.124  0.0942 -0.8696  2.0723
  178SOPE    HY20256   6.420   6.223  10.241  0.1074  0.5597  0.1650
  178SOPE   O3120257   6.414   6.279  10.037 -0.0149 -0.0252 -0.4474
  178SOPE   C3120258   6.540   6.334  10.028  0.1423  0.9540 -0.0916
  178SOPE   O3220259   6.635   6.293  10.091 -0.3306 -0.4723  0.2318
  178SOPE   C3220260   6.537   6.456   9.931 -0.2764  0.6778 -0.2050
  178SOPE   H2X20261   6.514   6.546   9.992 -0.4246 -0.0472  0.8223
  178SOPE   H2Y20262   6.448   6.441   9.866 -0.9490 -1.1330  1.0673
  178SOPE   C2320263   6.363   5.859   9.781  0.1507  0.3397 -0.1465
  178SOPE   H3R20264   6.392   5.764   9.730  2.1727  0.6513  0.3398
  178SOPE   H3S20265   6.460   5.877   9.833 -0.1189  0.5578  0.2837
  178SOPE   C2420266   6.323   5.950   9.660 -0.1755  0.6009 -0.2208
  178SOPE   H4R20267   6.378   5.927   9.567 -1.3115  0.8771 -0.9911
  178SOPE   H4S20268   6.215   5.932   9.640 -0.2716  1.1091 -0.1715
  178SOPE   C2520269   6.337   6.097   9.692  0.0468  0.3220  0.5663
  178SOPE   H5R20270   6.260   6.134   9.763  1.6563  1.5997  1.7314
  178SOPE   H5S20271   6.428   6.098   9.756  0.1699  0.0474  0.3951
  178SOPE   C2620272   6.359   6.177   9.563  0.4771  0.8324 -0.2586
  178SOPE   H6R20273   6.386   6.283   9.584 -1.9916  0.9985  2.8360
  178SOPE   H6S20274   6.443   6.127   9.510  0.7693  0.2892  0.6845
  178SOPE   C2720275   6.238   6.177   9.465  0.0969  0.2047  0.2908
  178SOPE   H7R20276   6.196   6.074   9.458 -0.7028  0.5290  0.2129
  178SOPE   H7S20277   6.161   6.245   9.507  0.6396  2.0732 -1.5446
  178SOPE   C2820278   6.295   6.229   9.327  0.5843  0.3858  0.5981
  178SOPE   H8R20279   6.329   6.334   9.341  0.2868  0.9645 -2.4047
  178SOPE   H8S20280   6.391   6.182   9.297 -0.1961 -0.4327 -0.7225
  178SOPE   C2920281   6.183   6.231   9.227  0.1780  0.1817  0.0905
  178SOPE   H9120282   6.087   6.276   9.255 -1.4358 -1.4711 -2.3951
  178SOPE  C21020283   6.177   6.161   9.114 -0.0007 -0.1698  0.4146
  178SOPE  H10120284   6.078   6.160   9.067 -1.1868  0.3437  2.7422
  178SOPE  C21120285   6.286   6.069   9.054  0.7358 -0.4238 -0.3037
  178SOPE  H11R20286   6.269   5.967   9.092  1.6357  0.1038  1.5965
  178SOPE  H11S20287   6.386   6.095   9.096  1.5046 -3.3124 -0.1553
  178SOPE  C21220288   6.300   6.079   8.903  0.0604 -0.3618  0.2318
  178SOPE  H12R20289   6.394   6.030   8.872  0.2671  1.0004 -1.4845
  178SOPE  H12S20290   6.302   6.183   8.864  1.3381 -0.7988 -0.9336
  178SOPE  C21320291   6.201   5.998   8.821 -0.3440 -0.4872 -0.0186
  178SOPE  H13R20292   6.099   6.041   8.815 -0.7970 -1.6838 -2.0717
  178SOPE  H13S20293   6.196   5.893   8.859  0.5578 -0.1291  1.1431
  178SOPE  C21420294   6.262   5.983   8.682 -0.4090 -0.2801 -0.0960
  178SOPE  H14R20295   6.339   5.903   8.682 -0.6119 -0.4984 -1.4672
  178SOPE  H14S20296   6.302   6.083   8.655 -0.9839  0.1543  0.6171
  178SOPE  C21520297   6.153   5.945   8.582  0.4003 -0.0160  0.6224
  178SOPE  H15R20298   6.081   6.029   8.584 -1.6127 -1.6810  0.7881
  178SOPE  H15S20299   6.110   5.846   8.607  0.3913 -0.2690 -0.3352
  178SOPE  C21620300   6.219   5.936   8.440  0.4843 -0.0884  0.2235
  178SOPE  H16R20301   6.154   5.883   8.368  2.9529  0.4751 -2.6202
  178SOPE  H16S20302   6.316   5.883   8.451  1.2046  0.8864 -1.0782
  178SOPE  C21720303   6.244   6.072   8.373 -0.6587 -0.2921  0.2024
  178SOPE  H17R20304   6.302   6.134   8.444 -0.4223 -0.0490 -0.2011
  178SOPE  H17S20305   6.144   6.120   8.364 -1.1231 -1.0281  1.1903
  178SOPE  C21820306   6.320   6.084   8.244  0.3503  0.0470  0.5352
  178SOPE  H18R20307   6.246   6.073   8.163  1.9035 -0.3192 -0.8972
  178SOPE  H18S20308   6.395   6.002   8.238  1.8349  1.3911 -0.2598
  178SOPE  H18T20309   6.382   6.174   8.223  0.3859 -0.4170 -1.4831
  178SOPE   C3320310   6.671   6.486   9.863  0.3244  0.1785  0.5765
  178SOPE   H3X20311   6.756   6.481   9.935  3.3956  1.1343 -2.6934
  178SOPE   H3Y20312   6.659   6.589   9.823 -1.3650 -0.2143  0.0106
  178SOPE   C3420313   6.698   6.386   9.746 -0.8948  0.3503 -0.5270
  178SOPE   H4X20314   6.661   6.435   9.653  0.0102  0.4456 -0.8566
  178SOPE   H4Y20315   6.650   6.287   9.753  0.4663 -0.6050 -3.1518
  178SOPE   C3520316   6.850   6.364   9.727 -0.2269  0.0590  0.5596
  178SOPE   H5X20317   6.890   6.331   9.825 -0.8116  0.0562  0.8066
  178SOPE   H5Y20318   6.887   6.467   9.713  0.1256 -0.0850  0.4337
  178SOPE   C3620319   6.883   6.259   9.622  0.1661 -0.0882  0.6471
  178SOPE   H6X20320   6.834   6.162   9.644 -0.7894  0.4975  1.1268
  178SOPE   H6Y20321   6.993   6.240   9.618  0.1065 -0.2191 -1.1644
  178SOPE   C3720322   6.839   6.316   9.485  0.2704  0.2720 -0.2983
  178SOPE   H7X20323   6.869   6.422   9.470 -1.7569  0.8289 -0.6383
  178SOPE   H7Y20324   6.730   6.332   9.477  0.3106  2.9103  2.5105
  178SOPE   C3820325   6.885   6.226   9.375  0.5650  0.7625 -0.3910
  178SOPE   H8X20326   6.850   6.120   9.378 -2.1826  1.6060 -0.5500
  178SOPE   H8Y20327   6.995   6.209   9.375  0.6779  0.9373  2.8548
  178SOPE   C3920328   6.831   6.277   9.243  0.2663 -0.3224 -0.9793
  178SOPE   H9X20329   6.871   6.370   9.197 -0.1791  0.4067  0.0692
  178SOPE   H9Y20330   6.723   6.297   9.260  0.1113 -0.5748 -1.6225
  178SOPE  C31020331   6.840   6.180   9.127 -0.1485  0.4302  0.0448
  178SOPE  H10X20332   6.796   6.082   9.157 -1.5453  1.2887  0.9309
  178SOPE  H10Y20333   6.943   6.153   9.096  0.5255  0.2502  2.2962
  178SOPE  C31120334   6.756   6.249   9.018 -0.6129 -0.4786 -0.2275
  178SOPE  H11X20335   6.806   6.347   9.005 -1.0742  0.1853  2.5136
  178SOPE  H11Y20336   6.653   6.272   9.052 -0.5461 -0.0137 -0.3298
  178SOPE  C31220337   6.747   6.173   8.881  0.2750 -0.1546  0.2610
  178SOPE  H12X20338   6.686   6.081   8.893 -0.0498 -0.4049 -2.6051
  178SOPE  H12Y20339   6.849   6.138   8.854  0.9498  2.1776 -0.3919
  178SOPE  C31320340   6.690   6.254   8.759  0.2917  0.3900  0.4238
  178SOPE  H13X20341   6.765   6.334   8.746  1.5334 -0.1397  3.4436
  178SOPE  H13Y20342   6.593   6.303   8.784 -1.0103 -1.3826 -0.8571
  178SOPE  C31420343   6.681   6.168   8.634  0.6935 -0.7548 -0.3612
  178SOPE  H14X20344   6.619   6.076   8.642 -0.9466  0.1953 -1.6952
  178SOPE  H14Y20345   6.785   6.131   8.626  1.0663  0.4046 -1.0657
  178SOPE  C31520346   6.648   6.251   8.505 -0.1360  0.6774 -0.4145
  178SOPE  H15X20347   6.714   6.340   8.509 -0.5760  1.0716 -1.5043
  178SOPE  H15Y20348   6.541   6.274   8.521 -0.0600  0.2169  0.8922
  178SOPE  C31620349   6.668   6.174   8.370 -0.1402  0.2996  0.1311
  178SOPE  H16X20350   6.623   6.231   8.285 -0.7546  1.1969  1.0277
  178SOPE  H16Y20351   6.618   6.076   8.357  1.4990 -0.5746  0.0904
  178SOPE  C31720352   6.817   6.153   8.335 -0.5092 -0.4493 -0.4971
  178SOPE  H17X20353   6.866   6.096   8.416 -0.8596  1.0972  0.8542
  178SOPE  H17Y20354   6.860   6.255   8.324 -0.1258 -0.8342 -3.7593
  178SOPE  C31820355   6.840   6.071   8.209  0.0171 -0.6888 -0.1330
  178SOPE  H18X20356   6.947   6.044   8.217  0.6809  2.1451  2.6753
  178SOPE  H18Y20357   6.824   6.120   8.111 -0.5348  0.8207  0.6749
  178SOPE  H18Z20358   6.773   5.982   8.219  1.4511 -1.7031  0.8797
  179SOPE     N20359   4.807   3.280   5.544 -0.1238 -0.0719  0.7780
  179SOPE   HN120360   4.733   3.258   5.474 -1.5356 -0.0602  2.2093
  179SOPE   HN220361   4.885   3.318   5.488  0.4253 -1.6778  0.4050
  179SOPE   HN320362   4.832   3.190   5.591 -3.6512 -0.2286  2.7426
  179SOPE   C1220363   4.779   3.370   5.662 -0.6497  0.3435  0.2159
  179SOPE  H12A20364   4.770   3.475   5.630 -0.0924  0.7464  1.3345
  179SOPE  H12B20365   4.869   3.355   5.725  0.5387  0.7087 -1.3386
  179SOPE   C1120366   4.655   3.312   5.743 -0.1824  0.3626 -0.3052
  179SOPE  H11A20367   4.574   3.299   5.668  0.3492 -0.0166 -0.8177
  179SOPE  H11B20368   4.620   3.372   5.830  0.3833 -0.1074  0.2528
  179SOPE     P20369   4.733   3.138   5.928  0.4298 -0.3210  0.0799
  179SOPE   O1320370   4.867   3.082   5.914 -0.5352 -0.9641  0.7038
  179SOPE   O1420371   4.636   3.053   5.992  0.1593  0.3119 -0.0084
  179SOPE   O1220372   4.689   3.176   5.786 -0.0936 -0.1394  0.1100
  179SOPE   O1120373   4.741   3.271   6.010  0.2927 -0.0455  0.5378
  179SOPE    C120374   4.858   3.308   6.075  0.3387 -0.0659  0.1384
  179SOPE    HA20375   4.941   3.345   6.011  0.5976 -1.2524 -0.2373
  179SOPE    HB20376   4.891   3.224   6.141  1.0559  0.1820  0.1089
  179SOPE    C220377   4.825   3.430   6.178  0.4560  0.3092  0.5140
  179SOPE    HS20378   4.927   3.457   6.212  1.1068 -1.5447  0.1935
  179SOPE   O2120379   4.747   3.380   6.287  0.4709 -0.5576  0.3167
  179SOPE   C2120380   4.748   3.443   6.394  0.0097  0.6395 -0.3106
  179SOPE   O2220381   4.826   3.535   6.423  0.4976 -0.2269  0.2196
  179SOPE   C2220382   4.652   3.372   6.494  0.3476  0.1095 -0.2634
  179SOPE   H2R20383   4.655   3.261   6.488  0.7985  0.1190 -0.2399
  179SOPE   H2S20384   4.550   3.397   6.459 -0.1405  0.2892  1.2216
  179SOPE    C320385   4.764   3.551   6.090  0.4499  0.4317  0.4342
  179SOPE    HX20386   4.689   3.499   6.025  2.1815 -1.5354 -0.1027
  179SOPE    HY20387   4.843   3.578   6.016  0.2090 -0.3451 -0.1252
  179SOPE   O3120388   4.709   3.665   6.157  0.0899  0.1033 -0.8196
  179SOPE   C3120389   4.803   3.731   6.220 -0.3074 -0.0753  0.4215
  179SOPE   O3220390   4.926   3.716   6.213  0.1088  0.5421 -0.4100
  179SOPE   C3220391   4.736   3.846   6.303 -0.4618 -0.8364  0.4737
  179SOPE   H2X20392   4.687   3.796   6.389 -0.5864 -0.5690  0.5580
  179SOPE   H2Y20393   4.658   3.882   6.233  0.4937 -0.9321 -0.6618
  179SOPE   C2320394   4.661   3.417   6.638  0.1235  0.2302  0.0611
  179SOPE   H3R20395   4.645   3.527   6.646  1.6049  0.6192 -1.7721
  179SOPE   H3S20396   4.766   3.400   6.671  0.3811  1.1959 -0.2106
  179SOPE   C2420397   4.564   3.348   6.735 -0.3479  0.0937 -0.2079
  179SOPE   H4R20398   4.474   3.325   6.674  0.5339 -0.6431 -1.2769
  179SOPE   H4S20399   4.594   3.249   6.776  0.4168  0.2421 -0.3986
  179SOPE   C2520400   4.503   3.436   6.849 -0.0628 -0.1397 -0.3595
  179SOPE   H5R20401   4.573   3.446   6.934  0.4144 -1.6154 -0.5388
  179SOPE   H5S20402   4.458   3.530   6.811 -3.3936 -1.7843 -0.8389
  179SOPE   C2620403   4.382   3.362   6.918  0.1495 -0.2850 -0.0970
  179SOPE   H6R20404   4.303   3.348   6.842  1.5611 -2.3438 -1.2524
  179SOPE   H6S20405   4.418   3.262   6.948  0.7252  0.1926  0.8664
  179SOPE   C2720406   4.324   3.418   7.049  0.2946 -0.4086 -0.3023
  179SOPE   H7R20407   4.405   3.417   7.126 -1.2531  2.9413  1.6204
  179SOPE   H7S20408   4.293   3.521   7.022  3.2082  0.8148  0.5750
  179SOPE   C2820409   4.204   3.336   7.101  0.0794  0.2960  0.6068
  179SOPE   H8R20410   4.132   3.347   7.017  2.4664  0.2985 -1.5844
  179SOPE   H8S20411   4.218   3.226   7.101 -1.8776 -0.0083 -0.6639
  179SOPE   C2920412   4.145   3.380   7.232 -1.1305 -0.4402 -0.1020
  179SOPE   H9120413   4.150   3.486   7.263 -0.0523 -0.9731  1.7421
  179SOPE  C21020414   4.107   3.296   7.328 -0.0791  0.2267  0.1272
  179SOPE  H10120415   4.059   3.335   7.419  3.3390  0.4627  2.0212
  179SOPE  C21120416   4.085   3.149   7.327 -0.4065  0.3157  0.3644
  179SOPE  H11R20417   4.104   3.106   7.226 -1.7294 -0.0870  0.2692
  179SOPE  H11S20418   3.978   3.133   7.351 -0.2617  1.1972  1.6664
  179SOPE  C21220419   4.184   3.067   7.411  0.2037  0.6841 -0.5443
  179SOPE  H12R20420   4.291   3.081   7.386  0.7732 -0.3134  1.1274
  179SOPE  H12S20421   4.168   2.958   7.398  0.2846  0.4998  0.7152
  179SOPE  C21320422   4.169   3.092   7.567 -0.0522  0.3378  1.0170
  179SOPE  H13R20423   4.207   3.190   7.601 -0.5517  0.2618  1.8084
  179SOPE  H13S20424   4.224   3.005   7.610 -1.6164 -1.2416 -0.0464
  179SOPE  C21420425   4.026   3.092   7.614  0.3061 -0.0206  0.3578
  179SOPE  H14R20426   3.963   3.011   7.571 -0.6064  0.3306  1.0044
  179SOPE  H14S20427   3.990   3.194   7.590  0.4811  0.1293  0.7250
  179SOPE  C21520428   4.010   3.091   7.771 -0.0761  0.4048 -0.4614
  179SOPE  H15R20429   4.049   2.998   7.817  0.6635  0.3991 -1.0849
  179SOPE  H15S20430   3.903   3.095   7.802 -0.2968 -1.9667 -0.7790
  179SOPE  C21620431   4.076   3.213   7.843 -0.2831  0.0520  0.9194
  179SOPE  H16R20432   4.043   3.307   7.795  0.5331  0.2945  0.8044
  179SOPE  H16S20433   4.185   3.207   7.818 -0.8015 -1.1785 -1.2904
  179SOPE  C21720434   4.046   3.205   7.990 -0.2725  0.3383  0.0395
  179SOPE  H17R20435   4.110   3.274   8.050 -1.9065  1.0933  1.0059
  179SOPE  H17S20436   4.067   3.107   8.037 -0.0424  0.9517  1.2803
  179SOPE  C21820437   3.903   3.261   8.012 -0.1121 -0.1917  0.1600
  179SOPE  H18R20438   3.894   3.361   7.964  2.4664 -0.4703 -1.0325
  179SOPE  H18S20439   3.876   3.265   8.120 -2.7158  0.2346 -0.4215
  179SOPE  H18T20440   3.821   3.196   7.974  0.1025 -2.0688  2.6154
  179SOPE   C3320441   4.826   3.960   6.345 -0.0313 -0.6063  0.0598
  179SOPE   H3X20442   4.843   4.031   6.260  1.0446  0.6719  1.3015
  179SOPE   H3Y20443   4.926   3.921   6.372 -0.1366  0.9837  3.1972
  179SOPE   C3420444   4.780   4.044   6.466 -0.0708 -0.0777  0.4097
  179SOPE   H4X20445   4.762   3.986   6.559 -0.6240 -0.7791 -0.1286
  179SOPE   H4Y20446   4.679   4.085   6.442 -0.0765 -0.5522 -0.3857
  179SOPE   C3520447   4.874   4.153   6.509  0.7657  0.2748 -0.0274
  179SOPE   H5X20448   4.925   4.195   6.420  0.6613 -0.8827 -0.6586
  179SOPE   H5Y20449   4.947   4.105   6.578  1.1315 -1.9552 -1.8319
  179SOPE   C3620450   4.795   4.256   6.582  0.4482 -0.5701 -0.4518
  179SOPE   H6X20451   4.703   4.284   6.527  0.8985 -1.2037 -1.5663
  179SOPE   H6Y20452   4.851   4.348   6.609 -0.8393  0.4172 -1.0370
  179SOPE   C3720453   4.750   4.207   6.725 -0.1893  0.1724  0.4881
  179SOPE   H7X20454   4.793   4.106   6.738 -0.6365 -0.0909 -0.0036
  179SOPE   H7Y20455   4.639   4.201   6.731 -0.1333 -1.2541  0.2624
  179SOPE   C3820456   4.788   4.290   6.849  0.2507  0.1736  0.0631
  179SOPE   H8X20457   4.782   4.396   6.817  1.4070  0.7546  1.6481
  179SOPE   H8Y20458   4.889   4.256   6.879 -0.3482 -2.4687 -0.6075
  179SOPE   C3920459   4.683   4.273   6.961  0.1143 -0.5019 -0.4378
  179SOPE   H9X20460   4.682   4.165   6.984  2.0451 -0.6298 -0.7669
  179SOPE   H9Y20461   4.584   4.307   6.924  0.1618 -1.4459 -1.4750
  179SOPE  C31020462   4.719   4.349   7.090  0.1928  0.2483  0.3513
  179SOPE  H10X20463   4.717   4.457   7.064  0.2077  0.5021  1.3733
  179SOPE  H10Y20464   4.825   4.327   7.115  1.0089  0.9971 -2.1357
  179SOPE  C31120465   4.622   4.326   7.210  0.4296 -0.2758  0.1933
  179SOPE  H11X20466   4.589   4.220   7.213 -2.2158  0.4775 -0.0522
  179SOPE  H11Y20467   4.516   4.352   7.191 -0.9547 -3.8978  1.9807
  179SOPE  C31220468   4.661   4.375   7.354 -0.2539  0.2727 -0.6905
  179SOPE  H12X20469   4.663   4.486   7.347 -1.0129  0.4450  1.3792
  179SOPE  H12Y20470   4.766   4.343   7.374  0.0545  2.0991  0.8738
  179SOPE  C31320471   4.559   4.341   7.465  0.2236  1.0493 -0.1913
  179SOPE  H13X20472   4.544   4.232   7.477  4.3131  0.3146 -0.1983
  179SOPE  H13Y20473   4.456   4.379   7.450 -0.8886 -0.8320  2.0044
  179SOPE  C31420474   4.612   4.378   7.604 -0.2637 -0.7158  0.1738
  179SOPE  H14X20475   4.653   4.481   7.593 -0.7619 -0.6836 -1.6794
  179SOPE  H14Y20476   4.699   4.316   7.634 -0.1312 -0.4900  0.2590
  179SOPE  C31520477   4.503   4.382   7.719  0.8615 -0.8180 -0.2356
  179SOPE  H15X20478   4.415   4.445   7.697 -0.2945 -1.1109  3.0517
  179SOPE  H15Y20479   4.544   4.414   7.817  1.0146 -0.8672 -0.2818
  179SOPE  C31620480   4.447   4.240   7.738  0.1107 -0.4992 -0.1496
  179SOPE  H16X20481   4.531   4.181   7.782  0.4514  0.3802  0.3972
  179SOPE  H16Y20482   4.405   4.186   7.651 -3.1664 -1.3490  1.7595
  179SOPE  C31720483   4.327   4.234   7.836  0.1152  0.3287 -0.2411
  179SOPE  H17X20484   4.307   4.128   7.865  2.0725 -0.1665 -0.5377
  179SOPE  H17Y20485   4.243   4.273   7.775  0.2034 -0.3767 -0.8341
  179SOPE  C31820486   4.333   4.309   7.970 -0.0270 -0.3856 -0.6860
  179SOPE  H18X20487   4.417   4.256   8.019  0.7928 -1.2015 -2.8669
  179SOPE  H18Y20488   4.237   4.296   8.025  0.1591  1.2803  0.1060
  179SOPE  H18Z20489   4.337   4.420   7.958  0.0356 -0.2571  0.4583
  180SOPE     N20490   6.161   3.863   6.136  0.3730 -0.1080 -0.3254
  180SOPE   HN120491   6.191   3.956   6.101 -2.0284  0.3925 -1.2765
  180SOPE   HN220492   6.219   3.842   6.220 -0.8302 -2.5356 -0.0077
  180SOPE   HN320493   6.182   3.789   6.067  0.5066  0.6010 -1.0597
  180SOPE   C1220494   6.019   3.885   6.173 -0.4331  0.2974  0.8634
  180SOPE  H12A20495   6.006   3.898   6.282 -1.0392  2.1225  0.6063
  180SOPE  H12B20496   5.963   3.795   6.141 -0.4364  0.7093 -0.3728
  180SOPE   C1120497   5.962   4.009   6.090 -0.4863  1.1928  0.3291
  180SOPE  H11A20498   5.854   4.005   6.116 -0.5352  3.1057  0.5254
  180SOPE  H11B20499   5.962   3.986   5.981 -0.8317 -2.0196  0.9087
  180SOPE     P20500   6.124   4.209   6.077  0.0125 -0.0239  0.0654
  180SOPE   O1320501   6.079   4.314   5.992 -0.6351 -0.2271  0.5694
  180SOPE   O1420502   6.211   4.106   6.016 -0.3113  0.2281  0.1711
  180SOPE   O1220503   5.999   4.135   6.139  0.0191  0.1190  0.4717
  180SOPE   O1120504   6.203   4.261   6.201  0.1512 -0.0746  0.4540
  180SOPE    C120505   6.195   4.195   6.326  0.0513  0.2872 -0.3116
  180SOPE    HA20506   6.297   4.203   6.368 -0.3190  3.2629  0.2219
  180SOPE    HB20507   6.167   4.087   6.333 -0.3051  0.4868  2.4477
  180SOPE    C220508   6.109   4.270   6.436  0.1646  0.3472  0.1765
  180SOPE    HS20509   6.004   4.267   6.399 -0.4599 -0.5874  1.9159
  180SOPE   O2120510   6.157   4.407   6.446  0.3749 -0.1080 -0.1530
  180SOPE   C2120511   6.061   4.500   6.460  0.6178  0.2633 -0.1530
  180SOPE   O2220512   5.942   4.474   6.475  0.1399  0.0642  0.0925
  180SOPE   C2220513   6.114   4.643   6.459  0.4473 -0.0287  0.0331
  180SOPE   H2R20514   6.077   4.686   6.364 -1.4914  0.2226  0.8670
  180SOPE   H2S20515   6.225   4.631   6.454  0.4368  0.3833 -1.4746
  180SOPE    C320516   6.117   4.202   6.575 -0.3180  0.6175 -0.1471
  180SOPE    HX20517   6.220   4.208   6.617 -1.5456 -0.1761  3.3697
  180SOPE    HY20518   6.098   4.095   6.553 -0.3448 -0.3501  3.7244
  180SOPE   O3120519   6.032   4.265   6.669  0.7605 -0.3662 -0.1037
  180SOPE   C3120520   5.915   4.208   6.693 -0.0222  0.0770  0.2814
  180SOPE   O3220521   5.877   4.102   6.649 -0.6796 -0.5016  0.2084
  180SOPE   C3220522   5.836   4.296   6.804  0.0087  0.5801  0.9209
  180SOPE   H2X20523   5.737   4.323   6.760 -0.8344 -0.9565  1.7659
  180SOPE   H2Y20524   5.892   4.388   6.831  0.8093  0.8902 -1.5375
  180SOPE   C2320525   6.078   4.724   6.585 -0.1628 -0.1264  0.2350
  180SOPE   H3R20526   5.972   4.758   6.588  0.7051  3.0743 -0.8669
  180SOPE   H3S20527   6.135   4.819   6.593 -0.9472  0.4372 -0.6918
  180SOPE   C2420528   6.115   4.663   6.720 -0.0185 -0.1685 -0.1689
  180SOPE   H4R20529   6.080   4.735   6.798  1.8154 -0.7285  1.2600
  180SOPE   H4S20530   6.058   4.568   6.731  0.3625 -0.5896 -1.6372
  180SOPE   C2520531   6.259   4.640   6.756 -0.0739 -0.1008 -0.3893
  180SOPE   H5R20532   6.296   4.553   6.698 -0.1484  1.1411 -2.3893
  180SOPE   H5S20533   6.316   4.731   6.728  0.0047  0.2780  0.9432
  180SOPE   C2620534   6.282   4.617   6.910 -0.1716  0.1951 -0.3881
  180SOPE   H6R20535   6.390   4.604   6.936 -0.8734 -1.2979  2.0693
  180SOPE   H6S20536   6.244   4.709   6.960 -0.2250  0.2094 -0.4548
  180SOPE   C2720537   6.205   4.500   6.970  0.3904  0.6045  0.1608
  180SOPE   H7R20538   6.215   4.502   7.081  0.7690 -1.2304  0.1839
  180SOPE   H7S20539   6.096   4.509   6.951  0.2104 -1.1257  0.2535
  180SOPE   C2820540   6.256   4.358   6.930 -0.1882  0.0927  0.4021
  180SOPE   H8R20541   6.273   4.332   6.823 -1.3605  1.6873 -0.2290
  180SOPE   H8S20542   6.358   4.347   6.971  0.1126  2.3081  0.3823
  180SOPE   C2920543   6.172   4.240   6.986 -1.5439 -0.2062  0.3489
  180SOPE   H9120544   6.130   4.177   6.905  3.2267 -1.4350 -1.4757
  180SOPE  C21020545   6.160   4.198   7.114  0.3409 -0.1435 -0.1944
  180SOPE  H10120546   6.096   4.110   7.131 -0.2013  0.3231  0.1860
  180SOPE  C21120547   6.211   4.262   7.243 -0.0961  1.3499 -0.1577
  180SOPE  H11R20548   6.134   4.315   7.303  0.3821  1.6247  0.2171
  180SOPE  H11S20549   6.278   4.345   7.212 -0.3927  0.8063 -2.4680
  180SOPE  C21220550   6.280   4.152   7.329 -0.9675 -0.0814  0.0695
  180SOPE  H12R20551   6.353   4.204   7.395 -0.0629  0.4492 -1.3073
  180SOPE  H12S20552   6.328   4.067   7.275 -2.5916 -0.8033 -0.2960
  180SOPE  C21320553   6.190   4.091   7.435  0.2740  0.8226 -0.6072
  180SOPE  H13R20554   6.098   4.047   7.390 -0.3202 -0.5079  1.6885
  180SOPE  H13S20555   6.155   4.170   7.505 -0.0661 -1.4188  1.9477
  180SOPE  C21420556   6.251   3.967   7.508  0.0854 -0.2043  0.5703
  180SOPE  H14R20557   6.345   4.004   7.553  0.7895 -1.0156 -0.2002
  180SOPE  H14S20558   6.279   3.891   7.432 -3.8228 -2.4624  1.0943
  180SOPE  C21520559   6.167   3.909   7.612  0.1870 -0.1275  0.2138
  180SOPE  H15R20560   6.205   3.807   7.636 -1.6146 -1.1070 -0.8550
  180SOPE  H15S20561   6.071   3.885   7.563  0.7324 -0.1712 -0.8566
  180SOPE  C21620562   6.121   3.993   7.730  0.9603  0.0029  0.5957
  180SOPE  H16R20563   6.064   3.926   7.798 -0.2393 -2.0626 -2.2489
  180SOPE  H16S20564   6.044   4.059   7.684  0.1100 -2.3347 -1.5672
  180SOPE  C21720565   6.233   4.084   7.788  0.4099  0.1933  0.4733
  180SOPE  H17R20566   6.180   4.154   7.855 -1.0411 -0.3767 -0.0542
  180SOPE  H17S20567   6.287   4.139   7.708 -0.8366 -1.6394 -1.7704
  180SOPE  C21820568   6.328   3.996   7.868 -0.4278  0.3929 -0.3289
  180SOPE  H18R20569   6.268   3.955   7.952  1.1276 -1.2528  0.0528
  180SOPE  H18S20570   6.418   4.044   7.912 -0.1487 -1.4831  1.2926
  180SOPE  H18T20571   6.376   3.912   7.813  1.0651  2.0104 -1.5971
  180SOPE   C3320572   5.793   4.208   6.920  0.4640  0.3560 -0.2605
  180SOPE   H3X20573   5.891   4.188   6.968  0.3730  2.2557  0.8067
  180SOPE   H3Y20574   5.743   4.117   6.880  0.7205 -0.1198  0.4865
  180SOPE   C3420575   5.693   4.287   7.009 -0.1338  0.2008  0.4344
  180SOPE   H4X20576   5.603   4.309   6.947  2.6794  1.2987 -3.6638
  180SOPE   H4Y20577   5.740   4.384   7.033  1.4826 -1.0196  2.5661
  180SOPE   C3520578   5.641   4.220   7.138  1.1098 -0.5477 -0.6540
  180SOPE   H5X20579   5.568   4.140   7.113 -2.5347  1.4184  2.6691
  180SOPE   H5Y20580   5.579   4.296   7.190  0.1706 -2.8911  1.9104
  180SOPE   C3620581   5.743   4.172   7.240  0.2298  0.8220  0.3448
  180SOPE   H6X20582   5.814   4.257   7.247 -0.0335  1.0999 -0.2597
  180SOPE   H6Y20583   5.803   4.087   7.202 -0.4012  0.3878  0.3094
  180SOPE   C3720584   5.690   4.145   7.380  1.0224 -0.3368  0.0610
  180SOPE   H7X20585   5.624   4.056   7.371 -1.3098  1.0386  2.4236
  180SOPE   H7Y20586   5.619   4.225   7.408 -0.5822 -1.6247 -0.2023
  180SOPE   C3820587   5.798   4.133   7.483 -0.6640 -0.0445  0.2171
  180SOPE   H8X20588   5.870   4.217   7.488 -0.4485 -0.2079 -0.0978
  180SOPE   H8Y20589   5.861   4.046   7.457 -1.9675 -0.1762 -3.0322
  180SOPE   C3920590   5.750   4.103   7.627 -0.6859  0.5437 -0.0272
  180SOPE   H9X20591   5.704   4.189   7.682  1.4717  2.6959 -1.3812
  180SOPE   H9Y20592   5.838   4.071   7.686  1.5748 -1.2438 -3.9607
  180SOPE  C31020593   5.646   3.995   7.610 -0.1101  0.5663 -0.3433
  180SOPE  H10X20594   5.674   3.911   7.543  1.9734  0.6026  0.4127
  180SOPE  H10Y20595   5.554   4.049   7.579 -0.3041  0.7562  0.5160
  180SOPE  C31120596   5.628   3.929   7.741 -0.3539 -0.0158  0.0010
  180SOPE  H11X20597   5.615   4.008   7.819 -1.3552  0.0203 -0.1920
  180SOPE  H11Y20598   5.717   3.877   7.783 -0.4490 -0.1706  0.0071
  180SOPE  C31220599   5.513   3.831   7.746 -0.3236  0.1510 -0.5605
  180SOPE  H12X20600   5.511   3.782   7.646 -1.3321 -1.5755  0.2644
  180SOPE  H12Y20601   5.417   3.884   7.766 -0.6167 -0.9016  0.9736
  180SOPE  C31320602   5.533   3.725   7.851 -0.2497  0.1120  0.4456
  180SOPE  H13X20603   5.534   3.763   7.956 -0.0559  0.8452  0.1853
  180SOPE  H13Y20604   5.633   3.681   7.826 -0.4117  1.1616 -2.4274
  180SOPE  C31420605   5.430   3.617   7.837 -0.0365  0.3347  0.3003
  180SOPE  H14X20606   5.418   3.579   7.733 -0.0854 -1.3332  0.8882
  180SOPE  H14Y20607   5.330   3.653   7.871 -0.7707 -0.0061 -1.3646
  180SOPE  C31520608   5.477   3.483   7.901 -0.2794 -0.3601  0.0039
  180SOPE  H15X20609   5.476   3.497   8.011  0.7972 -1.7671  0.2228
  180SOPE  H15Y20610   5.584   3.472   7.874 -0.1797 -0.4938  0.4413
  180SOPE  C31620611   5.389   3.365   7.861  0.4972 -0.3995 -0.3334
  180SOPE  H16X20612   5.423   3.265   7.895  1.3611 -0.2572 -0.7371
  180SOPE  H16Y20613   5.383   3.373   7.750  1.9459 -1.4563 -0.5201
  180SOPE  C31720614   5.247   3.372   7.914  0.0531 -0.5546  0.9700
  180SOPE  H17X20615   5.196   3.463   7.876 -1.3198 -1.5258  0.3846
  180SOPE  H17Y20616   5.257   3.393   8.023  1.5288  1.2148  0.5524
  180SOPE  C31820617   5.160   3.257   7.881 -0.2808 -0.2685  0.5885
  180SOPE  H18X20618   5.057   3.275   7.920 -0.2121 -0.8228  1.0283
  180SOPE  H18Y20619   5.198   3.157   7.910 -1.2666 -0.9542 -0.4079
  180SOPE  H18Z20620   5.129   3.245   7.775 -1.2566 -1.1802  0.9693
  181SOPE     N20621   3.758   2.273   6.135 -0.2949 -0.0466  0.2642
  181SOPE   HN120622   3.746   2.172   6.115 -0.1572  0.1632 -0.9232
  181SOPE   HN220623   3.716   2.286   6.229  1.2801 -1.9867  1.3361
  181SOPE   HN320624   3.711   2.326   6.059 -0.8704 -1.4534 -0.3862
  181SOPE   C1220625   3.901   2.309   6.135  0.7795 -0.5816 -0.0374
  181SOPE  H12A20626   3.921   2.378   6.220 -2.4255 -1.2709  1.3992
  181SOPE  H12B20627   3.914   2.365   6.039  1.1907  0.8334  0.8062
  181SOPE   C1120628   3.996   2.189   6.128 -0.2310  0.0285  0.2168
  181SOPE  H11A20629   3.987   2.150   6.231  2.5493  2.9165  1.7045
  181SOPE  H11B20630   4.100   2.223   6.112 -0.0641 -0.3257  0.5327
  181SOPE     P20631   3.891   1.967   6.054 -0.0882  0.3596 -0.0157
  181SOPE   O1320632   3.916   1.868   5.950 -0.0870 -0.1832 -0.4452
  181SOPE   O1420633   3.745   2.007   6.077  0.7112  0.2233  0.7875
  181SOPE   O1220634   3.962   2.099   6.024  0.1992 -0.4307  0.6518
  181SOPE   O1120635   3.959   1.902   6.180  0.1649  0.5879  0.1803
  181SOPE    C120636   4.083   1.839   6.149 -0.2617  0.4729 -0.6115
  181SOPE    HA20637   4.154   1.909   6.101 -0.5429  3.0114  2.3919
  181SOPE    HB20638   4.070   1.737   6.107 -0.0238 -0.2166  0.9041
  181SOPE    C220639   4.160   1.795   6.286  0.7119 -0.1282 -0.0600
  181SOPE    HS20640   4.258   1.754   6.255  0.9378  0.3907 -0.0457
  181SOPE   O2120641   4.086   1.706   6.368 -0.1878 -0.2704  0.6261
  181SOPE   C2120642   4.144   1.606   6.428 -0.4832  0.6021  0.6844
  181SOPE   O2220643   4.260   1.568   6.402  0.6755  0.4491 -0.8558
  181SOPE   C2220644   4.053   1.536   6.529 -0.0745 -0.3839  0.5089
  181SOPE   H2R20645   4.034   1.430   6.503  1.3527 -0.4521 -0.3830
  181SOPE   H2S20646   3.955   1.587   6.539  0.4223  0.7438 -0.1205
  181SOPE    C320647   4.204   1.923   6.362  0.2525 -0.2501  0.1825
  181SOPE    HX20648   4.113   1.971   6.402  0.0228 -0.2705 -0.3102
  181SOPE    HY20649   4.259   1.992   6.294  0.1635 -2.5974 -2.4522
  181SOPE   O3120650   4.290   1.893   6.468 -0.1290 -0.1022 -0.5034
  181SOPE   C3120651   4.350   1.993   6.542 -0.3242  0.3151 -0.6437
  181SOPE   O3220652   4.332   2.109   6.519  0.3773  0.5636 -0.3547
  181SOPE   C3220653   4.421   1.930   6.661 -0.1789  0.7363 -0.3713
  181SOPE   H2X20654   4.525   1.906   6.628  0.0890 -2.6542  2.2763
  181SOPE   H2Y20655   4.379   1.830   6.683 -0.1872  0.8911  0.3412
  181SOPE   C2320656   4.112   1.536   6.674  0.3881  0.1567 -0.3774
  181SOPE   H3R20657   4.208   1.482   6.661  0.5102  0.2968 -0.0437
  181SOPE   H3S20658   4.028   1.481   6.721 -0.3231  1.8337  0.3919
  181SOPE   C2420659   4.125   1.671   6.742 -0.6600 -0.6238  0.5882
  181SOPE   H4R20660   4.181   1.735   6.671 -3.2291  0.7558 -0.3490
  181SOPE   H4S20661   4.022   1.714   6.745  0.0646  1.2198  0.2624
  181SOPE   C2520662   4.183   1.657   6.883 -0.3148 -0.3820  0.3104
  181SOPE   H5R20663   4.287   1.621   6.864 -0.2668  0.2235 -0.5773
  181SOPE   H5S20664   4.180   1.760   6.923  2.0676  0.0268 -0.4061
  181SOPE   C2620665   4.117   1.550   6.969  0.9613 -0.1223 -0.2837
  181SOPE   H6R20666   4.007   1.558   6.956  1.0397  3.1031  0.2406
  181SOPE   H6S20667   4.154   1.448   6.944  0.8359 -0.5477  1.1541
  181SOPE   C2720668   4.155   1.565   7.116  0.1844  0.0152  0.0392
  181SOPE   H7R20669   4.266   1.558   7.122  0.3615  0.1003 -2.3636
  181SOPE   H7S20670   4.139   1.662   7.167  3.2555 -0.9824  3.4141
  181SOPE   C2820671   4.105   1.452   7.218 -0.0959 -0.3786  0.7626
  181SOPE   H8R20672   4.106   1.351   7.171 -0.7679 -0.7028  1.4225
  181SOPE   H8S20673   4.176   1.459   7.303  2.5197  0.1878 -1.3398
  181SOPE   C2920674   3.974   1.486   7.273  0.4974  0.7246  0.5562
  181SOPE   H9120675   3.892   1.464   7.203  1.7974 -0.1033 -0.7590
  181SOPE  C21020676   3.946   1.535   7.391 -0.5173 -0.3750 -0.7311
  181SOPE  H10120677   3.841   1.547   7.423 -0.5210 -0.4596 -0.7098
  181SOPE  C21120678   4.046   1.568   7.501 -0.4776 -0.4776  0.1181
  181SOPE  H11R20679   4.062   1.678   7.500  1.7925 -0.7635  0.1974
  181SOPE  H11S20680   4.152   1.537   7.488  0.2102  0.9884  1.8650
  181SOPE  C21220681   4.012   1.507   7.639 -0.7758  0.2411  0.2549
  181SOPE  H12R20682   4.109   1.512   7.691  0.9409 -1.3428 -2.5465
  181SOPE  H12S20683   3.985   1.399   7.632  0.4992 -0.1826  1.4741
  181SOPE  C21320684   3.902   1.579   7.706  0.5507  0.7344 -0.0443
  181SOPE  H13R20685   3.807   1.583   7.649  0.7707 -1.6813 -0.6933
  181SOPE  H13S20686   3.934   1.683   7.727  0.6861  0.9855 -1.3941
  181SOPE  C21420687   3.858   1.508   7.841 -0.8533  0.3593  0.1326
  181SOPE  H14R20688   3.952   1.484   7.894 -0.0671  0.2331 -1.2627
  181SOPE  H14S20689   3.811   1.409   7.819  1.7646 -1.0836  0.6555
  181SOPE  C21520690   3.770   1.605   7.917 -0.2750  0.1625 -0.0297
  181SOPE  H15R20691   3.669   1.593   7.872 -0.3673 -1.0406  0.4545
  181SOPE  H15S20692   3.804   1.710   7.905 -1.4202  0.3128 -2.6488
  181SOPE  C21620693   3.750   1.561   8.068 -0.1864  0.1745 -0.2485
  181SOPE  H16R20694   3.843   1.566   8.128 -1.0886  1.0158  1.1789
  181SOPE  H16S20695   3.729   1.453   8.060 -1.6089  0.1324  2.7021
  181SOPE  C21720696   3.637   1.645   8.134 -0.1696 -0.8858 -0.4372
  181SOPE  H17R20697   3.616   1.603   8.235 -0.2965  2.1017  0.8743
  181SOPE  H17S20698   3.550   1.629   8.067  1.1214  1.5192 -2.9028
  181SOPE  C21820699   3.666   1.795   8.149  0.2890  0.4321 -0.1478
  181SOPE  H18R20700   3.662   1.842   8.049 -5.6976  0.2605 -0.3267
  181SOPE  H18S20701   3.759   1.818   8.207 -0.5004 -1.6176  2.1322
  181SOPE  H18T20702   3.583   1.844   8.204  0.1173  1.7176 -1.5083
  181SOPE   C3320703   4.420   2.018   6.785  0.0453 -0.2517  0.0429
  181SOPE   H3X20704   4.316   2.051   6.803 -0.3554 -1.0529 -0.7179
  181SOPE   H3Y20705   4.465   2.116   6.756 -0.3221 -0.1681 -0.2614
  181SOPE   C3420706   4.464   1.951   6.911 -0.5719 -0.0520 -0.1819
  181SOPE   H4X20707   4.572   1.928   6.900 -0.1171  2.5685 -2.2642
  181SOPE   H4Y20708   4.415   1.852   6.920 -0.6200  0.1192  2.1313
  181SOPE   C3520709   4.434   2.027   7.037 -0.0193  0.9315 -0.6346
  181SOPE   H5X20710   4.326   2.029   7.063  0.0772 -0.3959 -0.0771
  181SOPE   H5Y20711   4.474   2.129   7.019  2.0851  0.3653  0.5071
  181SOPE   C3620712   4.498   1.971   7.169  0.7325 -0.3167  0.1033
  181SOPE   H6X20713   4.577   2.042   7.202  0.5188  0.3969 -0.8601
  181SOPE   H6Y20714   4.563   1.888   7.134  2.8450  1.7910 -1.3878
  181SOPE   C3720715   4.403   1.961   7.290 -0.2110  0.5364  0.4384
  181SOPE   H7X20716   4.306   1.924   7.251 -0.9856  2.0290  0.8392
  181SOPE   H7Y20717   4.393   2.046   7.362 -3.6488  0.0132  0.7256
  181SOPE   C3820718   4.446   1.839   7.386 -0.2872 -0.0880 -0.2587
  181SOPE   H8X20719   4.557   1.842   7.392 -0.2911 -1.8169  2.0891
  181SOPE   H8Y20720   4.409   1.746   7.339  0.3878  0.8332 -2.7319
  181SOPE   C3920721   4.400   1.854   7.535  0.1151  0.2885 -0.5458
  181SOPE   H9X20722   4.294   1.886   7.527 -0.3930 -0.6976  1.4607
  181SOPE   H9Y20723   4.451   1.945   7.573  0.6231 -0.7454  1.4148
  181SOPE  C31020724   4.427   1.736   7.627  0.6655 -0.0409  0.4245
  181SOPE  H10X20725   4.531   1.700   7.641 -0.0175 -1.9036  1.1570
  181SOPE  H10Y20726   4.380   1.652   7.570  2.0238 -0.4484 -0.1274
  181SOPE  C31120727   4.353   1.748   7.762 -0.1228  0.0845 -0.4080
  181SOPE  H11X20728   4.246   1.777   7.756 -0.2625 -0.1770  0.7545
  181SOPE  H11Y20729   4.398   1.836   7.813  1.0574 -0.7863  0.0963
  181SOPE  C31220730   4.356   1.614   7.842 -0.0190 -1.0478 -0.2395
  181SOPE  H12X20731   4.462   1.580   7.837 -0.1074 -1.3596  0.0061
  181SOPE  H12Y20732   4.286   1.540   7.799 -1.4217  0.4211 -0.6060
  181SOPE  C31320733   4.313   1.624   7.990  0.5935 -0.1398 -0.2050
  181SOPE  H13X20734   4.383   1.690   8.045  0.1311 -0.0500  0.2794
  181SOPE  H13Y20735   4.299   1.529   8.046 -0.3198 -0.5228 -1.0422
  181SOPE  C31420736   4.187   1.717   8.006 -0.4065  0.3833  0.5786
  181SOPE  H14X20737   4.101   1.688   7.941 -0.0290  1.4053 -0.4222
  181SOPE  H14Y20738   4.224   1.818   7.977  1.2263 -0.6098 -0.9122
  181SOPE  C31520739   4.150   1.730   8.152 -0.5162  1.0180 -0.1418
  181SOPE  H15X20740   4.242   1.741   8.214 -0.6772 -1.0071  0.5458
  181SOPE  H15Y20741   4.097   1.640   8.189 -1.8218  1.0660 -1.8187
  181SOPE  C31620742   4.056   1.847   8.173 -0.3855  0.1972  0.9380
  181SOPE  H16X20743   3.966   1.828   8.109  0.2650  0.6087 -0.1304
  181SOPE  H16Y20744   4.097   1.940   8.129 -0.3928 -0.2050  0.0476
  181SOPE  C31720745   4.017   1.871   8.317 -0.4790  0.6178 -1.2613
  181SOPE  H17X20746   3.972   1.776   8.354  1.1515  1.3269  3.0866
  181SOPE  H17Y20747   3.931   1.941   8.315 -2.5336 -1.7460 -0.6979
  181SOPE  C31820748   4.128   1.920   8.403 -0.2163  0.5320 -0.5037
  181SOPE  H18X20749   4.091   1.925   8.507 -1.1230 -0.2178 -0.7732
  181SOPE  H18Y20750   4.175   2.018   8.381  0.7237  0.4855  1.1366
  181SOPE  H18Z20751   4.204   1.839   8.407 -0.9746 -0.2126 -0.8858
  182SOPE     N20752   5.723   0.576   5.610 -0.6765  0.3059  0.7032
  182SOPE   HN120753   5.713   0.675   5.579  0.1232 -0.3994 -2.1170
  182SOPE   HN220754   5.824   0.555   5.616 -1.1722 -3.9499 -1.4653
  182SOPE   HN320755   5.679   0.517   5.536 -1.3415 -0.0554  1.3607
  182SOPE   C1220756   5.640   0.549   5.738 -0.3193 -0.0061 -0.3067
  182SOPE  H12A20757   5.661   0.448   5.779  0.1340  0.4852  0.6828
  182SOPE  H12B20758   5.534   0.555   5.705 -0.3051  1.2740 -0.1583
  182SOPE   C1120759   5.680   0.655   5.846  0.9573 -0.5290 -0.1465
  182SOPE  H11A20760   5.647   0.614   5.944  0.1871  3.0035  1.2613
  182SOPE  H11B20761   5.612   0.743   5.834  0.6179 -0.9307 -1.2314
  182SOPE     P20762   5.861   0.827   5.911  0.1110 -0.7405  0.3282
  182SOPE   O1320763   5.854   0.928   5.800 -0.3272 -0.7064 -0.0833
  182SOPE   O1420764   5.990   0.812   5.981 -0.0616 -0.1941 -0.0395
  182SOPE   O1220765   5.819   0.688   5.853 -0.3887 -0.0028 -0.3112
  182SOPE   O1120766   5.751   0.867   6.019 -0.2784 -0.1425 -0.3572
  182SOPE    C120767   5.758   0.805   6.145  0.1182  0.2700  0.7946
  182SOPE    HA20768   5.832   0.857   6.210  1.5002 -0.0646 -0.4335
  182SOPE    HB20769   5.791   0.699   6.133  0.4084  0.0763  2.8161
  182SOPE    C220770   5.618   0.795   6.209  0.0764  0.2183 -0.3571
  182SOPE    HS20771   5.546   0.767   6.129 -1.9576  0.5601  1.2719
  182SOPE   O2120772   5.585   0.932   6.240 -0.0147  0.3794  0.3849
  182SOPE   C2120773   5.456   0.953   6.274  0.4241 -0.2924  0.1799
  182SOPE   O2220774   5.366   0.869   6.265  0.1202  0.1986  0.3565
  182SOPE   C2220775   5.433   1.102   6.312 -0.3509 -0.1969 -0.5347
  182SOPE   H2R20776   5.349   1.140   6.250 -1.9795  0.0524  1.6613
  182SOPE   H2S20777   5.526   1.163   6.308 -0.3492 -0.0235  1.2585
  182SOPE    C320778   5.602   0.701   6.331  0.0841  0.1801 -1.0694
  182SOPE    HX20779   5.600   0.596   6.295  1.1791 -0.3500  0.3596
  182SOPE    HY20780   5.508   0.723   6.386  1.1172  1.6898  0.1924
  182SOPE   O3120781   5.712   0.713   6.423 -0.3271 -0.1135 -0.4361
  182SOPE   C3120782   5.787   0.602   6.437 -0.1592  0.2161  0.5327
  182SOPE   O3220783   5.760   0.490   6.403  0.5088  0.3491  0.4700
  182SOPE   C3220784   5.914   0.638   6.512  0.0928 -0.2482  0.5991
  182SOPE   H2X20785   5.954   0.730   6.463 -0.8908 -0.9058 -1.5612
  182SOPE   H2Y20786   5.997   0.564   6.515  1.9397  1.5500 -1.7055
  182SOPE   C2320787   5.364   1.109   6.449 -0.2589  0.0484 -0.0110
  182SOPE   H3R20788   5.274   1.043   6.448 -0.0247 -0.2966  0.7168
  182SOPE   H3S20789   5.333   1.211   6.478 -0.0520  0.8836 -2.5203
  182SOPE   C2420790   5.453   1.057   6.573  0.3096 -0.1307 -0.0908
  182SOPE   H4R20791   5.489   0.961   6.531  0.2351  0.5944 -1.8576
  182SOPE   H4S20792   5.541   1.124   6.584  0.1335 -0.0209  0.7348
  182SOPE   C2520793   5.392   1.032   6.707 -0.3529 -0.3097 -0.1412
  182SOPE   H5R20794   5.349   1.129   6.739 -1.7175 -1.1735  0.7498
  182SOPE   H5S20795   5.318   0.949   6.709  1.8441 -2.3771  0.4481
  182SOPE   C2620796   5.501   1.023   6.820  0.2860  0.2268  0.4448
  182SOPE   H6R20797   5.563   0.934   6.801 -1.1507 -1.3534  2.6443
  182SOPE   H6S20798   5.564   1.115   6.818 -0.1023  0.5641  2.0786
  182SOPE   C2720799   5.428   1.008   6.961  0.4053 -0.3386 -0.4766
  182SOPE   H7R20800   5.382   1.107   6.981 -0.2454 -0.8221  0.4699
  182SOPE   H7S20801   5.346   0.934   6.949  0.7104 -0.8645  0.5432
  182SOPE   C2820802   5.540   1.000   7.067  0.4015 -0.3809 -0.6090
  182SOPE   H8R20803   5.630   0.939   7.042  1.7021  0.4640  1.7009
  182SOPE   H8S20804   5.586   1.101   7.070  0.4901 -0.3605  3.4263
  182SOPE   C2920805   5.479   0.970   7.202  0.3924 -0.4751  1.3317
  182SOPE   H9120806   5.389   0.908   7.212  0.0548 -0.3114 -0.3232
  182SOPE  C21020807   5.507   1.026   7.322  0.5803 -0.6764  0.7141
  182SOPE  H10120808   5.451   0.991   7.410  0.4481 -2.9281 -0.2029
  182SOPE  C21120809   5.603   1.137   7.335 -0.5328  0.3680  0.4163
  182SOPE  H11R20810   5.549   1.222   7.382 -2.6129 -0.5435 -0.1948
  182SOPE  H11S20811   5.646   1.170   7.237  2.6380 -2.4267  0.7096
  182SOPE  C21220812   5.714   1.090   7.434 -0.1583 -0.2860  0.0392
  182SOPE  H12R20813   5.784   1.174   7.453  0.0675 -0.0836 -1.5830
  182SOPE  H12S20814   5.776   1.012   7.384 -1.3090  0.1130 -2.0832
  182SOPE  C21320815   5.662   1.042   7.575 -0.7733  0.0856 -0.2102
  182SOPE  H13R20816   5.738   1.008   7.648  0.4430 -0.3167 -1.6104
  182SOPE  H13S20817   5.592   0.957   7.562 -0.9176 -0.3811  2.9382
  182SOPE  C21420818   5.594   1.166   7.649  0.0512 -0.1327 -0.1064
  182SOPE  H14R20819   5.524   1.219   7.582  0.2044  1.2359  0.7770
  182SOPE  H14S20820   5.666   1.246   7.674  0.0121  0.6906 -2.4010
  182SOPE  C21520821   5.520   1.123   7.777 -0.4672  0.8035  0.8093
  182SOPE  H15R20822   5.590   1.057   7.833 -0.7642  1.2516  1.7295
  182SOPE  H15S20823   5.447   1.044   7.748  2.9075 -2.9081  1.5614
  182SOPE  C21620824   5.466   1.226   7.875  0.3671  0.3023 -0.1256
  182SOPE  H16R20825   5.549   1.283   7.923  0.6799 -1.1901  1.1747
  182SOPE  H16S20826   5.413   1.163   7.949 -0.4151 -1.8333 -2.3879
  182SOPE  C21720827   5.368   1.327   7.826  0.1826 -0.4469 -0.5957
  182SOPE  H17R20828   5.424   1.377   7.744  0.7220  0.4396  0.2835
  182SOPE  H17S20829   5.331   1.391   7.909  0.5118 -2.2936  1.0301
  182SOPE  C21820830   5.246   1.261   7.772 -0.4602  0.0225  0.1655
  182SOPE  H18R20831   5.191   1.210   7.854 -2.7751  0.0491 -1.2702
  182SOPE  H18S20832   5.275   1.176   7.706 -1.9702 -0.1400 -0.3206
  182SOPE  H18T20833   5.188   1.326   7.704  2.9351  1.7943 -1.3042
  182SOPE   C3320834   5.880   0.691   6.660  0.0614 -0.6689  0.3528
  182SOPE   H3X20835   5.823   0.785   6.647  1.2286 -0.0038 -0.0981
  182SOPE   H3Y20836   5.977   0.729   6.701 -0.1523 -0.3028  0.5304
  182SOPE   C3420837   5.810   0.595   6.755 -0.3906 -0.3713  0.4110
  182SOPE   H4X20838   5.874   0.505   6.765  2.4183  1.4909  0.2708
  182SOPE   H4Y20839   5.713   0.553   6.720 -0.3963  0.4108 -0.5578
  182SOPE   C3520840   5.790   0.650   6.901  0.3884  0.4958 -0.7058
  182SOPE   H5X20841   5.734   0.565   6.946 -0.8774  0.6746 -1.8602
  182SOPE   H5Y20842   5.724   0.739   6.907 -0.6713 -0.3732  1.3348
  182SOPE   C3620843   5.922   0.674   6.982 -0.8681  0.2405 -0.2023
  182SOPE   H6X20844   5.979   0.751   6.925  2.3143 -0.8209  1.3208
  182SOPE   H6Y20845   5.999   0.596   6.964  0.4419  1.7077 -1.2696
  182SOPE   C3720846   5.909   0.717   7.125 -0.2827  0.0311  0.3828
  182SOPE   H7X20847   5.835   0.800   7.134  0.0557  0.5068 -0.9895
  182SOPE   H7Y20848   6.007   0.751   7.163 -0.3304  0.4523  0.1340
  182SOPE   C3820849   5.858   0.597   7.199  0.6085 -0.5752 -0.2413
  182SOPE   H8X20850   5.883   0.500   7.151 -0.9851 -1.2360  0.2019
  182SOPE   H8Y20851   5.748   0.609   7.205  0.4807 -2.2380  1.7025
  182SOPE   C3920852   5.903   0.582   7.343  0.2780 -0.3899  0.1523
  182SOPE   H9X20853   6.010   0.605   7.360  0.1593  1.0623 -0.8828
  182SOPE   H9Y20854   5.897   0.475   7.373  0.5285 -0.7758 -1.1372
  182SOPE  C31020855   5.829   0.669   7.444  0.1369 -0.3563 -0.8449
  182SOPE  H10X20856   5.735   0.613   7.466  0.7744 -0.2540  2.7024
  182SOPE  H10Y20857   5.809   0.772   7.406  2.8953 -0.0222 -1.6524
  182SOPE  C31120858   5.893   0.692   7.579 -0.0764  0.4778 -0.6401
  182SOPE  H11X20859   5.941   0.596   7.609  0.4425  0.5893 -1.1019
  182SOPE  H11Y20860   5.812   0.706   7.654  1.2993 -1.6791  1.3985
  182SOPE  C31220861   5.998   0.800   7.585 -1.1288 -0.3854  0.0989
  182SOPE  H12X20862   5.962   0.885   7.524  0.0412  0.7499  0.9391
  182SOPE  H12Y20863   6.085   0.759   7.529  0.4950  0.6074  1.7913
  182SOPE  C31320864   6.046   0.834   7.728  0.9246  0.4550  0.2668
  182SOPE  H13X20865   6.132   0.903   7.717  0.8267  0.5887  0.3415
  182SOPE  H13Y20866   6.099   0.745   7.769  1.7457 -0.4196 -2.5116
  182SOPE  C31420867   5.945   0.877   7.832 -0.0642 -0.5985 -0.8240
  182SOPE  H14X20868   5.855   0.814   7.817  1.2339 -2.8185  0.1867
  182SOPE  H14Y20869   5.918   0.984   7.828 -1.5696 -0.8142  1.4173
  182SOPE  C31520870   5.982   0.865   7.980 -0.1931  0.5627 -0.4941
  182SOPE  H15X20871   5.996   0.757   8.000 -2.2854  0.4504  0.6498
  182SOPE  H15Y20872   5.895   0.894   8.043  0.3491 -2.1626  1.6911
  182SOPE  C31620873   6.108   0.944   8.020  0.2937 -0.3232  0.1288
  182SOPE  H16X20874   6.092   1.054   8.021  1.7324  0.0360 -3.1310
  182SOPE  H16Y20875   6.189   0.915   7.950 -1.3184 -0.9276 -1.5753
  182SOPE  C31720876   6.159   0.900   8.156  0.1392 -0.0412  0.3700
  182SOPE  H17X20877   6.192   0.997   8.199  2.2461  0.0041 -1.1509
  182SOPE  H17Y20878   6.240   0.825   8.139 -1.2832 -1.5812  0.1752
  182SOPE  C31820879   6.066   0.827   8.250 -0.1965 -0.5104  0.2831
  182SOPE  H18X20880   6.105   0.825   8.354 -1.9027 -1.9893  0.9334
  182SOPE  H18Y20881   6.043   0.721   8.227  0.0789 -1.0117  2.1725
  182SOPE  H18Z20882   5.968   0.879   8.256 -0.1229 -0.3868  0.4341
  183SOPE     N20883   2.713   5.400   5.387 -0.2637  0.6721 -0.4978
  183SOPE   HN120884   2.811   5.397   5.422  0.0527  0.1629 -1.3887
  183SOPE   HN220885   2.729   5.384   5.285  2.8911 -0.2631  0.0244
  183SOPE   HN320886   2.696   5.502   5.401  0.0096  0.4137  2.1058
  183SOPE   C1220887   2.607   5.325   5.464 -0.1373  1.1896  0.1235
  183SOPE  H12A20888   2.617   5.228   5.412  0.8897  2.1270 -1.5155
  183SOPE  H12B20889   2.508   5.367   5.435 -0.2085  3.3242  3.0431
  183SOPE   C1120890   2.632   5.304   5.618  0.8084  0.2608 -0.3517
  183SOPE  H11A20891   2.568   5.221   5.655  1.6609 -0.3856 -0.2805
  183SOPE  H11B20892   2.612   5.400   5.671  0.2184 -0.3845  0.6246
  183SOPE     P20893   2.841   5.299   5.770 -0.2236  0.2244 -0.2135
  183SOPE   O1320894   2.819   5.438   5.820  0.3267  0.0115 -0.0281
  183SOPE   O1420895   2.983   5.265   5.747  0.1359  0.4071 -0.1429
  183SOPE   O1220896   2.766   5.268   5.631 -0.7207 -0.7541  0.2246
  183SOPE   O1120897   2.792   5.197   5.878 -0.2367 -0.2103  0.0340
  183SOPE    C120898   2.658   5.208   5.926 -0.1698  0.0303 -0.3186
  183SOPE    HA20899   2.620   5.105   5.906 -1.2657  0.9462 -3.5850
  183SOPE    HB20900   2.595   5.281   5.870  0.7874  1.2854  0.2038
  183SOPE    C220901   2.643   5.248   6.074  0.2157 -0.3746 -0.0692
  183SOPE    HS20902   2.647   5.359   6.074 -1.5377 -0.1558 -3.7971
  183SOPE   O2120903   2.736   5.174   6.159  0.6972  0.0784 -0.0705
  183SOPE   C2120904   2.831   5.247   6.207  0.0627  0.0992 -0.2845
  183SOPE   O2220905   2.850   5.364   6.194  0.3916  0.4813  0.0346
  183SOPE   C2220906   2.925   5.154   6.285 -0.9233 -0.1157 -0.3420
  183SOPE   H2R20907   3.014   5.127   6.224  1.7402 -1.8275  3.8551
  183SOPE   H2S20908   2.863   5.073   6.328  1.1357 -1.4625  0.2606
  183SOPE    C320909   2.500   5.214   6.118 -0.7151 -0.2442  0.0344
  183SOPE    HX20910   2.481   5.105   6.109  4.5084 -1.2372 -2.4150
  183SOPE    HY20911   2.423   5.264   6.054 -0.4643  1.2877  0.8826
  183SOPE   O3120912   2.486   5.264   6.255  0.4679  0.1882 -0.3200
  183SOPE   C3120913   2.462   5.392   6.271 -0.2034  0.3099  0.3794
  183SOPE   O3220914   2.463   5.471   6.179  0.2131  0.3882 -0.2797
  183SOPE   C3220915   2.428   5.414   6.418 -0.1012  0.2770 -0.1119
  183SOPE   H2X20916   2.519   5.375   6.468  1.3529  2.7229 -0.7158
  183SOPE   H2Y20917   2.336   5.352   6.427  0.3205 -0.4420 -0.5719
  183SOPE   C2320918   2.988   5.240   6.399 -0.1996  0.8728  0.0397
  183SOPE   H3R20919   3.046   5.325   6.358 -0.3874 -0.0882 -2.4090
  183SOPE   H3S20920   3.066   5.187   6.457 -0.5486 -0.8269 -0.9660
  183SOPE   C2420921   2.896   5.294   6.511  0.2210  0.1690 -0.4902
  183SOPE   H4R20922   2.860   5.394   6.480 -0.1569 -0.4857 -2.3136
  183SOPE   H4S20923   2.806   5.228   6.506  2.0670 -2.4280 -2.5532
  183SOPE   C2520924   2.962   5.294   6.648  0.2920  0.3642  0.1149
  183SOPE   H5R20925   3.005   5.193   6.667 -2.7959 -1.0142  0.3093
  183SOPE   H5S20926   3.043   5.369   6.634 -0.0007  0.7166  0.3098
  183SOPE   C2620927   2.861   5.323   6.758  0.1268 -0.0750 -0.2500
  183SOPE   H6R20928   2.806   5.418   6.737  2.0430  1.6787  2.0587
  183SOPE   H6S20929   2.781   5.247   6.762 -0.1244  0.2492  1.8423
  183SOPE   C2720930   2.933   5.350   6.900  0.0997 -0.5953  0.5532
  183SOPE   H7R20931   2.995   5.261   6.926  0.0666 -0.6632  0.4010
  183SOPE   H7S20932   2.993   5.442   6.886  0.1905 -0.6588  0.5252
  183SOPE   C2820933   2.837   5.378   7.014  0.0013  0.0418  0.1547
  183SOPE   H8R20934   2.900   5.413   7.098 -1.3382  1.8159  0.4839
  183SOPE   H8S20935   2.783   5.468   6.978 -0.1541 -0.3508 -0.6396
  183SOPE   C2920936   2.744   5.260   7.047 -0.5370  0.6605  0.6489
  183SOPE   H9120937   2.667   5.238   6.971 -1.9372 -1.3422  2.5249
  183SOPE  C21020938   2.752   5.188   7.161 -0.1195 -0.3326 -0.2336
  183SOPE  H10120939   2.684   5.102   7.168 -0.1942 -0.2640 -0.1192
  183SOPE  C21120940   2.852   5.206   7.273 -0.4194  0.0390 -0.6508
  183SOPE  H11R20941   2.948   5.253   7.244  0.0337 -1.1413 -1.1506
  183SOPE  H11S20942   2.893   5.112   7.318 -0.7819  0.2779  0.2049
  183SOPE  C21220943   2.796   5.289   7.388 -0.0301  0.3011 -0.8198
  183SOPE  H12R20944   2.758   5.386   7.350  0.8419  0.6699 -0.7673
  183SOPE  H12S20945   2.865   5.314   7.471 -0.8787  1.8581 -0.5400
  183SOPE  C21320946   2.671   5.232   7.460  0.4857 -0.0388 -0.1536
  183SOPE  H13R20947   2.589   5.231   7.385 -0.3286  1.9474  0.6538
  183SOPE  H13S20948   2.640   5.305   7.538  1.7643 -0.5719  0.8905
  183SOPE  C21420949   2.693   5.086   7.512 -0.0560  0.2836  0.5597
  183SOPE  H14R20950   2.786   5.089   7.572 -0.8170 -2.6320  2.0928
  183SOPE  H14S20951   2.703   5.011   7.430  0.6544  0.7320  0.2288
  183SOPE  C21520952   2.593   5.035   7.618 -0.1142  0.5222  0.7867
  183SOPE  H15R20953   2.597   4.925   7.613  2.3953  0.5755  0.5378
  183SOPE  H15S20954   2.490   5.070   7.596 -0.2092 -0.3129 -0.1528
  183SOPE  C21620955   2.634   5.083   7.758 -0.5220  0.6493  0.7390
  183SOPE  H16R20956   2.626   5.194   7.764 -1.9329  0.7775 -1.9115
  183SOPE  H16S20957   2.739   5.053   7.773 -0.6603 -0.3163 -0.1231
  183SOPE  C21720958   2.555   5.020   7.872  0.8445  0.0479 -0.2728
  183SOPE  H17R20959   2.551   4.912   7.846 -2.0339  0.0305 -0.0664
  183SOPE  H17S20960   2.455   5.067   7.871  1.2621  1.1140  2.1160
  183SOPE  C21820961   2.619   5.036   8.011 -0.0321  0.3793  0.0178
  183SOPE  H18R20962   2.719   4.987   8.016 -0.2627 -0.0964  0.0273
  183SOPE  H18S20963   2.561   4.969   8.079 -1.6206 -0.1548 -1.7805
  183SOPE  H18T20964   2.620   5.142   8.045 -2.8269  0.8621 -1.1651
  183SOPE   C3320965   2.403   5.557   6.475 -0.1302  0.2016  1.3316
  183SOPE   H3X20966   2.309   5.607   6.445  0.1210 -0.8283 -1.5437
  183SOPE   H3Y20967   2.475   5.619   6.418 -0.9340 -0.4370 -0.4361
  183SOPE   C3420968   2.413   5.556   6.628 -0.1611  0.1068 -0.5986
  183SOPE   H4X20969   2.506   5.501   6.656 -1.0738 -1.6809 -0.9550
  183SOPE   H4Y20970   2.317   5.515   6.666  1.2659 -0.8456  2.2574
  183SOPE   C3520971   2.415   5.695   6.695 -0.2266 -0.2472 -0.2630
  183SOPE   H5X20972   2.339   5.762   6.649 -0.1973 -1.1633 -1.7007
  183SOPE   H5Y20973   2.502   5.761   6.674 -1.8677  1.7565 -1.1796
  183SOPE   C3620974   2.382   5.691   6.843 -0.5401  0.1730 -0.1269
  183SOPE   H6X20975   2.324   5.600   6.869 -1.7093  0.3612 -1.9013
  183SOPE   H6Y20976   2.340   5.792   6.866 -0.5483  0.0634  0.3430
  183SOPE   C3720977   2.524   5.680   6.913 -0.0313  0.6111  0.0823
  183SOPE   H7X20978   2.593   5.753   6.866  0.9796 -0.0870  0.4555
  183SOPE   H7Y20979   2.577   5.584   6.892 -1.5521 -0.3498  0.4504
  183SOPE   C3820980   2.526   5.693   7.063  0.4161 -0.0770  0.0272
  183SOPE   H8X20981   2.530   5.801   7.089 -0.2720 -0.6648  2.9397
  183SOPE   H8Y20982   2.632   5.672   7.085  1.1177  2.4925 -0.5162
  183SOPE   C3920983   2.424   5.597   7.133 -0.2765 -0.1673 -1.0700
  183SOPE   H9X20984   2.450   5.491   7.111  2.5735  0.0778  0.6323
  183SOPE   H9Y20985   2.322   5.624   7.097 -1.5832  0.9291  2.9952
  183SOPE  C31020986   2.416   5.633   7.284 -0.1465  0.5651  0.3375
  183SOPE  H10X20987   2.333   5.570   7.323  0.0143 -0.0880 -0.3325
  183SOPE  H10Y20988   2.389   5.740   7.293 -2.2458  0.2976 -1.8859
  183SOPE  C31120989   2.543   5.607   7.358 -0.5304  0.6758  0.0417
  183SOPE  H11X20990   2.614   5.687   7.327  0.8050  0.0936  1.4699
  183SOPE  H11Y20991   2.592   5.511   7.328  1.1032  1.3034  0.5660
  183SOPE  C31220992   2.510   5.598   7.506 -0.6121  0.2770 -0.9345
  183SOPE  H12X20993   2.470   5.496   7.525  1.1400 -0.2414  0.1970
  183SOPE  H12Y20994   2.421   5.664   7.515 -2.2165 -1.9595  0.7612
  183SOPE  C31320995   2.629   5.642   7.589 -0.3564 -0.4336 -0.7426
  183SOPE  H13X20996   2.670   5.739   7.552 -1.3511  0.6890  0.9602
  183SOPE  H13Y20997   2.712   5.568   7.576  0.5489  0.1393  1.3052
  183SOPE  C31420998   2.611   5.647   7.739  1.1013 -0.2724  1.4344
  183SOPE  H14X20999   2.578   5.548   7.778  1.7047 -0.6158  1.1028
  183SOPE  H14Y21000   2.529   5.713   7.774  1.9070  1.9408 -0.6022
  183SOPE  C31521001   2.736   5.694   7.809 -0.3333  0.1656 -0.0970
  183SOPE  H15X21002   2.753   5.797   7.771 -1.9238  0.2403 -0.6588
  183SOPE  H15Y21003   2.824   5.638   7.771  0.3720  1.9930 -1.2609
  183SOPE  C31621004   2.742   5.677   7.961  0.0874 -1.2495  0.3222
  183SOPE  H16X21005   2.740   5.568   7.984 -2.2593 -1.5892 -1.1853
  183SOPE  H16Y21006   2.649   5.725   7.999  0.6329 -0.1520  0.3059
  183SOPE  C31721007   2.867   5.755   8.011  0.0712 -0.0887  0.4313
  183SOPE  H17X21008   2.953   5.754   7.941  0.0470 -1.0196  0.3921
  183SOPE  H17Y21009   2.889   5.708   8.109 -0.3464 -2.1211 -0.3777
  183SOPE  C31821010   2.833   5.905   8.038  0.1924  0.0038  0.3616
  183SOPE  H18X21011   2.787   5.959   7.952 -2.4927 -2.2588  0.2149
  183SOPE  H18Y21012   2.918   5.968   8.070 -0.9171  1.8191 -0.0871
  183SOPE  H18Z21013   2.750   5.905   8.112  0.1313 -0.2511  0.2930
  184SOPE     N21014   2.501   6.355   5.358 -0.9464 -0.1123 -0.1084
  184SOPE   HN121015   2.581   6.420   5.367 -1.2278 -0.0486  3.5460
  184SOPE   HN221016   2.508   6.295   5.443  0.3386 -0.8787 -0.7084
  184SOPE   HN321017   2.516   6.287   5.280 -0.8397 -0.2164  0.0019
  184SOPE   C1221018   2.369   6.418   5.332  0.6448  0.1525 -0.3804
  184SOPE  H12A21019   2.297   6.337   5.309  1.3887 -0.4320 -0.6950
  184SOPE  H12B21020   2.383   6.482   5.242 -1.0510  1.3280  0.1350
  184SOPE   C1121021   2.341   6.514   5.450 -0.3589  0.0577 -0.3638
  184SOPE  H11A21022   2.325   6.452   5.540 -3.1534  2.7335  1.1757
  184SOPE  H11B21023   2.241   6.562   5.444 -2.1966 -3.4673 -0.9405
  184SOPE     P21024   2.430   6.769   5.450  0.0309 -0.1645  0.1759
  184SOPE   O1321025   2.394   6.818   5.310 -0.0752  0.8086 -0.3071
  184SOPE   O1421026   2.553   6.835   5.499  0.2001  0.5291  0.2031
  184SOPE   O1221027   2.443   6.610   5.472 -0.3662  0.0623 -0.1187
  184SOPE   O1121028   2.304   6.807   5.540  0.3228  0.0361  0.7195
  184SOPE    C121029   2.306   6.806   5.683 -0.0087 -0.0147 -0.5705
  184SOPE    HA21030   2.218   6.858   5.727 -0.0403  0.1084 -0.7765
  184SOPE    HB21031   2.402   6.853   5.712 -0.3834  0.9952 -0.9060
  184SOPE    C221032   2.293   6.666   5.741 -0.4350  0.1804  0.1527
  184SOPE    HS21033   2.375   6.607   5.694  0.7562  2.2462 -0.4805
  184SOPE   O2121034   2.166   6.603   5.699 -0.2905  0.2248  0.2213
  184SOPE   C2121035   2.150   6.476   5.734  0.6577  0.1296  0.0056
  184SOPE   O2221036   2.235   6.390   5.753 -0.0767 -0.1203 -0.1478
  184SOPE   C2221037   1.998   6.451   5.742 -0.4820 -0.0999 -0.2460
  184SOPE   H2R21038   1.971   6.432   5.636 -0.8630  3.0767 -0.8078
  184SOPE   H2S21039   1.945   6.540   5.781 -1.2181 -1.2492  1.5245
  184SOPE    C321040   2.313   6.673   5.899  0.4579  0.5643  0.5632
  184SOPE    HX21041   2.221   6.686   5.959 -0.7155  0.7506 -1.2044
  184SOPE    HY21042   2.367   6.766   5.925  1.9313  0.0784 -0.6022
  184SOPE   O3121043   2.385   6.552   5.938  0.0717 -0.5529 -0.4077
  184SOPE   C3121044   2.402   6.533   6.067  0.0923 -0.3096  0.5842
  184SOPE   O3221045   2.374   6.610   6.154  0.4955 -0.1230  0.2173
  184SOPE   C3221046   2.445   6.383   6.087 -0.4226  0.8048 -0.4544
  184SOPE   H2X21047   2.548   6.373   6.047  0.7458  1.9584  2.0906
  184SOPE   H2Y21048   2.365   6.320   6.042  0.6762  0.1637 -1.5856
  184SOPE   C2321049   1.954   6.322   5.817  0.4364  0.4993  0.1375
  184SOPE   H3R21050   2.017   6.239   5.778  1.1724  0.0234  2.2205
  184SOPE   H3S21051   1.845   6.318   5.796  0.3186  1.5568  0.5248
  184SOPE   C2421052   1.954   6.325   5.966  0.2232 -0.5487  0.0289
  184SOPE   H4R21053   2.052   6.357   6.008 -0.0995 -0.5071  0.7674
  184SOPE   H4S21054   1.871   6.392   5.995 -0.6375 -1.8122  0.5755
  184SOPE   C2521055   1.907   6.193   6.021 -0.0136  0.8961 -0.3700
  184SOPE   H5R21056   1.824   6.146   5.964 -0.3864  0.1977  0.7172
  184SOPE   H5S21057   1.991   6.121   6.009 -1.8426 -1.6665  1.3248
  184SOPE   C2621058   1.863   6.200   6.172 -0.0087  0.1760  0.5521
  184SOPE   H6R21059   1.787   6.282   6.176  0.6033  0.7857 -0.0766
  184SOPE   H6S21060   1.826   6.100   6.205 -1.1185  0.0208 -1.0560
  184SOPE   C2721061   1.963   6.258   6.265  0.5053  0.5237  0.2990
  184SOPE   H7R21062   2.007   6.355   6.234  0.7113  0.5878  0.7767
  184SOPE   H7S21063   1.922   6.274   6.367  3.5541 -0.1864  1.7707
  184SOPE   C2821064   2.093   6.173   6.282 -0.1378 -1.1276  0.4517
  184SOPE   H8R21065   2.147   6.200   6.189  0.0354  2.1450  1.3786
  184SOPE   H8S21066   2.156   6.224   6.358 -1.4841  1.0346  0.2107
  184SOPE   C2921067   2.077   6.037   6.335 -0.4758  0.0047 -0.4120
  184SOPE   H9121068   2.078   5.950   6.267 -0.2703 -1.4577  1.3659
  184SOPE  C21021069   2.050   6.009   6.463  0.0007 -0.6135  0.0296
  184SOPE  H10121070   2.050   5.905   6.496  3.0978 -0.4340  0.9033
  184SOPE  C21121071   2.026   6.111   6.575  0.1592 -0.4609  0.0686
  184SOPE  H11R21072   1.918   6.131   6.597  0.3451  2.0382 -0.9025
  184SOPE  H11S21073   2.071   6.209   6.547 -1.8722  1.3550  2.5530
  184SOPE  C21221074   2.099   6.072   6.711  0.6964  0.0082 -0.6353
  184SOPE  H12R21075   2.205   6.059   6.682  0.8002  0.9433 -0.6829
  184SOPE  H12S21076   2.058   5.978   6.755 -2.0769  0.3415 -2.2461
  184SOPE  C21321077   2.096   6.182   6.822 -1.1287 -0.5033 -0.0107
  184SOPE  H13R21078   1.995   6.228   6.812 -0.0843  1.8162 -0.5876
  184SOPE  H13S21079   2.183   6.245   6.793 -0.3445 -0.6636  1.8325
  184SOPE  C21421080   2.115   6.128   6.962  0.3319  0.6317 -0.6440
  184SOPE  H14R21081   2.205   6.066   6.980 -1.0035 -0.7908  1.6806
  184SOPE  H14S21082   2.029   6.059   6.979  1.9625 -2.1225 -2.8213
  184SOPE  C21521083   2.125   6.240   7.063  0.5595 -0.3254  0.6628
  184SOPE  H15R21084   2.052   6.321   7.040 -0.7060 -1.2278  1.3558
  184SOPE  H15S21085   2.229   6.274   7.045  0.8649 -1.5537 -0.0034
  184SOPE  C21621086   2.119   6.183   7.204 -0.1010 -0.0493  0.3930
  184SOPE  H16R21087   2.166   6.083   7.216 -0.8359 -0.7170 -1.7676
  184SOPE  H16S21088   2.015   6.162   7.233 -0.1704  0.6375  0.6674
  184SOPE  C21721089   2.166   6.282   7.318  0.0104  0.1518  0.4271
  184SOPE  H17R21090   2.089   6.362   7.304 -3.3256 -2.9483 -0.5530
  184SOPE  H17S21091   2.262   6.326   7.285  1.9431 -0.1931  4.8600
  184SOPE  C21821092   2.171   6.228   7.469  0.1332 -0.0212  0.2724
  184SOPE  H18R21093   2.231   6.135   7.476  2.2204  1.2205 -0.0106
  184SOPE  H18S21094   2.070   6.215   7.513  0.4780 -1.5904  0.6548
  184SOPE  H18T21095   2.213   6.306   7.536 -2.7690  0.9588  1.0927
  184SOPE   C3321096   2.461   6.355   6.234 -0.2079  0.1586  0.1925
  184SOPE   H3X21097   2.370   6.391   6.286 -0.0103 -0.8460  1.2721
  184SOPE   H3Y21098   2.550   6.412   6.269 -0.7756  1.1534  0.0384
  184SOPE   C3421099   2.473   6.200   6.261  0.3730 -0.4664 -0.3795
  184SOPE   H4X21100   2.568   6.151   6.232 -0.6269 -2.0490 -1.1092
  184SOPE   H4Y21101   2.392   6.160   6.196 -0.1849  2.0780 -1.3489
  184SOPE   C3521102   2.423   6.152   6.397  0.7393 -0.5100 -0.4366
  184SOPE   H5X21103   2.368   6.056   6.388 -1.9619  0.9908 -0.9565
  184SOPE   H5Y21104   2.344   6.225   6.426  0.2048 -0.7956 -1.1609
  184SOPE   C3621105   2.532   6.149   6.507  0.0446  0.2066  0.0216
  184SOPE   H6X21106   2.579   6.250   6.518 -0.6149  0.6527 -1.0588
  184SOPE   H6Y21107   2.619   6.091   6.469  0.9822  1.3183  0.4122
  184SOPE   C3721108   2.474   6.116   6.646  0.0281  0.1990 -0.0148
  184SOPE   H7X21109   2.429   6.014   6.644  1.5443 -0.4860 -0.6933
  184SOPE   H7Y21110   2.399   6.197   6.659 -0.7084 -0.2856 -1.0730
  184SOPE   C3821111   2.569   6.121   6.769  0.1605  0.2014 -0.1392
  184SOPE   H8X21112   2.628   6.215   6.756  1.3358 -0.4171  0.5728
  184SOPE   H8Y21113   2.645   6.041   6.774  2.0695  1.9306  0.0639
  184SOPE   C3921114   2.500   6.128   6.905 -0.3758  0.4898 -0.1074
  184SOPE   H9X21115   2.454   6.027   6.895 -0.4294  0.6268 -1.3597
  184SOPE   H9Y21116   2.424   6.206   6.925  0.4152  1.5039 -0.9241
  184SOPE  C31021117   2.600   6.119   7.024  0.1930  0.4733  0.2129
  184SOPE  H10X21118   2.652   6.215   7.044  1.5900 -0.5432  1.7102
  184SOPE  H10Y21119   2.677   6.041   7.007  0.2135  0.5556 -0.0751
  184SOPE  C31121120   2.533   6.091   7.161 -0.1292 -0.6307 -0.5233
  184SOPE  H11X21121   2.462   6.006   7.156 -0.0390 -1.1000  3.4223
  184SOPE  H11Y21122   2.477   6.181   7.193  1.6029  0.4251 -0.3609
  184SOPE  C31221123   2.639   6.049   7.266 -0.2610  0.1555  0.5253
  184SOPE  H12X21124   2.709   6.135   7.278  0.7701 -0.4079 -1.0859
  184SOPE  H12Y21125   2.689   5.960   7.222 -2.1738 -0.9179  0.4422
  184SOPE  C31321126   2.574   5.995   7.392 -0.9476 -0.1608 -0.3044
  184SOPE  H13X21127   2.551   5.887   7.375  0.9341 -0.6684  0.1410
  184SOPE  H13Y21128   2.481   6.053   7.411 -0.2953  1.0605 -0.7405
  184SOPE  C31421129   2.668   6.010   7.512 -0.3669  0.2256 -0.1156
  184SOPE  H14X21130   2.773   5.974   7.500 -0.0923  0.6666  0.8344
  184SOPE  H14Y21131   2.619   5.946   7.588  2.2497 -2.9608 -0.8608
  184SOPE  C31521132   2.670   6.149   7.566 -0.0980  0.4097  0.8385
  184SOPE  H15X21133   2.565   6.184   7.580 -0.2921  0.0859  0.2657
  184SOPE  H15Y21134   2.713   6.216   7.488  0.2007 -1.3132 -0.5581
  184SOPE  C31621135   2.742   6.163   7.700 -0.5539 -0.0792 -0.4551
  184SOPE  H16X21136   2.851   6.180   7.690 -0.6074  1.9702  1.6351
  184SOPE  H16Y21137   2.726   6.067   7.756  2.5461 -1.5237 -1.8207
  184SOPE  C31721138   2.689   6.280   7.779 -0.1756  0.3718  0.2261
  184SOPE  H17X21139   2.578   6.272   7.777 -0.1325 -0.1688 -0.2613
  184SOPE  H17Y21140   2.705   6.379   7.730  1.0603 -0.4088 -1.0053
  184SOPE  C31821141   2.745   6.291   7.922 -0.7263 -0.3338 -0.3322
  184SOPE  H18X21142   2.752   6.394   7.961 -1.1040 -0.4646  0.0850
  184SOPE  H18Y21143   2.851   6.257   7.925 -0.3036  0.9433 -0.0872
  184SOPE  H18Z21144   2.695   6.217   7.988  0.4220 -0.9903 -0.1603
  185SAPI   C1221145   0.336   1.818  10.084 -0.5653 -0.4262  0.1671
  185SAPI    H221146   0.414   1.889  10.049 -1.3968 -0.5449 -2.1243
  185SAPI    O221147   0.292   1.730   9.986 -0.0438  0.8933 -0.8425
  185SAPI   HO221148   0.310   1.771   9.901 -1.5877 -1.5388 -2.4907
  185SAPI   C1321149   0.400   1.739  10.197  0.0839 -1.1982 -0.1281
  185SAPI    H321150   0.406   1.811  10.281 -2.6059 -0.0575 -0.8311
  185SAPI    O321151   0.531   1.683  10.165  0.1363 -0.0844  0.2329
  185SAPI   HO321152   0.525   1.634  10.083 -0.2014  0.8572 -0.3295
  185SAPI   C1421153   0.304   1.645  10.270  0.0306  0.0211 -0.5429
  185SAPI    H421154   0.289   1.562  10.198 -0.1894 -1.0984  0.7444
  185SAPI    O421155   0.351   1.579  10.384  0.6731  0.5583  0.1423
  185SAPI   HO421156   0.394   1.495  10.368 -3.6923 -1.8861 -0.2825
  185SAPI   C1521157   0.168   1.701  10.293  0.1060 -0.0688  0.1888
  185SAPI    H521158   0.172   1.742  10.396  1.3751  0.6036 -0.1045
  185SAPI    O521159   0.071   1.602  10.277  0.3167 -0.8120 -0.0350
  185SAPI   HO521160   0.004   1.610  10.346 -1.5274  3.5168 -2.0222
  185SAPI   C1621161   0.120   1.830  10.208 -0.2005  0.7290  0.0023
  185SAPI    H621162   0.044   1.794  10.135 -0.2967  0.9358 -0.0019
  185SAPI    O621163   0.028   1.913  10.283 -0.0866  0.7844 -0.2921
  185SAPI   HO621164  -0.063   1.901  10.253 -0.4995  0.4356  1.0635
  185SAPI   C1121165   0.229   1.912  10.134 -0.1523  0.0548  0.2571
  185SAPI    H121166   0.275   1.982  10.206  2.9129  0.0181 -1.4929
  185SAPI     P21167   0.236   2.134   9.998  0.3805 -0.2190  0.3519
  185SAPI   O1321168   0.372   2.119   9.946  0.5701  0.5934  0.1909
  185SAPI   O1421169   0.207   2.236  10.102 -0.2394  0.4484 -0.2570
  185SAPI   O1221170   0.167   1.987  10.032  0.1230 -0.1682 -0.2961
  185SAPI   O1121171   0.158   2.171   9.870 -0.4943  0.1401 -0.1903
  185SAPI    C121172   0.114   2.074   9.770  0.7877 -0.5578 -0.7315
  185SAPI    HA21173   0.170   1.978   9.769 -1.7739 -2.1519 -0.2818
  185SAPI    HB21174   0.007   2.055   9.788  0.6083  1.3318  0.4528
  185SAPI    C221175   0.125   2.144   9.635 -0.2128 -0.6085 -0.3594
  185SAPI    HS21176   0.072   2.242   9.632  0.8517 -0.0100  0.2590
  185SAPI   O2121177   0.070   2.054   9.532 -0.0891 -0.1836 -0.4001
  185SAPI   C2121178  -0.068   2.043   9.525  0.1312 -0.1481 -0.0676
  185SAPI   O2221179  -0.142   2.117   9.592  0.0367 -0.1042 -0.1525
  185SAPI   C2221180  -0.113   1.925   9.430  0.1570  0.0235 -0.1754
  185SAPI   H2R21181  -0.055   1.928   9.335  0.9628  2.7473  0.2962
  185SAPI   H2S21182  -0.082   1.831   9.479 -1.6089 -0.6297 -0.2336
  185SAPI    C321183   0.270   2.189   9.603  0.4335  0.6043 -0.7586
  185SAPI    HX21184   0.338   2.104   9.624 -0.2312  0.4545  1.0042
  185SAPI    HY21185   0.308   2.269   9.669 -0.0974 -0.5032  0.9664
  185SAPI   O3121186   0.284   2.223   9.463  0.0998  0.1874 -0.7013
  185SAPI   C3121187   0.268   2.353   9.442  0.8771 -0.2414  0.0037
  185SAPI   O3221188   0.225   2.434   9.526  0.5094  0.2436 -0.1994
  185SAPI   C3221189   0.328   2.394   9.312  0.0817 -0.3940 -0.1910
  185SAPI   H2X21190   0.416   2.331   9.287  0.8722  0.4417  0.4000
  185SAPI   H2Y21191   0.356   2.502   9.320  2.4837 -0.9663  0.0333
  185SAPI   C2321192  -0.256   1.939   9.394  0.5875 -0.2872 -0.4921
  185SAPI   H3R21193  -0.324   1.951   9.482  1.0803  0.7314 -0.2340
  185SAPI   H3S21194  -0.285   1.839   9.355 -0.9678 -0.1965  0.3485
  185SAPI   C2421195  -0.296   2.053   9.280  0.2250  0.5542  0.0737
  185SAPI   H4R21196  -0.404   2.041   9.254  0.7523  0.0760 -2.1845
  185SAPI   H4S21197  -0.230   2.023   9.195  0.2343  1.5345 -0.2744
  185SAPI   C2521198  -0.281   2.197   9.324  0.2953 -0.4095 -0.2200
  185SAPI   H5R21199  -0.316   2.223   9.425  0.5950 -0.1871 -0.1708
  185SAPI   C2621200  -0.206   2.288   9.261 -0.6102  0.0092  0.1228
  185SAPI   H6R21201  -0.202   2.391   9.301 -2.7191 -0.0471  0.5458
  185SAPI   C2721202  -0.145   2.275   9.119  0.4668  0.2548 -0.1441
  185SAPI   H7R21203  -0.063   2.199   9.121  2.5234  2.3139 -1.3092
  185SAPI   H7S21204  -0.095   2.370   9.091  1.7984 -0.5739 -0.6965
  185SAPI   C2821205  -0.239   2.243   9.006  0.2352 -0.3142 -0.1462
  185SAPI   H8R21206  -0.331   2.188   9.031  0.8821 -0.7482  1.3949
  185SAPI   C2921207  -0.221   2.275   8.875 -1.0753  0.1928  0.0543
  185SAPI   H9R21208  -0.303   2.267   8.802  1.2778 -0.2182 -2.7021
  185SAPI  C21021209  -0.102   2.346   8.813 -0.5306 -0.0598 -0.0737
  185SAPI  H10R21210  -0.047   2.401   8.892 -1.2087  1.8181 -0.8576
  185SAPI  H10S21211  -0.142   2.424   8.745  5.1582  3.0737 -0.3928
  185SAPI  C21121212  -0.016   2.239   8.756  0.0836  0.6121  0.0151
  185SAPI  H11R21213   0.039   2.176   8.827  3.7101  1.0251 -2.1683
  185SAPI  C21221214   0.019   2.234   8.620  0.0148 -0.0860 -0.3225
  185SAPI  H12R21215   0.089   2.158   8.584 -0.3863 -1.1785  1.1143
  185SAPI  C21321216  -0.054   2.315   8.520  0.0871  0.2150  0.2077
  185SAPI  H13R21217  -0.039   2.422   8.548  0.6159 -0.1799  1.4942
  185SAPI  H13S21218  -0.161   2.287   8.520  0.2325 -0.3899  1.0984
  185SAPI  C21421219  -0.010   2.297   8.377  0.0129  1.1241 -0.7073
  185SAPI  H14R21220   0.081   2.239   8.356 -1.2355 -1.3334  0.2682
  185SAPI  C21521221  -0.094   2.324   8.277 -0.3887  0.0099 -0.6971
  185SAPI  H15R21222  -0.072   2.317   8.170 -0.3143  3.3019 -1.0080
  185SAPI  C21621223  -0.221   2.409   8.305  0.4454  0.4391 -0.3268
  185SAPI  H16R21224  -0.212   2.471   8.396  0.7157 -0.0402 -0.0212
  185SAPI  H16S21225  -0.307   2.340   8.323  1.7183 -1.2469 -0.4347
  185SAPI  C21721226  -0.254   2.495   8.183 -0.0977  0.0684  0.7028
  185SAPI  H17R21227  -0.176   2.571   8.163 -3.1387  3.3297  0.2413
  185SAPI  H17S21228  -0.345   2.551   8.213  2.7871  4.1149  2.9259
  185SAPI  C21821229  -0.291   2.420   8.054  0.1117 -0.4146 -0.4723
  185SAPI  H18R21230  -0.388   2.372   8.076 -1.0974  1.2941 -1.8270
  185SAPI  H18S21231  -0.205   2.352   8.033 -0.2558 -0.7796 -0.8140
  185SAPI  C21921232  -0.316   2.526   7.942 -0.4209 -0.0076 -0.6123
  185SAPI  H19R21233  -0.218   2.573   7.921 -0.0063 -0.3347  0.5113
  185SAPI  H19S21234  -0.395   2.594   7.982 -0.0002 -0.4824  1.1142
  185SAPI  C22021235  -0.362   2.456   7.811 -0.4224 -0.7489  0.1914
  185SAPI  H20R21236  -0.407   2.522   7.733  1.7679 -1.9788 -2.2312
  185SAPI  H20S21237  -0.429   2.375   7.847  0.2942 -1.6488 -0.4635
  185SAPI  H20T21238  -0.270   2.424   7.757  0.9430  3.5960 -0.5264
  185SAPI   C3321239   0.219   2.382   9.204 -0.2540 -0.3680 -0.1650
  185SAPI   H3X21240   0.126   2.433   9.237 -0.7900 -2.8435  2.6675
  185SAPI   H3Y21241   0.198   2.273   9.192 -0.6997 -0.3289  0.2368
  185SAPI   C3421242   0.269   2.442   9.075 -0.3711  0.2923 -0.1420
  185SAPI   H4X21243   0.314   2.541   9.099 -0.8282  0.3963  0.2912
  185SAPI   H4Y21244   0.181   2.449   9.008  1.0484 -0.7838 -2.2248
  185SAPI   C3521245   0.375   2.349   9.006  0.1512  0.1836 -0.4350
  185SAPI   H5X21246   0.338   2.244   9.008 -1.8121  0.8325  0.5401
  185SAPI   H5Y21247   0.463   2.353   9.074 -1.2494  0.1625  1.4564
  185SAPI   C3621248   0.418   2.400   8.866  0.4749  0.6671  0.0364
  185SAPI   H6X21249   0.516   2.356   8.839  0.2509 -0.2908  0.7281
  185SAPI   H6Y21250   0.425   2.510   8.878 -1.0569  0.6571  1.3806
  185SAPI   C3721251   0.322   2.348   8.756  0.0197 -0.0102 -0.8848
  185SAPI   H7X21252   0.225   2.391   8.788  0.7142  1.3721 -0.5656
  185SAPI   H7Y21253   0.312   2.238   8.748  0.4754 -0.0449 -0.9939
  185SAPI   C3821254   0.345   2.412   8.622 -0.1712 -0.2554  0.0020
  185SAPI   H8X21255   0.359   2.521   8.635 -1.4823  0.1289 -1.4798
  185SAPI   H8Y21256   0.257   2.418   8.554  1.6551  1.9025 -2.3653
  185SAPI   C3921257   0.444   2.351   8.531  0.0651  0.4884  0.0227
  185SAPI   H9X21258   0.421   2.242   8.532 -1.5232  0.7953  0.7636
  185SAPI   H9Y21259   0.544   2.371   8.575  0.4338 -0.3320 -0.4203
  185SAPI  C31021260   0.449   2.394   8.382  0.3941 -0.2570  0.4264
  185SAPI  H10X21261   0.502   2.491   8.373 -1.4401  0.8910  1.3756
  185SAPI  H10Y21262   0.344   2.400   8.346  0.7219  0.1881 -0.4756
  185SAPI  C31121263   0.521   2.298   8.287 -0.6684 -0.1613 -0.1871
  185SAPI  H11X21264   0.532   2.349   8.189 -4.5577  0.7355 -0.3273
  185SAPI  H11Y21265   0.455   2.211   8.269  0.7438 -1.0702 -1.1452
  185SAPI  C31221266   0.664   2.254   8.319  0.7068 -0.2193  0.2608
  185SAPI  H12X21267   0.664   2.201   8.417 -4.4886 -2.7454 -0.7672
  185SAPI  H12Y21268   0.728   2.345   8.326  1.2019 -0.2687 -2.5187
  185SAPI  C31321269   0.727   2.153   8.216 -0.3232  0.1900  0.1295
  185SAPI  H13X21270   0.717   2.197   8.114  1.8925  1.2779  0.3213
  185SAPI  H13Y21271   0.661   2.064   8.224 -0.7495  0.1111 -2.9818
  185SAPI  C31421272   0.867   2.121   8.254  0.0728  0.4696  0.0927
  185SAPI  H14X21273   0.864   2.093   8.362  0.1334  2.3718  0.6228
  185SAPI  H14Y21274   0.940   2.206   8.256 -1.3332  1.7078  0.5448
  185SAPI  C31521275   0.925   2.006   8.171  0.1326 -0.4544  0.1086
  185SAPI  H15X21276   0.840   1.936   8.155 -0.3729  0.2459 -0.3766
  185SAPI  H15Y21277   1.011   1.960   8.224  2.5461  0.6092 -2.6110
  185SAPI  C31621278   0.979   2.040   8.034 -0.1397  0.2063 -0.0162
  185SAPI  H16X21279   1.075   2.097   8.043  0.6314 -1.3229  2.5082
  185SAPI  H16Y21280   0.911   2.111   7.982 -0.9035  1.1512  2.1434
  185SAPI  C31721281   0.996   1.912   7.956 -0.2019  0.3930 -0.1453
  185SAPI  H17X21282   0.902   1.856   7.937  0.9317 -1.5727 -0.1957
  185SAPI  H17Y21283   1.061   1.838   8.008 -1.4883 -2.0411 -1.8253
  185SAPI  C31821284   1.063   1.936   7.814 -0.2601  0.3031 -0.5749
  185SAPI  H18X21285   1.168   1.971   7.825 -0.4900  0.1910  3.0613
  185SAPI  H18Y21286   1.002   2.015   7.767 -1.1928  0.4027  0.7516
  185SAPI  H18Z21287   1.053   1.839   7.760 -2.5404  0.6764 -0.8817
  186SAPI   C1221288   6.698   1.898   9.995 -0.2299  0.7782 -0.4770
  186SAPI    H221289   6.776   1.823   9.969  0.3348  0.8778  0.8052
  186SAPI    O221290   6.772   2.012  10.027 -0.3058  0.6007  0.3324
  186SAPI   HO221291   6.865   1.989  10.016 -0.9085 -1.5083 -0.7935
  186SAPI   C1321292   6.600   1.913   9.876  0.0571 -0.6008 -0.4797
  186SAPI    H321293   6.522   1.835   9.871  1.2567 -1.8630 -0.0891
  186SAPI    O321294   6.663   1.898   9.751  0.0572  0.6860 -0.4897
  186SAPI   HO321295   6.680   1.987   9.721  0.5961  0.5555 -0.5785
  186SAPI   C1421296   6.519   2.046   9.890  0.5567 -0.6632  0.6821
  186SAPI    H421297   6.589   2.131   9.891 -1.8415  1.4401 -0.0314
  186SAPI    O421298   6.433   2.074   9.777  0.1700 -0.6973  0.5156
  186SAPI   HO421299   6.448   2.166   9.759  1.0229 -0.7252  1.0388
  186SAPI   C1521300   6.448   2.051  10.025 -0.2547  0.7837  0.3049
  186SAPI    H521301   6.348   2.008  10.002 -0.5385  0.1537  2.5128
  186SAPI    O521302   6.418   2.186  10.063 -0.1665 -0.1298 -0.0157
  186SAPI   HO521303   6.379   2.187  10.151  1.2006  2.1200  0.6169
  186SAPI   C1621304   6.509   1.979  10.140 -0.1047  0.2432  0.2658
  186SAPI    H621305   6.568   2.048  10.204  0.6644 -1.2696  1.2450
  186SAPI    O621306   6.412   1.928  10.225  0.1692 -0.0218 -0.1249
  186SAPI   HO621307   6.459   1.890  10.299  0.4054 -0.4006 -0.4649
  186SAPI   C1121308   6.603   1.862  10.104  0.0568  1.1501 -0.0009
  186SAPI    H121309   6.550   1.773  10.061  0.4492 -0.4584  2.6215
  186SAPI     P21310   6.634   1.682  10.309  0.2080  0.2433 -0.0142
  186SAPI   O1321311   6.493   1.696  10.363 -0.2181  0.1686 -0.3596
  186SAPI   O1421312   6.739   1.657  10.412  0.0910  0.2633  0.2046
  186SAPI   O1221313   6.677   1.821  10.220  0.4878  0.6459  0.3397
  186SAPI   O1121314   6.636   1.563  10.206 -1.1354  0.3247 -0.4142
  186SAPI    C121315   6.740   1.536  10.114  0.3688 -0.3247  0.2653
  186SAPI    HA21316   6.814   1.617  10.097  0.3155 -0.2772  0.2638
  186SAPI    HB21317   6.795   1.446  10.150 -0.9653 -1.0064  0.6562
  186SAPI    C221318   6.692   1.500   9.967  0.0716  0.5764  0.8754
  186SAPI    HS21319   6.683   1.591   9.905 -1.8858  0.4268  0.8729
  186SAPI   O2121320   6.570   1.421   9.975  0.1548  0.3072  0.0160
  186SAPI   C2121321   6.467   1.475   9.907  0.8369 -0.0762 -0.2435
  186SAPI   O2221322   6.470   1.586   9.852  0.0152  0.0458  0.0930
  186SAPI   C2221323   6.354   1.377   9.917 -0.1594 -0.2384  0.5931
  186SAPI   H2R21324   6.386   1.283   9.967  0.9955 -0.0149  0.2999
  186SAPI   H2S21325   6.275   1.429   9.974  0.7945  1.2283  0.6376
  186SAPI    C321326   6.808   1.421   9.896  0.3902 -0.1265  0.0615
  186SAPI    HX21327   6.835   1.323   9.942  0.6099 -0.1947 -0.2090
  186SAPI    HY21328   6.900   1.483   9.904 -0.7571  1.7719 -0.8481
  186SAPI   O3121329   6.773   1.383   9.761  0.6630 -0.2341  0.8034
  186SAPI   C3121330   6.858   1.415   9.662  0.1646  0.2296  0.4019
  186SAPI   O3221331   6.948   1.497   9.666  0.0685 -0.4677  0.2275
  186SAPI   C3221332   6.803   1.339   9.533  0.4126  0.1034  0.1408
  186SAPI   H2X21333   6.722   1.406   9.497  0.3661 -0.0059  0.0418
  186SAPI   H2Y21334   6.747   1.248   9.567 -1.1665  0.3993 -1.5412
  186SAPI   C2321335   6.300   1.342   9.782  0.4962 -0.0239  0.1249
  186SAPI   H3R21336   6.262   1.435   9.735  1.7656  1.0290  1.1356
  186SAPI   H3S21337   6.221   1.265   9.790  2.5574 -2.1756  0.8985
  186SAPI   C2421338   6.412   1.293   9.682 -0.2837 -0.8589 -0.6225
  186SAPI   H4R21339   6.489   1.230   9.733  0.9092  0.6323 -0.5056
  186SAPI   H4S21340   6.471   1.384   9.659 -1.2688  0.7915  2.7584
  186SAPI   C2521341   6.372   1.209   9.569 -0.6118 -0.5173  0.1549
  186SAPI   H5R21342   6.326   1.114   9.601  0.5749 -1.7651 -1.6757
  186SAPI   C2621343   6.387   1.224   9.435  0.4260 -0.0578 -0.5919
  186SAPI   H6R21344   6.336   1.160   9.362 -1.0356 -2.0170  2.0154
  186SAPI   C2721345   6.448   1.346   9.369 -0.6531 -0.0651 -0.2592
  186SAPI   H7R21346   6.503   1.405   9.446  0.0052 -0.0230 -0.7590
  186SAPI   H7S21347   6.369   1.411   9.327 -1.5274 -0.7317  0.3114
  186SAPI   C2821348   6.549   1.313   9.260  0.1519  0.0345 -0.2831
  186SAPI   H8R21349   6.561   1.209   9.227  0.9632  0.2409 -0.6675
  186SAPI   C2921350   6.608   1.401   9.181 -0.6382 -0.5249 -0.0725
  186SAPI   H9R21351   6.688   1.366   9.114 -0.5481 -0.7276  0.1392
  186SAPI  C21021352   6.594   1.558   9.197  0.4571  0.1143 -0.4390
  186SAPI  H10R21353   6.695   1.603   9.200  0.6971 -0.3514 -1.1712
  186SAPI  H10S21354   6.547   1.581   9.295 -0.1194 -0.2333 -0.6263
  186SAPI  C21121355   6.512   1.609   9.079  0.0430  0.4994 -0.1228
  186SAPI  H11R21356   6.404   1.592   9.090  0.2838 -1.1205  0.0333
  186SAPI  C21221357   6.555   1.673   8.967 -0.3193  0.3212 -0.3548
  186SAPI  H12R21358   6.480   1.686   8.887 -0.9571  0.1588  0.2076
  186SAPI  C21321359   6.700   1.697   8.928 -0.0671  0.0536 -0.6802
  186SAPI  H13R21360   6.742   1.614   8.868  0.8701 -0.1926  0.2718
  186SAPI  H13S21361   6.761   1.703   9.021 -0.5712 -1.6801 -0.2031
  186SAPI  C21421362   6.713   1.823   8.853 -0.2419 -0.3304  0.0170
  186SAPI  H14R21363   6.703   1.909   8.920  2.2478  0.2225 -0.2503
  186SAPI  C21521364   6.739   1.839   8.722  0.0811 -0.6880 -0.8048
  186SAPI  H15R21365   6.755   1.936   8.674 -0.8848 -0.9431 -1.7058
  186SAPI  C21621366   6.752   1.726   8.619  0.1687 -0.2803  0.6334
  186SAPI  H16R21367   6.736   1.627   8.668 -0.0705 -1.6246 -1.9743
  186SAPI  H16S21368   6.854   1.719   8.575 -0.0314 -0.0706  0.1254
  186SAPI  C21721369   6.652   1.725   8.506  0.5918  0.5581  0.3541
  186SAPI  H17R21370   6.546   1.738   8.537  0.5699  3.1535 -0.5872
  186SAPI  H17S21371   6.651   1.625   8.457 -0.3838  0.3704  0.7288
  186SAPI  C21821372   6.686   1.827   8.389 -0.2098 -0.8816  0.3057
  186SAPI  H18R21373   6.744   1.784   8.305  0.1759  1.0724 -0.4798
  186SAPI  H18S21374   6.750   1.904   8.438 -1.6507  0.8894 -0.5059
  186SAPI  C21921375   6.553   1.891   8.337 -0.1209  0.3502 -0.8495
  186SAPI  H19R21376   6.486   1.899   8.425 -0.0231  0.5765 -0.7939
  186SAPI  H19S21377   6.507   1.820   8.265  1.1568 -1.2393 -0.1520
  186SAPI  C22021378   6.571   2.025   8.269  0.0145 -0.7252 -0.0503
  186SAPI  H20R21379   6.661   2.040   8.206  0.1063  1.8086  0.5778
  186SAPI  H20S21380   6.579   2.108   8.343 -2.0771 -0.7622  0.2741
  186SAPI  H20T21381   6.494   2.035   8.189  1.4452  2.0593 -1.2243
  186SAPI   C3321382   6.897   1.301   9.422  0.9637  0.0088 -0.0744
  186SAPI   H3X21383   6.833   1.244   9.351  1.6489  0.1116 -0.7930
  186SAPI   H3Y21384   6.975   1.226   9.449  0.8285 -0.6953 -1.5564
  186SAPI   C3421385   6.974   1.409   9.352 -0.1380 -0.4386 -0.1365
  186SAPI   H4X21386   7.011   1.478   9.432  0.3067 -1.5690  0.6535
  186SAPI   H4Y21387   6.913   1.464   9.277 -0.0820 -0.9124 -0.5296
  186SAPI   C3521388   7.104   1.355   9.285 -0.8680 -0.0484 -0.9943
  186SAPI   H5X21389   7.151   1.289   9.361 -0.0350 -0.0316 -1.4868
  186SAPI   H5Y21390   7.178   1.437   9.274 -1.3138  0.3998 -0.6910
  186SAPI   C3621391   7.085   1.291   9.150  0.2369 -0.0260 -0.4536
  186SAPI   H6X21392   6.991   1.235   9.168 -0.5223  1.0655 -0.8817
  186SAPI   H6Y21393   7.177   1.234   9.122  1.2277  0.6294  1.3221
  186SAPI   C3721394   7.056   1.394   9.038 -0.1148  0.6095  0.4087
  186SAPI   H7X21395   7.136   1.470   9.026 -0.7027  1.2393  0.3881
  186SAPI   H7Y21396   6.960   1.441   9.071  0.3160  2.0115 -0.2260
  186SAPI   C3821397   7.034   1.316   8.907 -0.1258 -0.0412  0.1628
  186SAPI   H8X21398   6.956   1.236   8.910 -0.7711  0.6043  2.3593
  186SAPI   H8Y21399   7.133   1.267   8.894  0.5268  0.7898  1.6966
  186SAPI   C3921400   7.015   1.397   8.780  0.7833 -0.7802  0.1882
  186SAPI   H9X21401   7.082   1.485   8.783  1.2339 -1.0639 -1.0647
  186SAPI   H9Y21402   6.913   1.439   8.782  1.4611  0.9221  0.9322
  186SAPI  C31021403   7.023   1.314   8.653  0.6686  0.4917 -0.0044
  186SAPI  H10X21404   6.952   1.229   8.664 -0.3445  1.2654 -0.3937
  186SAPI  H10Y21405   7.129   1.281   8.650 -0.1387 -2.4050 -0.2436
  186SAPI  C31121406   6.976   1.391   8.529  0.1576  0.5776  0.0456
  186SAPI  H11X21407   7.046   1.474   8.506 -1.8890  1.8901 -1.8486
  186SAPI  H11Y21408   6.874   1.432   8.544 -0.0904  0.3039 -0.8212
  186SAPI  C31221409   6.955   1.296   8.418 -0.2451  0.4286  0.8314
  186SAPI  H12X21410   6.882   1.214   8.436  3.4977 -3.3009  0.4067
  186SAPI  H12Y21411   7.051   1.241   8.412 -0.4358 -0.0544  2.0370
  186SAPI  C31321412   6.920   1.362   8.279  0.0858  0.6864 -0.5164
  186SAPI  H13X21413   7.012   1.414   8.245 -0.4296  0.0587 -3.1169
  186SAPI  H13Y21414   6.841   1.438   8.294  1.3223  1.7360  0.9993
  186SAPI  C31421415   6.897   1.265   8.163 -0.0919 -0.2292  0.4267
  186SAPI  H14X21416   6.965   1.178   8.168 -0.6622 -0.8472 -1.6552
  186SAPI  H14Y21417   6.925   1.313   8.067  1.2132  1.0303  1.3945
  186SAPI  C31521418   6.748   1.226   8.160 -0.0824  0.2622 -0.0501
  186SAPI  H15X21419   6.686   1.319   8.158 -0.5305 -0.0274  0.1896
  186SAPI  H15Y21420   6.722   1.173   8.255 -0.0967  0.1781 -0.1016
  186SAPI  C31621421   6.720   1.144   8.031 -0.5214  0.0094 -0.8476
  186SAPI  H16X21422   6.801   1.067   8.030 -3.7353 -3.7518  1.2292
  186SAPI  H16Y21423   6.721   1.203   7.937 -0.2605 -1.0649 -1.5452
  186SAPI  C31721424   6.592   1.062   8.032 -0.1699  0.1914 -1.1924
  186SAPI  H17X21425   6.587   1.004   8.127 -1.2496  2.3110  0.1423
  186SAPI  H17Y21426   6.591   0.988   7.950 -1.2913  1.3466 -2.2767
  186SAPI  C31821427   6.471   1.153   8.015  0.9278 -0.3479  0.3330
  186SAPI  H18X21428   6.386   1.082   8.006 -1.0099  1.8171  0.5013
  186SAPI  H18Y21429   6.485   1.209   7.920  1.5920 -0.4243  0.3818
  186SAPI  H18Z21430   6.449   1.227   8.094 -0.6025  0.5174 -0.8435
  187SAPI   C1221431   5.551   2.866   5.726 -0.1359  0.8326  0.3992
  187SAPI    H221432   5.633   2.939   5.744  0.9907 -0.7055  1.8049
  187SAPI    O221433   5.446   2.930   5.651 -0.1347  0.1236 -0.0802
  187SAPI   HO221434   5.368   2.902   5.700 -0.0669  0.2624  0.1045
  187SAPI   C1321435   5.619   2.753   5.651  0.4160 -0.2618 -0.0739
  187SAPI    H321436   5.687   2.690   5.713  0.3714 -1.2551 -0.9969
  187SAPI    O321437   5.691   2.791   5.531  0.2190 -0.4444 -0.2593
  187SAPI   HO321438   5.623   2.804   5.465  0.8870  1.8032 -0.5880
  187SAPI   C1421439   5.510   2.653   5.612  0.8977 -0.2981 -0.3457
  187SAPI    H421440   5.448   2.715   5.543  0.7538  0.0120  0.0595
  187SAPI    O421441   5.561   2.537   5.541 -0.1607 -0.2474  0.2977
  187SAPI   HO421442   5.613   2.569   5.466  1.3977 -0.1792  1.3506
  187SAPI   C1521443   5.420   2.616   5.734 -0.4615  0.0321 -0.2943
  187SAPI    H521444   5.472   2.531   5.784 -0.2895 -0.0990 -0.6895
  187SAPI    O521445   5.297   2.551   5.703 -0.0321  0.3602  0.2977
  187SAPI   HO521446   5.313   2.457   5.691  0.4692  0.2290  1.8364
  187SAPI   C1621447   5.404   2.715   5.849 -0.2873 -0.0966 -0.1223
  187SAPI    H621448   5.308   2.763   5.818  1.1410  0.7339 -3.7931
  187SAPI    O621449   5.379   2.650   5.970 -0.1339  0.2925  0.6055
  187SAPI   HO621450   5.455   2.593   5.983  1.1851  0.8163 -3.4550
  187SAPI   C1121451   5.508   2.820   5.861  0.8445  0.1026 -0.1651
  187SAPI    H121452   5.600   2.785   5.910  0.6203 -0.2688 -0.0077
  187SAPI     P21453   5.538   3.033   6.024 -0.1618  0.0731  0.4057
  187SAPI   O1321454   5.457   3.159   6.033  0.1459 -0.1223  0.6022
  187SAPI   O1421455   5.671   3.044   5.963  0.2051  0.7690 -0.5514
  187SAPI   O1221456   5.448   2.924   5.934  0.0947  0.0128  0.3549
  187SAPI   O1121457   5.556   2.969   6.162  0.9431  0.3428 -0.4808
  187SAPI    C121458   5.564   2.826   6.185  0.3879  0.3638  0.5197
  187SAPI    HA21459   5.466   2.775   6.185  1.0860 -1.0708 -0.9840
  187SAPI    HB21460   5.621   2.786   6.099 -1.1632  0.9413 -0.8081
  187SAPI    C221461   5.640   2.784   6.310  0.1804 -0.5025 -0.4105
  187SAPI    HS21462   5.651   2.674   6.318  0.8521 -0.5978 -2.1517
  187SAPI   O2121463   5.582   2.837   6.431  0.1841 -0.0832 -0.1617
  187SAPI   C2121464   5.455   2.804   6.458  0.3238  1.2138 -0.0829
  187SAPI   O2221465   5.385   2.735   6.386  0.4086 -0.2942  0.2223
  187SAPI   C2221466   5.424   2.852   6.601  0.1336 -0.0979 -0.2068
  187SAPI   H2R21467   5.511   2.841   6.669 -0.6960 -0.8002  0.7855
  187SAPI   H2S21468   5.400   2.961   6.598 -0.9118 -0.3050  0.1479
  187SAPI    C321469   5.795   2.827   6.298 -0.2501 -0.6381 -0.1278
  187SAPI    HX21470   5.790   2.929   6.255  0.5206 -0.2782  0.5985
  187SAPI    HY21471   5.854   2.767   6.227  0.1937 -1.4816  0.9306
  187SAPI   O3121472   5.851   2.836   6.434  0.0985  0.5793  0.4002
  187SAPI   C3121473   5.961   2.905   6.452 -0.0798  0.3198  0.1246
  187SAPI   O3221474   6.020   2.966   6.364  1.0528 -0.4272  0.3556
  187SAPI   C3221475   6.002   2.897   6.602 -0.8539 -0.8757  0.1107
  187SAPI   H2X21476   6.107   2.931   6.592 -1.2856  0.3005 -0.5441
  187SAPI   H2Y21477   5.998   2.793   6.642  1.9566 -0.2934  2.2191
  187SAPI   C2321478   5.293   2.791   6.637 -0.2115  0.1542 -0.5288
  187SAPI   H3R21479   5.297   2.681   6.623  2.3875  0.0333  0.6581
  187SAPI   H3S21480   5.214   2.844   6.580 -0.8974  2.6076  2.4380
  187SAPI   C2421481   5.266   2.817   6.784 -0.5316 -0.4741 -0.1398
  187SAPI   H4R21482   5.275   2.928   6.792 -0.4974 -0.4840 -0.0429
  187SAPI   H4S21483   5.340   2.771   6.853  0.1036 -0.1997 -0.6223
  187SAPI   C2521484   5.130   2.771   6.828  0.2324 -0.5902 -0.0055
  187SAPI   H5R21485   5.104   2.674   6.784  1.7594 -1.2217  0.4539
  187SAPI   C2621486   5.042   2.845   6.901 -0.0753 -0.5578 -0.0538
  187SAPI   H6R21487   4.939   2.811   6.918  0.6496 -1.8754  2.0487
  187SAPI   C2721488   5.069   2.987   6.955  0.7193 -0.3294  0.1004
  187SAPI   H7R21489   5.058   3.063   6.876  0.4257  0.5957  1.0181
  187SAPI   H7S21490   5.174   3.001   6.989  0.3166 -0.7747  1.5859
  187SAPI   C2821491   4.978   3.028   7.074 -0.4340 -0.1442  0.9240
  187SAPI   H8R21492   4.976   2.955   7.157  0.0582 -1.9896 -0.6085
  187SAPI   C2921493   4.890   3.130   7.077  0.8846 -1.1147  0.5904
  187SAPI   H9R21494   4.826   3.148   7.165  0.0773  0.3360 -0.2561
  187SAPI  C21021495   4.848   3.228   6.967 -0.7163 -0.1052 -0.3680
  187SAPI  H10R21496   4.745   3.268   6.978 -0.8485 -1.0509  2.4259
  187SAPI  H10S21497   4.845   3.175   6.869 -1.6753 -2.0538  0.6744
  187SAPI  C21121498   4.952   3.342   6.963 -0.2683 -0.3613 -0.3651
  187SAPI  H11R21499   5.041   3.312   6.906  1.1133  0.5394  1.2331
  187SAPI  C21221500   4.951   3.463   7.025  0.1172 -0.0708 -0.4669
  187SAPI  H12R21501   5.040   3.528   7.025 -0.5561  0.9578 -2.8789
  187SAPI  C21321502   4.831   3.513   7.106  0.3908  0.6096  0.1813
  187SAPI  H13R21503   4.737   3.455   7.095  0.8467  0.1739 -1.8137
  187SAPI  H13S21504   4.798   3.607   7.058 -0.8142  1.2386  2.1350
  187SAPI  C21421505   4.859   3.543   7.250  0.0226  0.7379 -0.0595
  187SAPI  H14R21506   4.955   3.505   7.288 -0.1933 -1.3596 -1.4610
  187SAPI  C21521507   4.766   3.592   7.329 -0.0138 -0.4721  0.0316
  187SAPI  H15R21508   4.795   3.600   7.435  2.1160  3.5384 -0.6679
  187SAPI  C21621509   4.626   3.646   7.304 -0.7134 -0.0563  0.3369
  187SAPI  H16R21510   4.607   3.640   7.195  1.6088 -0.7961 -0.0795
  187SAPI  H16S21511   4.625   3.752   7.336  2.2960 -0.8258  3.5764
  187SAPI  C21721512   4.520   3.563   7.385 -0.5856 -0.4875 -0.2363
  187SAPI  H17R21513   4.511   3.463   7.336 -1.8025  0.2194 -1.5166
  187SAPI  H17S21514   4.424   3.618   7.377  0.6085  1.4951 -1.4468
  187SAPI  C21821515   4.549   3.539   7.541  0.6663  0.1758  0.2232
  187SAPI  H18R21516   4.583   3.632   7.592  2.4308 -0.1223 -0.3185
  187SAPI  H18S21517   4.631   3.464   7.547  0.0479 -0.5770 -0.5364
  187SAPI  C21921518   4.437   3.469   7.620  0.5526 -0.1777 -0.5325
  187SAPI  H19R21519   4.399   3.381   7.565  2.1564 -0.9924 -0.4073
  187SAPI  H19S21520   4.352   3.536   7.643  0.2791 -1.2683  2.0245
  187SAPI  C22021521   4.478   3.414   7.761  0.4888 -0.4082  0.4374
  187SAPI  H20R21522   4.381   3.376   7.801 -1.2679  2.0166 -1.2484
  187SAPI  H20S21523   4.509   3.489   7.837  0.6221 -0.8798  0.8582
  187SAPI  H20T21524   4.554   3.333   7.758  0.9110 -0.0793  1.6307
  187SAPI   C3321525   5.944   3.005   6.696  0.5685  0.5869 -0.1953
  187SAPI   H3X21526   5.834   2.994   6.708  0.6757  0.5644  0.8296
  187SAPI   H3Y21527   5.962   3.104   6.647 -0.0819 -0.0144 -1.7067
  187SAPI   C3421528   6.017   2.997   6.832 -0.4468 -0.2671  0.9941
  187SAPI   H4X21529   6.120   3.034   6.813 -1.0184  0.4863 -0.8683
  187SAPI   H4Y21530   6.028   2.892   6.865  2.0018 -0.7237 -0.9263
  187SAPI   C3521531   5.954   3.087   6.937 -0.5009  0.1175  0.5828
  187SAPI   H5X21532   5.931   3.190   6.902 -4.3943  0.0917  2.4571
  187SAPI   H5Y21533   6.027   3.109   7.018 -0.4522 -0.9547  0.8515
  187SAPI   C3621534   5.822   3.035   6.993  1.3523 -0.1183 -1.3907
  187SAPI   H6X21535   5.742   3.046   6.916 -0.5047 -0.5837  0.3637
  187SAPI   H6Y21536   5.787   3.103   7.074 -0.9685 -1.0746 -1.4873
  187SAPI   C3721537   5.824   2.893   7.047 -0.4962  0.4961  0.2381
  187SAPI   H7X21538   5.904   2.876   7.122 -2.4314 -1.4486  1.9824
  187SAPI   H7Y21539   5.828   2.819   6.965  0.9688  2.3564 -1.4941
  187SAPI   C3821540   5.687   2.864   7.122 -0.0393 -0.3843  0.1597
  187SAPI   H8X21541   5.680   2.753   7.120  0.6756 -0.4404  0.6961
  187SAPI   H8Y21542   5.609   2.902   7.052  2.2704  2.9887 -0.8588
  187SAPI   C3921543   5.684   2.921   7.271  0.4859  0.0139  0.5951
  187SAPI   H9X21544   5.680   3.032   7.277 -0.4974 -0.0417  1.2691
  187SAPI   H9Y21545   5.776   2.889   7.323  0.2707  2.0957  2.3755
  187SAPI  C31021546   5.574   2.868   7.360 -0.0880 -0.4865  0.3281
  187SAPI  H10X21547   5.570   2.927   7.454 -0.0843  0.1553 -0.0679
  187SAPI  H10Y21548   5.591   2.761   7.382 -2.5349 -1.6015 -2.5339
  187SAPI  C31121549   5.430   2.879   7.306  0.2307  0.8239 -0.6521
  187SAPI  H11X21550   5.429   2.859   7.197  2.2377  1.5302 -0.8518
  187SAPI  H11Y21551   5.404   2.987   7.309  0.5354  0.9016 -0.7941
  187SAPI  C31221552   5.315   2.806   7.381 -0.0428 -0.0301 -0.1657
  187SAPI  H12X21553   5.333   2.697   7.390  0.3948  0.0829  0.3869
  187SAPI  H12Y21554   5.220   2.817   7.324 -0.3222  1.0961  0.4838
  187SAPI  C31321555   5.286   2.862   7.523  0.1268  0.6033  0.3212
  187SAPI  H13X21556   5.176   2.855   7.538 -0.3405 -0.1575 -2.6998
  187SAPI  H13Y21557   5.314   2.969   7.527 -3.0061  1.6800 -2.0440
  187SAPI  C31421558   5.376   2.789   7.622 -0.1596  0.4266 -0.0392
  187SAPI  H14X21559   5.479   2.794   7.580 -0.3765  0.0338 -0.6394
  187SAPI  H14Y21560   5.358   2.680   7.611 -0.3036  0.5859 -1.6530
  187SAPI  C31521561   5.386   2.856   7.764  0.8218 -0.3874 -1.0510
  187SAPI  H15X21562   5.382   2.782   7.846  1.2169  0.6932 -0.0336
  187SAPI  H15Y21563   5.295   2.919   7.771  0.4588 -1.0375  5.2381
  187SAPI  C31621564   5.504   2.941   7.790 -0.3466  0.0443  0.0830
  187SAPI  H16X21565   5.504   3.037   7.733 -2.0325  0.6287  0.9880
  187SAPI  H16Y21566   5.595   2.884   7.761 -0.4238  0.4700 -1.0491
  187SAPI  C31721567   5.528   2.985   7.939  0.5605  0.6719 -0.0394
  187SAPI  H17X21568   5.526   2.907   8.018 -2.9951 -0.0230 -0.6632
  187SAPI  H17Y21569   5.437   3.045   7.964  0.5383  1.1683 -1.2642
  187SAPI  C31821570   5.650   3.079   7.963  0.7415  0.2011 -0.1088
  187SAPI  H18X21571   5.672   3.094   8.070  0.0524  1.0154 -0.0629
  187SAPI  H18Y21572   5.632   3.182   7.925 -0.1715 -0.1007 -0.5585
  187SAPI  H18Z21573   5.739   3.038   7.911  0.1728 -0.8624 -0.2687
  188SAPI   C1221574   1.939   4.332   6.190 -0.2605 -0.0953 -0.3204
  188SAPI    H221575   2.043   4.324   6.153  0.7513 -2.2002  2.6784
  188SAPI    O221576   1.893   4.460   6.139 -0.2241  0.8588 -0.6158
  188SAPI   HO221577   1.921   4.538   6.186 -0.4897 -0.6476  2.2513
  188SAPI   C1321578   1.853   4.220   6.123 -0.5869 -0.5672  0.1310
  188SAPI    H321579   1.879   4.120   6.164  0.2408 -0.5318 -0.2758
  188SAPI    O321580   1.861   4.212   5.982 -0.3522  0.0433 -0.1764
  188SAPI   HO321581   1.859   4.301   5.947 -1.6485 -0.6944 -2.2105
  188SAPI   C1421582   1.713   4.231   6.179 -0.4719 -0.1295  0.2761
  188SAPI    H421583   1.672   4.324   6.134  1.9766  2.1673  2.4285
  188SAPI    O421584   1.620   4.133   6.125 -0.2345  0.4597 -0.2558
  188SAPI   HO421585   1.546   4.180   6.088 -0.5962  0.2330  0.1638
  188SAPI   C1521586   1.701   4.259   6.326  0.1461  0.0056 -0.4588
  188SAPI    H521587   1.692   4.155   6.364  1.7553  0.0501  0.1375
  188SAPI    O521588   1.579   4.322   6.355  0.1726 -0.2951  0.2706
  188SAPI   HO521589   1.535   4.278   6.428 -2.3416  1.3389 -0.1361
  188SAPI   C1621590   1.811   4.318   6.404  0.5566 -0.2741 -0.3680
  188SAPI    H621591   1.789   4.426   6.417  0.6617 -0.3444  0.4089
  188SAPI    O621592   1.822   4.253   6.534  0.1131 -0.1620 -0.2233
  188SAPI   HO621593   1.890   4.295   6.587  0.3723  1.8980 -2.0429
  188SAPI   C1121594   1.946   4.319   6.337 -0.4634  0.3585 -0.3469
  188SAPI    H121595   1.990   4.217   6.346  1.9978  1.4346  0.8108
  188SAPI     P21596   2.145   4.380   6.503 -0.1631 -0.1770  0.2610
  188SAPI   O1321597   2.230   4.497   6.539 -0.0360 -0.2038  0.1685
  188SAPI   O1421598   2.230   4.266   6.465  0.0239  0.5275  0.0376
  188SAPI   O1221599   2.044   4.419   6.387 -0.1833 -0.0763 -0.1608
  188SAPI   O1121600   2.055   4.341   6.616  0.0855 -0.1433  0.0722
  188SAPI    C121601   2.047   4.387   6.753  0.0877 -0.6515 -0.0286
  188SAPI    HA21602   2.101   4.484   6.762  0.9189 -0.9077 -1.7721
  188SAPI    HB21603   1.950   4.389   6.806  0.8849 -0.2093  1.4517
  188SAPI    C221604   2.126   4.280   6.835 -0.1865  0.1001  0.3776
  188SAPI    HS21605   2.226   4.287   6.789 -0.8362  4.0170 -0.8106
  188SAPI   O2121606   2.050   4.151   6.831  0.3174 -0.0485  0.3604
  188SAPI   C2121607   2.132   4.049   6.845  0.3505 -0.1423 -0.0561
  188SAPI   O2221608   2.254   4.063   6.848  0.3834  0.7776 -0.0324
  188SAPI   C2221609   2.058   3.917   6.845  0.2555 -0.2036 -0.5561
  188SAPI   H2R21610   1.954   3.951   6.865  0.8765  1.0403  0.7163
  188SAPI   H2S21611   2.064   3.874   6.742  0.7706 -1.4795 -0.0112
  188SAPI    C321612   2.141   4.324   6.989 -0.1471  0.2193  0.5113
  188SAPI    HX21613   2.224   4.266   7.033 -0.8536 -0.5746  0.8268
  188SAPI    HY21614   2.049   4.296   7.045  1.3024 -0.1711  2.8213
  188SAPI   O3121615   2.152   4.465   7.009 -0.0000  0.0593  0.0392
  188SAPI   C3121616   2.284   4.514   7.015  0.0824 -0.3335  0.0663
  188SAPI   O3221617   2.381   4.445   6.979  0.2114  0.5222  0.2324
  188SAPI   C3221618   2.284   4.664   7.050 -0.7033  0.5953  0.2593
  188SAPI   H2X21619   2.229   4.722   6.973  0.6063  1.1052 -0.3282
  188SAPI   H2Y21620   2.386   4.701   7.023  0.0330  0.4999  2.6737
  188SAPI   C2321621   2.105   3.828   6.954  1.0699  0.4273  0.2775
  188SAPI   H3R21622   2.215   3.811   6.948  1.2091  1.5808 -1.5589
  188SAPI   H3S21623   2.058   3.731   6.928 -0.8719  1.0920  1.1421
  188SAPI   C2421624   2.065   3.872   7.092  0.8030 -0.1417 -0.0842
  188SAPI   H4R21625   2.091   3.979   7.108 -0.8665  0.7681 -2.7360
  188SAPI   H4S21626   2.114   3.809   7.169 -0.4747 -1.6662 -0.4814
  188SAPI   C2521627   1.914   3.864   7.117 -0.7371  0.1123 -0.0459
  188SAPI   H5R21628   1.862   3.910   7.032 -1.8707 -1.1917 -0.0857
  188SAPI   C2621629   1.850   3.816   7.223 -1.0715 -0.1570  0.0454
  188SAPI   H6R21630   1.741   3.814   7.212 -0.8700 -3.3840 -3.3719
  188SAPI   C2721631   1.912   3.746   7.340  0.1289 -0.7208 -0.0145
  188SAPI   H7R21632   1.860   3.786   7.430  1.4338 -0.2851  0.5722
  188SAPI   H7S21633   2.017   3.780   7.357  0.0416 -0.0551 -0.7435
  188SAPI   C2821634   1.905   3.599   7.329 -0.8065 -0.2460  0.1134
  188SAPI   H8R21635   1.860   3.564   7.235 -0.9845  0.2105  0.0277
  188SAPI   C2921636   1.932   3.502   7.419 -0.5585 -0.0676 -0.1473
  188SAPI   H9R21637   1.937   3.397   7.388 -1.4704 -0.5239  1.1895
  188SAPI  C21021638   1.979   3.516   7.563  0.2847  0.0142  0.1603
  188SAPI  H10R21639   2.021   3.616   7.586 -0.7207  0.1777  1.4589
  188SAPI  H10S21640   2.066   3.449   7.582  1.1711  0.9098 -0.6074
  188SAPI  C21121641   1.855   3.489   7.656 -0.2723 -0.6644  0.6658
  188SAPI  H11R21642   1.758   3.489   7.606  0.1408  1.4696 -0.2550
  188SAPI  C21221643   1.863   3.470   7.789 -0.1672  0.6688 -0.0813
  188SAPI  H12R21644   1.773   3.426   7.835  0.4676 -0.2676  0.2958
  188SAPI  C21321645   1.995   3.458   7.864 -0.4768 -0.0851 -0.6823
  188SAPI  H13R21646   2.080   3.511   7.814 -0.0991  1.4095  1.4103
  188SAPI  H13S21647   2.025   3.353   7.883  0.4708  0.1821 -0.6021
  188SAPI  C21421648   1.978   3.524   7.999 -0.3301 -0.2104  0.6510
  188SAPI  H14R21649   2.029   3.621   8.003  1.5358 -1.1777  1.8622
  188SAPI  C21521650   1.925   3.485   8.114  0.1329  0.0181 -0.4637
  188SAPI  H15R21651   1.899   3.560   8.190 -0.7266  0.7592 -1.4607
  188SAPI  C21621652   1.858   3.352   8.128  0.0388  0.2220 -0.4303
  188SAPI  H16R21653   1.923   3.293   8.197 -1.6695 -0.1863  0.9225
  188SAPI  H16S21654   1.860   3.292   8.034  0.8534 -2.2572  1.0703
  188SAPI  C21721655   1.718   3.366   8.188  0.2138  0.2475 -0.3923
  188SAPI  H17R21656   1.712   3.423   8.283 -3.0694  1.1857 -1.0550
  188SAPI  H17S21657   1.670   3.267   8.208 -0.6481  0.8966  0.8533
  188SAPI  C21821658   1.624   3.440   8.090 -0.2447 -0.1157  0.4255
  188SAPI  H18R21659   1.632   3.406   7.984  2.1828 -1.2220  0.8931
  188SAPI  H18S21660   1.653   3.547   8.093  0.0304 -0.1748 -0.0196
  188SAPI  C21921661   1.475   3.444   8.130  0.4401 -0.4124  0.3217
  188SAPI  H19R21662   1.421   3.355   8.093  0.2551  0.3100 -1.1966
  188SAPI  H19S21663   1.432   3.528   8.071  0.9264  1.4222  2.4271
  188SAPI  C22021664   1.438   3.481   8.276  0.7604 -0.3558  0.1000
  188SAPI  H20R21665   1.501   3.568   8.305  0.6643  0.2465 -1.4014
  188SAPI  H20S21666   1.465   3.410   8.357  2.7481 -1.3005 -1.3052
  188SAPI  H20T21667   1.331   3.511   8.277  1.4791  2.6163  2.3770
  188SAPI   C3321668   2.259   4.710   7.192  0.6402  0.3463  0.4048
  188SAPI   H3X21669   2.149   4.720   7.204  0.3813 -3.0079  2.3238
  188SAPI   H3Y21670   2.310   4.809   7.196  0.1484  0.6030  0.3782
  188SAPI   C3421671   2.290   4.607   7.302 -0.0545  0.4976 -0.6502
  188SAPI   H4X21672   2.392   4.571   7.278 -0.5822 -0.7412 -1.1289
  188SAPI   H4Y21673   2.243   4.507   7.293  0.9376  0.0120 -0.5220
  188SAPI   C3521674   2.270   4.662   7.445 -0.4204 -0.2857 -0.2308
  188SAPI   H5X21675   2.179   4.727   7.444  0.8888  1.6413 -0.5287
  188SAPI   H5Y21676   2.343   4.743   7.466 -0.5724  0.3771 -2.0490
  188SAPI   C3621677   2.262   4.565   7.564  0.3929  0.3512 -0.1593
  188SAPI   H6X21678   2.361   4.516   7.572 -0.6358 -1.8182  0.1056
  188SAPI   H6Y21679   2.187   4.483   7.552  0.9945 -0.4329  1.2180
  188SAPI   C3721680   2.230   4.627   7.704 -0.3125  0.1232 -0.2984
  188SAPI   H7X21681   2.203   4.540   7.767 -1.7206  0.5327 -0.2929
  188SAPI   H7Y21682   2.144   4.695   7.685  0.0511  0.2453 -1.6486
  188SAPI   C3821683   2.332   4.704   7.779 -0.5323  0.7092  0.6085
  188SAPI   H8X21684   2.355   4.800   7.727 -1.3971  2.3808  3.1265
  188SAPI   H8Y21685   2.423   4.641   7.779 -1.0342 -0.0856 -1.6673
  188SAPI   C3921686   2.288   4.724   7.925 -0.0591  0.7014 -0.4039
  188SAPI   H9X21687   2.385   4.747   7.972  1.5852 -4.3350 -0.6807
  188SAPI   H9Y21688   2.253   4.630   7.973  1.1970  1.2104  1.6034
  188SAPI  C31021689   2.176   4.826   7.963  0.4338 -0.0678 -0.1161
  188SAPI  H10X21690   2.081   4.809   7.907  1.3961 -2.9282 -1.0699
  188SAPI  H10Y21691   2.232   4.919   7.938  1.5353 -0.6184  0.2280
  188SAPI  C31121692   2.139   4.825   8.113  0.3799 -0.0932 -0.7516
  188SAPI  H11X21693   2.233   4.813   8.171 -0.0679  1.3146  0.3075
  188SAPI  H11Y21694   2.070   4.740   8.132 -1.8104  2.1171  2.0927
  188SAPI  C31221695   2.059   4.949   8.165 -0.0036  0.0809 -0.2276
  188SAPI  H12X21696   1.954   4.951   8.131  0.6829 -1.8823 -2.7577
  188SAPI  H12Y21697   2.111   5.038   8.122  2.7076 -0.8011  0.9457
  188SAPI  C31321698   2.047   4.963   8.322 -0.0314 -0.2345  0.0699
  188SAPI  H13X21699   1.975   4.887   8.361 -0.0925 -0.4940 -0.5219
  188SAPI  H13Y21700   2.007   5.064   8.343  1.4195  0.0756  1.4390
  188SAPI  C31421701   2.188   4.958   8.398 -0.3565  0.1554 -0.3308
  188SAPI  H14X21702   2.253   4.871   8.376  1.2008  1.0743  0.5070
  188SAPI  H14Y21703   2.170   4.957   8.507  3.5392 -0.5005  0.4245
  188SAPI  C31521704   2.268   5.085   8.369  0.9762  0.4142  0.9818
  188SAPI  H15X21705   2.210   5.167   8.417 -0.3955 -0.9168  1.6806
  188SAPI  H15Y21706   2.285   5.098   8.260 -0.1239  1.3608  0.9097
  188SAPI  C31621707   2.401   5.075   8.451 -0.2765  0.0440  0.9507
  188SAPI  H16X21708   2.454   4.978   8.434 -0.2854  0.1810  0.1161
  188SAPI  H16Y21709   2.369   5.094   8.556  0.7326 -1.0972  1.5036
  188SAPI  C31721710   2.499   5.189   8.417 -0.1079  0.8720  0.4034
  188SAPI  H17X21711   2.533   5.151   8.318 -1.2664  1.2378 -0.1519
  188SAPI  H17Y21712   2.587   5.197   8.483 -1.5316 -0.5354  2.6063
  188SAPI  C31821713   2.443   5.323   8.397  0.4802  0.4887 -0.9581
  188SAPI  H18X21714   2.508   5.392   8.340  1.7054  0.5011  0.4006
  188SAPI  H18Y21715   2.402   5.364   8.492 -2.0738 -2.1987 -0.7673
  188SAPI  H18Z21716   2.350   5.319   8.335 -2.1265 -0.9131  2.6847
  189POPC     N21717   5.086   6.387  10.631  0.2079  0.0038  0.1628
  189POPC   C1221718   5.044   6.529  10.666  0.6790  0.5172  0.2800
  189POPC  H12A21719   5.102   6.594  10.602  0.3234 -0.2014 -0.8115
  189POPC  H12B21720   5.088   6.556  10.761  3.2343  2.2983 -1.2768
  189POPC   C1321721   5.232   6.384  10.624  0.3172  0.1342  0.5591
  189POPC  H13A21722   5.271   6.446  10.544  2.6255  1.7153  2.7706
  189POPC  H13B21723   5.283   6.425  10.710  2.0417  1.1724 -0.8881
  189POPC  H13C21724   5.264   6.282  10.614  0.3630  0.0614  1.3781
  189POPC   C1421725   5.046   6.295  10.742  0.1921 -0.1097  0.4821
  189POPC  H14A21726   5.076   6.338  10.837  0.0754  1.2894 -0.0908
  189POPC  H14B21727   4.940   6.275  10.742 -0.1268  1.2785  2.1734
  189POPC  H14C21728   5.091   6.197  10.737  0.0412 -0.1153 -1.4025
  189POPC   C1521729   5.030   6.347  10.500  0.5156 -0.3831  0.4165
  189POPC  H15A21730   5.052   6.244  10.475  0.1248 -0.6454  1.1332
  189POPC  H15B21731   5.058   6.410  10.416 -2.7283 -0.8513 -1.1795
  189POPC  H15C21732   4.922   6.351  10.499  0.4681 -1.3337  0.8050
  189POPC   C1121733   4.893   6.563  10.655  0.0636 -0.4228 -0.1392
  189POPC  H11A21734   4.872   6.663  10.699  0.9660 -0.1934 -0.2061
  189POPC  H11B21735   4.844   6.490  10.723 -0.1617  0.6436  0.8711
  189POPC     P21736   4.700   6.512  10.479 -0.0745 -0.5313 -0.0817
  189POPC   O1321737   4.608   6.556  10.583  0.6889  0.0334  0.2619
  189POPC   O1421738   4.702   6.367  10.455 -0.2723  0.3423  0.2384
  189POPC   O1221739   4.848   6.559  10.518  0.0183 -0.6592 -0.8433
  189POPC   O1121740   4.668   6.601  10.352  0.3467  0.2972  0.2466
  189POPC    C121741   4.601   6.540  10.239 -0.0116  0.8421 -0.1940
  189POPC    HA21742   4.506   6.486  10.261  1.0781 -1.6089 -1.1518
  189POPC    HB21743   4.679   6.475  10.194 -0.2835  0.6946 -0.4592
  189POPC    C221744   4.571   6.647  10.132  0.6218  0.6512  0.0042
  189POPC    HS21745   4.487   6.713  10.162  0.3470 -0.0723  0.8688
  189POPC   O2121746   4.517   6.574  10.016  0.0702 -0.3551  0.7625
  189POPC   C2121747   4.440   6.638   9.936  0.0369 -0.5172 -0.5167
  189POPC   O2221748   4.385   6.749   9.960  0.9866 -0.3318  0.5096
  189POPC   C2221749   4.434   6.569   9.801 -0.3913  0.2273  0.0394
  189POPC   H2R21750   4.345   6.503   9.806  1.3918 -2.3224  0.1813
  189POPC   H2S21751   4.529   6.515   9.781  0.1489  1.5108 -0.9610
  189POPC    C321752   4.694   6.730  10.087  0.6873 -0.1272 -0.4299
  189POPC    HX21753   4.768   6.652  10.059  0.0033 -0.3342 -1.7594
  189POPC    HY21754   4.744   6.778  10.173  2.7245 -1.7122 -0.6568
  189POPC   O3121755   4.680   6.823   9.972  0.3415 -0.0573  0.3497
  189POPC   C3121756   4.599   6.932   9.991 -0.5145 -0.0792 -0.5338
  189POPC   O3221757   4.564   6.964  10.105  0.8005  0.3009 -0.5437
  189POPC   C3221758   4.574   6.999   9.858 -0.2803 -0.5147  0.5324
  189POPC   H2X21759   4.536   6.920   9.790 -1.6714 -0.1230  0.8314
  189POPC   H2Y21760   4.670   7.036   9.817  0.1243  0.6444  2.3996
  189POPC   C2321761   4.434   6.669   9.679 -0.3443 -0.1259  0.1664
  189POPC   H3R21762   4.540   6.700   9.670  0.6091 -3.4795 -2.1142
  189POPC   H3S21763   4.362   6.753   9.685 -0.9017 -0.6604  1.4130
  189POPC   C2421764   4.401   6.599   9.545  0.6449 -0.5515 -0.7173
  189POPC   H4R21765   4.301   6.557   9.566  0.0201  0.2178 -2.0128
  189POPC   H4S21766   4.471   6.513   9.530  1.5066 -0.6298  2.9272
  189POPC   C2521767   4.394   6.683   9.426  0.5741  0.5087  0.9215
  189POPC   H5R21768   4.495   6.729   9.417  0.9828 -0.7752 -3.4555
  189POPC   H5S21769   4.323   6.766   9.446 -2.7736 -0.9796 -3.0866
  189POPC   C2621770   4.328   6.623   9.296  0.0049 -0.2365  0.1604
  189POPC   H6R21771   4.219   6.623   9.318 -0.0432  1.4135  0.0149
  189POPC   H6S21772   4.357   6.518   9.275  1.6432  0.2824 -0.3474
  189POPC   C2721773   4.332   6.730   9.188 -0.7055  1.0576 -0.0886
  189POPC   H7R21774   4.437   6.759   9.165 -0.3711 -0.8383 -1.1457
  189POPC   H7S21775   4.276   6.821   9.220  0.4406  2.0304 -0.7454
  189POPC   C2821776   4.276   6.691   9.049  0.2246  0.0523 -0.6704
  189POPC   H8R21777   4.331   6.598   9.020 -1.2691 -1.0985  0.0413
  189POPC   H8S21778   4.318   6.762   8.975  0.9755  1.4257  1.0002
  189POPC   C2921779   4.130   6.663   9.039 -0.1205 -0.2427 -0.3296
  189POPC   H9121780   4.078   6.657   9.136  0.4437 -0.6437 -0.0446
  189POPC  C21021781   4.053   6.675   8.931 -0.2144 -0.3038  0.4154
  189POPC  H10121782   3.944   6.664   8.941 -0.0253 -1.0450  1.7830
  189POPC  C21121783   4.116   6.710   8.795  0.5206  0.6653 -0.0233
  189POPC  H11R21784   4.188   6.628   8.773 -0.3867  0.3381 -1.9404
  189POPC  H11S21785   4.173   6.806   8.802  0.8384  0.3785  2.4854
  189POPC  C21221786   4.005   6.722   8.688 -0.0377  0.2720 -0.2187
  189POPC  H12R21787   3.935   6.808   8.693  0.3323  0.5839 -0.2942
  189POPC  H12S21788   3.944   6.630   8.676  0.5039 -0.3030  1.1586
  189POPC  C21321789   4.073   6.738   8.551  0.2234  0.1232  0.6011
  189POPC  H13R21790   4.154   6.662   8.545 -0.1442 -0.2632  0.4228
  189POPC  H13S21791   4.118   6.839   8.543 -2.0521  1.2007  0.5009
  189POPC  C21421792   3.991   6.710   8.420 -0.3520  0.5800  0.4423
  189POPC  H14R21793   3.974   6.601   8.405 -2.3078  0.5923  2.0362
  189POPC  H14S21794   4.039   6.744   8.326  0.5957 -1.1201  0.2759
  189POPC  C21521795   3.846   6.765   8.416 -0.0603  0.9927 -0.1761
  189POPC  H15R21796   3.805   6.733   8.514 -0.8188  3.0106  0.2123
  189POPC  H15S21797   3.785   6.717   8.336 -0.9421  0.2101  0.9348
  189POPC  C21621798   3.849   6.914   8.409 -0.4437  0.2414  0.1662
  189POPC  H16R21799   3.913   6.955   8.490 -0.7067  2.1675 -0.5573
  189POPC  H16S21800   3.744   6.943   8.429 -0.7231 -1.0958  0.7477
  189POPC  C21721801   3.876   6.965   8.267 -0.7842 -0.7331  0.8852
  189POPC  H17R21802   3.945   6.897   8.212 -0.2016  0.0112  0.6642
  189POPC  H17S21803   3.950   7.048   8.275  0.6982 -1.7948 -0.8337
  189POPC  C21821804   3.751   6.996   8.187 -0.3351  0.0299  0.3687
  189POPC  H18R21805   3.676   7.053   8.246  1.4770  1.1523  1.6828
  189POPC  H18S21806   3.703   6.899   8.162  0.5197 -0.0600 -1.0324
  189POPC  H18T21807   3.783   7.056   8.098  0.4504  0.1676  0.7389
  189POPC   C3321808   4.478   7.121   9.864  0.0011  0.0199 -0.0968
  189POPC   H3X21809   4.534   7.200   9.918  1.8767  0.0447 -1.9811
  189POPC   H3Y21810   4.388   7.089   9.923 -1.9881  1.6318 -2.0948
  189POPC   C3421811   4.441   7.176   9.728  0.1425  0.8829  0.1350
  189POPC   H4X21812   4.529   7.201   9.665 -1.1612  1.0670 -1.6928
  189POPC   H4Y21813   4.388   7.272   9.745 -0.5053  0.7112 -0.8062
  189POPC   C3521814   4.361   7.073   9.641 -0.0280 -0.7479 -0.3064
  189POPC   H5X21815   4.286   7.018   9.701 -2.1695  1.1562 -1.1098
  189POPC   H5Y21816   4.434   7.000   9.599 -1.6730 -1.6242 -1.7647
  189POPC   C3621817   4.281   7.146   9.537  0.7367  0.0620 -0.1855
  189POPC   H6X21818   4.350   7.198   9.467  1.1931  1.7875  1.4378
  189POPC   H6Y21819   4.214   7.226   9.575  1.6635  1.0553 -0.5922
  189POPC   C3721820   4.199   7.041   9.453 -0.1824  0.3854 -0.2110
  189POPC   H7X21821   4.147   6.973   9.525 -2.7952  0.9102 -1.4854
  189POPC   H7Y21822   4.276   6.984   9.397  0.2312 -1.0841  1.7348
  189POPC   C3821823   4.087   7.098   9.366  0.1343 -0.0026 -0.4205
  189POPC   H8X21824   4.019   7.158   9.430  1.3526  2.7019 -1.4761
  189POPC   H8Y21825   4.038   7.010   9.321  0.8621 -1.1817  1.0228
  189POPC   C3921826   4.157   7.187   9.262  0.1760 -0.3478 -0.6016
  189POPC   H9X21827   4.215   7.264   9.318  0.1093 -0.6504 -0.1084
  189POPC   H9Y21828   4.067   7.235   9.218 -0.6124 -1.9255 -0.7782
  189POPC  C31021829   4.225   7.125   9.132 -0.3168  0.3585  0.3868
  189POPC  H10X21830   4.314   7.076   9.176 -0.4448 -0.3782 -0.1578
  189POPC  H10Y21831   4.257   7.207   9.065 -2.0309  0.7485 -0.0044
  189POPC  C31121832   4.144   7.007   9.063 -0.4689  0.3505 -0.1389
  189POPC  H11X21833   4.104   6.940   9.141 -0.0143  0.2382  0.0033
  189POPC  H11Y21834   4.214   6.950   8.997  0.7981  1.4681  0.1848
  189POPC  C31221835   4.029   7.057   8.968 -0.1786 -0.2021  0.2269
  189POPC  H12X21836   3.956   7.102   9.038  1.1883  0.9266  0.9755
  189POPC  H12Y21837   3.989   6.960   8.930  2.3479 -1.5250  0.7103
  189POPC  C31321838   4.073   7.161   8.873 -0.7237 -0.3728 -0.1050
  189POPC  H13X21839   4.173   7.131   8.834 -1.1353  0.3867 -1.7928
  189POPC  H13Y21840   4.079   7.255   8.932 -0.3480 -0.0853 -0.6005
  189POPC  C31421841   3.986   7.157   8.746 -0.4798 -0.0001  0.1654
  189POPC  H14X21842   3.882   7.180   8.775  0.2064  2.2531  1.0261
  189POPC  H14Y21843   3.989   7.053   8.706 -1.2797 -0.1286  0.4281
  189POPC  C31521844   4.037   7.247   8.628  0.1647  0.4975 -0.5113
  189POPC  H15X21845   3.956   7.229   8.554 -0.2819  3.6448 -0.9377
  189POPC  H15Y21846   4.135   7.211   8.591 -0.0031 -1.6357  0.9179
  189POPC  C31621847   4.044   7.397   8.657 -0.5263 -0.3773 -0.2823
  189POPC  H16X21848   4.058   7.449   8.560 -1.3442  1.1556  0.3888
  189POPC  H16Y21849   4.125   7.416   8.731 -0.4100  1.3497 -0.8175
  189POPC  H16Z21850   3.953   7.430   8.710 -0.4815 -1.1827  0.3204
  190POPC     N21851   1.761   3.224  10.766  0.2198  0.4950 -0.5376
  190POPC   C1221852   1.617   3.185  10.725 -0.0906 -0.2041  0.1738
  190POPC  H12A21853   1.547   3.258  10.764 -0.0919  0.2442 -0.6454
  190POPC  H12B21854   1.584   3.091  10.768 -1.4142 -0.3329 -1.0485
  190POPC   C1321855   1.862   3.129  10.735 -0.4566 -0.4139 -0.4037
  190POPC  H13A21856   1.958   3.176  10.754 -0.3804 -0.8793  0.4263
  190POPC  H13B21857   1.860   3.043  10.800  0.7394 -1.3957 -1.5875
  190POPC  H13C21858   1.850   3.089  10.635 -2.5153 -1.4030  0.1980
  190POPC   C1421859   1.787   3.353  10.706 -0.1418 -0.5670  0.0196
  190POPC  H14A21860   1.890   3.384  10.720  0.0653 -1.8511  1.6994
  190POPC  H14B21861   1.772   3.346  10.599 -0.8932  1.3534 -0.0271
  190POPC  H14C21862   1.721   3.429  10.744  2.5468  1.2116  1.4601
  190POPC   C1521863   1.753   3.242  10.917 -0.0679 -0.1322 -0.6831
  190POPC  H15A21864   1.846   3.275  10.962  0.0744  0.8097 -1.6186
  190POPC  H15B21865   1.714   3.153  10.963  0.6144  0.0897  0.3678
  190POPC  H15C21866   1.675   3.314  10.935  1.9500  2.0828 -0.2889
  190POPC   C1121867   1.592   3.182  10.565 -0.6567  0.9679 -0.9620
  190POPC  H11A21868   1.691   3.156  10.521  0.2388  2.3685  0.1564
  190POPC  H11B21869   1.558   3.282  10.531  0.2459  1.4224 -0.5532
  190POPC     P21870   1.491   2.938  10.489  0.3545 -0.2666 -0.1682
  190POPC   O1321871   1.361   2.900  10.429  0.7637 -0.4925 -0.0677
  190POPC   O1421872   1.532   2.855  10.605 -0.4321 -0.3060 -0.2330
  190POPC   O1221873   1.488   3.092  10.531  0.1489 -0.1247  0.1397
  190POPC   O1121874   1.591   2.941  10.372 -0.8797 -0.0119  0.5485
  190POPC    C121875   1.585   3.012  10.243  0.2087  0.0686 -0.1824
  190POPC    HA21876   1.646   3.105  10.248  1.5359 -0.8207  3.6215
  190POPC    HB21877   1.481   3.045  10.220 -0.5895 -2.6236 -0.8335
  190POPC    C221878   1.617   2.905  10.133 -0.1983 -0.1960 -0.6478
  190POPC    HS21879   1.720   2.872  10.156 -1.2873 -2.0169  2.3181
  190POPC   O2121880   1.604   2.980  10.014  0.4008 -0.1064  0.2803
  190POPC   C2121881   1.690   2.945   9.918 -0.8065 -0.6869  0.6408
  190POPC   O2221882   1.798   2.897   9.928 -0.2248 -0.5666 -0.5868
  190POPC   C2221883   1.625   2.988   9.790 -0.0299 -0.2176  0.7525
  190POPC   H2R21884   1.635   3.098   9.779  0.5240 -0.5153 -2.9382
  190POPC   H2S21885   1.518   2.957   9.787 -0.7218  2.0249 -1.7781
  190POPC    C321886   1.517   2.788  10.135 -0.6538  0.4380  0.1111
  190POPC    HX21887   1.420   2.839  10.155 -0.9025  0.3144 -0.7351
  190POPC    HY21888   1.524   2.718  10.220 -1.0194  1.6262  1.1490
  190POPC   O3121889   1.517   2.716  10.012 -0.4591  0.3365  0.6477
  190POPC   C3121890   1.607   2.623  10.016 -0.6757  0.3488  0.7816
  190POPC   O3221891   1.688   2.597  10.102 -0.0854 -0.1833  0.0994
  190POPC   C3221892   1.595   2.539   9.887  0.7234  0.3148 -0.4329
  190POPC   H2X21893   1.583   2.605   9.799  2.1177 -1.9958 -2.4942
  190POPC   H2Y21894   1.498   2.488   9.904 -0.4739  1.8104 -2.3691
  190POPC   C2321895   1.696   2.912   9.679  0.0314 -0.0659 -0.2165
  190POPC   H3R21896   1.690   2.803   9.698  3.0467  0.0070  1.8280
  190POPC   H3S21897   1.805   2.933   9.680  0.0179  0.0176  0.8333
  190POPC   C2421898   1.637   2.954   9.542 -0.3362 -0.2692 -0.1110
  190POPC   H4R21899   1.661   3.061   9.526 -0.5415 -0.4478 -1.8549
  190POPC   H4S21900   1.526   2.942   9.540 -0.3380 -0.6043  0.9901
  190POPC   C2521901   1.698   2.875   9.424  0.4096 -0.4254  0.9086
  190POPC   H5R21902   1.703   2.766   9.446 -0.0824 -0.7589 -0.5222
  190POPC   H5S21903   1.798   2.920   9.409 -0.7125  2.5017  1.6144
  190POPC   C2621904   1.604   2.899   9.302  0.5443  0.0867  0.5351
  190POPC   H6R21905   1.602   3.006   9.272 -1.1697  0.1778  0.8699
  190POPC   H6S21906   1.502   2.863   9.327  1.1131 -1.0837  1.2538
  190POPC   C2721907   1.650   2.828   9.173  0.2236  0.0550 -0.4685
  190POPC   H7R21908   1.657   2.720   9.201 -1.6485 -0.7179 -2.6099
  190POPC   H7S21909   1.747   2.865   9.135 -0.2779  3.0940  0.9402
  190POPC   C2821910   1.551   2.833   9.046 -0.5741 -0.3827 -0.2076
  190POPC   H8R21911   1.445   2.824   9.078 -0.1293  0.8759  1.7540
  190POPC   H8S21912   1.573   2.752   8.973  1.0723 -0.2672  0.1386
  190POPC   C2921913   1.568   2.967   8.984  0.4685 -0.3010  0.2473
  190POPC   H9121914   1.488   3.034   9.018 -0.9962 -2.0139  0.3252
  190POPC  C21021915   1.668   3.010   8.910 -0.5718 -0.8781 -0.3745
  190POPC  H10121916   1.665   3.111   8.868  1.4354 -0.4053  0.5076
  190POPC  C21121917   1.793   2.931   8.867 -0.1664 -0.4044 -0.1120
  190POPC  H11R21918   1.835   2.854   8.935  1.3003 -0.2426 -0.7954
  190POPC  H11S21919   1.870   3.010   8.852  0.2484 -0.9688 -1.1066
  190POPC  C21221920   1.773   2.874   8.728  0.3243 -0.2210  0.2504
  190POPC  H12R21921   1.873   2.849   8.688  1.5301  1.5587  1.9906
  190POPC  H12S21922   1.733   2.956   8.665  0.0430  0.4439  1.2600
  190POPC  C21321923   1.693   2.743   8.711  0.0354  0.3302  0.0540
  190POPC  H13R21924   1.585   2.751   8.736 -0.3474 -2.3385 -0.4374
  190POPC  H13S21925   1.735   2.673   8.787  0.2458 -1.3003 -1.5006
  190POPC  C21421926   1.714   2.676   8.576 -0.0795  0.1664 -0.7789
  190POPC  H14R21927   1.666   2.576   8.583  0.5754 -0.0624  1.2563
  190POPC  H14S21928   1.823   2.660   8.561  0.4501  2.8799 -0.4331
  190POPC  C21521929   1.664   2.751   8.463  0.5245  0.1865  0.6852
  190POPC  H15R21930   1.721   2.847   8.457  0.3739  0.6750  4.4486
  190POPC  H15S21931   1.562   2.785   8.491  0.3459 -1.2718  1.8930
  190POPC  C21621932   1.664   2.680   8.325  0.5437  0.0677 -0.1808
  190POPC  H16R21933   1.639   2.758   8.250 -2.3626 -1.1828 -0.6255
  190POPC  H16S21934   1.597   2.592   8.333  1.6314 -0.6817  1.3531
  190POPC  C21721935   1.800   2.615   8.288 -0.2375 -0.0164 -0.2047
  190POPC  H17R21936   1.826   2.544   8.369 -2.6711 -0.8090 -0.0413
  190POPC  H17S21937   1.879   2.692   8.301 -0.3913  0.1203 -0.0650
  190POPC  C21821938   1.795   2.548   8.154  0.1092  0.2555 -0.2350
  190POPC  H18R21939   1.745   2.618   8.083  1.0118  0.6117 -0.5356
  190POPC  H18S21940   1.726   2.462   8.165 -0.8161  0.7727 -1.6546
  190POPC  H18T21941   1.888   2.501   8.116 -1.4163 -1.1781 -2.4570
  190POPC   C3321942   1.720   2.442   9.876  0.3160 -0.2621 -0.3239
  190POPC   H3X21943   1.754   2.388   9.967 -0.8616 -0.9307 -0.2552
  190POPC   H3Y21944   1.798   2.507   9.831  1.0761 -0.8643  0.0893
  190POPC   C3421945   1.691   2.351   9.758  0.5131 -0.5067 -0.4586
  190POPC   H4X21946   1.606   2.287   9.788  0.5703 -0.4485 -0.1694
  190POPC   H4Y21947   1.769   2.272   9.758 -0.3827 -1.4634 -2.4487
  190POPC   C3521948   1.669   2.418   9.628 -0.4296 -0.2408  0.1259
  190POPC   H5X21949   1.758   2.482   9.612  0.1919 -1.2451 -0.5086
  190POPC   H5Y21950   1.586   2.492   9.628 -1.5220 -1.4176  0.4958
  190POPC   C3621951   1.653   2.323   9.513  0.4688  0.0548  0.2138
  190POPC   H6X21952   1.546   2.293   9.513 -0.0033  1.6367  0.0185
  190POPC   H6Y21953   1.711   2.230   9.530  0.4029 -0.1576 -0.7098
  190POPC   C3721954   1.688   2.386   9.376 -0.6136  0.1971 -1.2106
  190POPC   H7X21955   1.792   2.421   9.391 -0.1637 -1.3338 -0.4706
  190POPC   H7Y21956   1.619   2.470   9.355 -0.3314  1.2468  1.5942
  190POPC   C3821957   1.691   2.283   9.259  0.2062 -0.2556 -0.2445
  190POPC   H8X21958   1.601   2.223   9.237 -0.0640  0.1312 -0.1974
  190POPC   H8Y21959   1.778   2.213   9.270  1.5504  0.9168 -2.6688
  190POPC   C3921960   1.744   2.351   9.134 -0.8167 -0.0954  0.5256
  190POPC   H9X21961   1.757   2.269   9.061 -4.1780  1.1762 -1.7808
  190POPC   H9Y21962   1.845   2.394   9.151 -0.7624 -0.1126  0.2558
  190POPC  C31021963   1.645   2.449   9.061  0.3663  0.0522  0.0577
  190POPC  H10X21964   1.707   2.480   8.974  1.7478 -0.3215  0.8982
  190POPC  H10Y21965   1.627   2.533   9.131  1.2864  0.1826  0.1479
  190POPC  C31121966   1.510   2.379   9.015  0.1456 -0.1200  0.3741
  190POPC  H11X21967   1.463   2.329   9.103 -0.1328  0.2833  0.4586
  190POPC  H11Y21968   1.536   2.296   8.946 -1.3789  0.2631 -0.7157
  190POPC  C31221969   1.413   2.469   8.946 -0.3801 -0.1364  0.1756
  190POPC  H12X21970   1.465   2.532   8.871  0.2172 -1.3428 -0.4666
  190POPC  H12Y21971   1.377   2.544   9.020 -0.5098  0.8980 -0.9172
  190POPC  C31321972   1.289   2.417   8.872  0.0218  0.2346 -0.4203
  190POPC  H13X21973   1.205   2.487   8.891  0.6659  0.9210 -0.0286
  190POPC  H13Y21974   1.273   2.321   8.924  1.2908  0.4315  0.3962
  190POPC  C31421975   1.305   2.410   8.718  0.4089  0.4445  0.5065
  190POPC  H14X21976   1.358   2.504   8.690 -0.9733  0.9929 -0.3221
  190POPC  H14Y21977   1.208   2.410   8.665  0.7342  0.0539 -0.0955
  190POPC  C31521978   1.401   2.304   8.662  0.2763  0.4134  0.3677
  190POPC  H15X21979   1.499   2.303   8.714  0.1904  1.1623  0.5644
  190POPC  H15Y21980   1.437   2.334   8.561 -1.3225  2.1202  0.2466
  190POPC  C31621981   1.338   2.166   8.660  0.8664  0.1007  0.0067
  190POPC  H16X21982   1.411   2.095   8.616 -0.5875 -0.9345 -0.8068
  190POPC  H16Y21983   1.240   2.162   8.609  0.3517  0.2510  0.9484
  190POPC  H16Z21984   1.300   2.138   8.761  0.5189 -1.2732 -0.4914
  191POPC     N21985   6.747   5.493   5.424 -0.1887 -0.4199  0.1776
  191POPC   C1221986   6.662   5.586   5.508  0.1837 -0.4311  0.1206
  191POPC  H12A21987   6.570   5.611   5.458 -0.4489 -1.4873  0.7256
  191POPC  H12B21988   6.719   5.677   5.517 -2.5621  1.3844  0.5992
  191POPC   C1321989   6.662   5.376   5.384 -0.1407  0.2044  0.4025
  191POPC  H13A21990   6.610   5.321   5.460 -1.3904  1.5176  0.5457
  191POPC  H13B21991   6.582   5.399   5.315  1.1491  3.2875 -0.2754
  191POPC  H13C21992   6.724   5.310   5.325 -1.3697  0.1387 -0.8761
  191POPC   C1421993   6.803   5.565   5.311 -0.0324  0.3870  0.6865
  191POPC  H14A21994   6.882   5.633   5.340 -0.8122  1.2130  0.9339
  191POPC  H14B21995   6.845   5.498   5.238 -2.6226  1.7609 -2.3058
  191POPC  H14C21996   6.723   5.611   5.256 -1.7080 -2.0070  0.9996
  191POPC   C1521997   6.844   5.426   5.520 -0.0016 -1.0208 -0.0399
  191POPC  H15A21998   6.886   5.341   5.468  0.5918 -0.1542 -1.0099
  191POPC  H15B21999   6.778   5.386   5.596 -2.2674  1.0500 -0.8024
  191POPC  H15C22000   6.922   5.490   5.560 -0.2486 -1.2096  0.7674
  191POPC   C1122001   6.616   5.539   5.651  0.1666  0.5435 -0.6649
  191POPC  H11A22002   6.545   5.615   5.691  0.5215  1.0520 -0.9932
  191POPC  H11B22003   6.708   5.540   5.714 -0.2305 -0.4726 -0.0340
  191POPC     P22004   6.556   5.292   5.749  0.0779  0.0497 -0.0803
  191POPC   O1322005   6.696   5.236   5.734  0.3254  0.2871 -0.4748
  191POPC   O1422006   6.441   5.203   5.723  0.6036 -0.8117  0.2312
  191POPC   O1222007   6.537   5.420   5.656  0.3658  0.0830  0.1244
  191POPC   O1122008   6.537   5.358   5.898  0.5104  0.9930  0.2174
  191POPC    C122009   6.430   5.446   5.914  0.3025 -0.0986  0.8288
  191POPC    HA22010   6.357   5.444   5.831  0.6644 -0.8671  0.5177
  191POPC    HB22011   6.475   5.547   5.911  1.8823 -0.7933  0.0117
  191POPC    C222012   6.358   5.423   6.049  0.7632  0.6396 -1.5088
  191POPC    HS22013   6.274   5.495   6.053  1.4783  1.5533 -2.4246
  191POPC   O2122014   6.454   5.432   6.161  0.2518  0.5841 -0.6620
  191POPC   C2122015   6.480   5.549   6.203 -0.3505  0.4762  0.4014
  191POPC   O2222016   6.434   5.649   6.153 -0.0483 -0.6898  0.4607
  191POPC   C2222017   6.554   5.544   6.337 -0.0438  0.2807 -0.2774
  191POPC   H2R22018   6.649   5.491   6.313 -0.3293  0.2769 -1.5096
  191POPC   H2S22019   6.505   5.471   6.405  1.7493 -0.7379  0.0021
  191POPC    C322020   6.299   5.280   6.041 -0.3099  0.3977 -0.6654
  191POPC    HX22021   6.388   5.218   6.015 -0.5783  0.7723 -2.6245
  191POPC    HY22022   6.223   5.268   5.961 -1.3120 -1.5654  0.4978
  191POPC   O3122023   6.241   5.245   6.173 -0.0203 -0.0369  0.4638
  191POPC   C3122024   6.102   5.254   6.187  0.0749  0.8034  0.1587
  191POPC   O3222025   6.025   5.295   6.105 -0.9742  0.3542  0.0155
  191POPC   C3222026   6.058   5.221   6.329  0.3836  0.0696 -0.4192
  191POPC   H2X22027   6.108   5.299   6.391  0.0853 -0.5774  0.6624
  191POPC   H2Y22028   6.098   5.120   6.354 -0.4598  0.2040  1.6069
  191POPC   C2322029   6.578   5.685   6.394  0.0474 -0.3739 -0.3217
  191POPC   H3R22030   6.483   5.730   6.431 -0.6354  0.6724 -3.0750
  191POPC   H3S22031   6.627   5.752   6.321 -1.1359  2.5412  1.3805
  191POPC   C2422032   6.669   5.685   6.523 -0.0188  0.3960 -0.9615
  191POPC   H4R22033   6.695   5.786   6.560  1.3629 -0.6988  1.3017
  191POPC   H4S22034   6.769   5.662   6.481 -0.1573  1.7618 -2.1055
  191POPC   C2522035   6.618   5.595   6.636 -0.1635 -1.0377  0.4759
  191POPC   H5R22036   6.611   5.488   6.606 -1.0764 -2.0073  3.7080
  191POPC   H5S22037   6.510   5.615   6.652 -0.0444  0.5849 -0.5928
  191POPC   C2622038   6.698   5.591   6.761  0.2774  1.2889  0.2274
  191POPC   H6R22039   6.691   5.694   6.801 -0.2098  1.1991  0.3712
  191POPC   H6S22040   6.803   5.562   6.739  0.6956  2.6981  0.3254
  191POPC   C2722041   6.638   5.483   6.854 -0.2517 -0.3161 -0.1437
  191POPC   H7R22042   6.634   5.382   6.808  1.0203  0.3613 -1.8625
  191POPC   H7S22043   6.531   5.507   6.872  0.0506 -0.6216  2.4105
  191POPC   C2822044   6.706   5.487   6.997 -0.3333 -0.1510  0.0705
  191POPC   H8R22045   6.815   5.475   6.978 -0.7113 -0.3542 -2.2604
  191POPC   H8S22046   6.666   5.400   7.053  0.0752 -0.8434 -0.6881
  191POPC   C2922047   6.686   5.616   7.072 -0.6861 -0.1968 -0.0423
  191POPC   H9122048   6.627   5.693   7.020 -2.0379 -0.8637  0.4550
  191POPC  C21022049   6.735   5.639   7.197 -0.9141 -0.2223 -0.0057
  191POPC  H10122050   6.733   5.742   7.235 -0.0108  0.2908 -1.3110
  191POPC  C21122051   6.821   5.531   7.268 -0.3114  0.5659 -0.3412
  191POPC  H11R22052   6.923   5.524   7.225 -0.5601  2.1783 -1.2544
  191POPC  H11S22053   6.773   5.432   7.248 -0.8453  0.9829 -1.1320
  191POPC  C21222054   6.838   5.572   7.414 -0.1259  0.1222 -0.4685
  191POPC  H12R22055   6.867   5.679   7.415  1.8611 -0.3123 -2.4174
  191POPC  H12S22056   6.920   5.522   7.470  0.8324  0.0306 -1.8824
  191POPC  C21322057   6.711   5.550   7.502 -0.4563 -0.4257 -0.4731
  191POPC  H13R22058   6.686   5.442   7.500  2.9265 -1.3732  0.8829
  191POPC  H13S22059   6.630   5.615   7.461 -0.7258 -0.7833 -0.5039
  191POPC  C21422060   6.728   5.601   7.645 -0.3228  0.2065 -0.1710
  191POPC  H14R22061   6.755   5.708   7.635  2.3066 -0.4903 -1.2972
  191POPC  H14S22062   6.820   5.555   7.687  0.3434  1.6359 -0.0248
  191POPC  C21522063   6.616   5.560   7.745 -0.2293  0.5524 -0.1179
  191POPC  H15R22064   6.595   5.455   7.718 -2.0734  1.2210 -1.4949
  191POPC  H15S22065   6.531   5.628   7.722 -1.6698 -0.7770  0.9726
  191POPC  C21622066   6.639   5.570   7.895 -0.7050 -0.3286  0.1252
  191POPC  H16R22067   6.704   5.481   7.910 -1.0994 -0.6538 -0.0572
  191POPC  H16S22068   6.540   5.557   7.945  0.7506 -2.0701  2.8263
  191POPC  C21722069   6.715   5.697   7.932 -0.6985 -0.6297  1.0097
  191POPC  H17R22070   6.664   5.790   7.899 -0.4231 -1.3226 -1.6838
  191POPC  H17S22071   6.817   5.698   7.886 -0.9860 -1.7407  0.3043
  191POPC  C21822072   6.737   5.697   8.082  0.4958  0.0455 -0.8203
  191POPC  H18R22073   6.791   5.606   8.115  1.7560  0.9509 -0.3037
  191POPC  H18S22074   6.645   5.717   8.140  2.0866 -0.2641  1.9743
  191POPC  H18T22075   6.809   5.777   8.113  0.2711 -1.0148  2.8108
  191POPC   C3322076   5.910   5.231   6.349 -0.6635 -0.3062 -0.0959
  191POPC   H3X22077   5.851   5.158   6.291 -0.8741 -1.0929  1.0844
  191POPC   H3Y22078   5.897   5.338   6.321  0.6975  0.0076  0.3862
  191POPC   C3422079   5.875   5.220   6.501  0.0150  0.6047  0.2178
  191POPC   H4X22080   5.768   5.240   6.521  0.1110 -0.3896  1.8763
  191POPC   H4Y22081   5.934   5.289   6.564  0.9240 -1.7247  2.0677
  191POPC   C3522082   5.921   5.081   6.560  0.6691 -0.4018 -0.3824
  191POPC   H5X22083   6.031   5.079   6.545  0.7942  0.4508  0.3396
  191POPC   H5Y22084   5.877   4.994   6.506  1.3292 -0.4530 -0.8495
  191POPC   C3622085   5.892   5.084   6.714  0.0629 -0.2791  0.0518
  191POPC   H6X22086   5.782   5.088   6.726 -0.1821 -1.4827 -1.4655
  191POPC   H6Y22087   5.933   5.173   6.767  0.9826  0.9054 -2.4671
  191POPC   C3722088   5.936   4.955   6.788 -0.3994 -0.5703  0.1117
  191POPC   H7X22089   6.046   4.951   6.778 -0.3905 -0.0737  0.0025
  191POPC   H7Y22090   5.888   4.863   6.746 -0.6852 -1.0155  1.3690
  191POPC   C3822091   5.895   4.961   6.937  0.5874  0.7178 -0.0940
  191POPC   H8X22092   5.785   4.961   6.950  0.7718 -0.6841  2.2313
  191POPC   H8Y22093   5.937   5.049   6.989  0.3110  0.2831  0.8996
  191POPC   C3922094   5.953   4.836   7.003  1.0070  0.4528  0.3396
  191POPC   H9X22095   6.063   4.830   6.983  0.5895 -2.6969 -1.6231
  191POPC   H9Y22096   5.915   4.738   6.967  1.4612  0.5318 -0.3927
  191POPC  C31022097   5.942   4.847   7.161 -0.0345 -0.9669 -0.7826
  191POPC  H10X22098   5.839   4.826   7.197 -0.7381  1.7596 -0.9916
  191POPC  H10Y22099   5.971   4.952   7.179 -2.3963  0.2432 -3.3353
  191POPC  C31122100   6.043   4.754   7.230 -0.5586  0.3513 -0.1347
  191POPC  H11X22101   6.146   4.779   7.197 -0.7617 -0.9641 -1.8686
  191POPC  H11Y22102   6.019   4.653   7.191 -1.8711  1.4456 -2.3174
  191POPC  C31222103   6.018   4.754   7.384  0.2233 -0.9597 -0.0970
  191POPC  H12X22104   5.913   4.721   7.397 -0.8700  1.7110 -1.4860
  191POPC  H12Y22105   6.033   4.855   7.427 -0.1484 -0.6922 -0.5911
  191POPC  C31322106   6.120   4.676   7.464  0.2360 -0.1326 -0.3322
  191POPC  H13X22107   6.222   4.716   7.447 -0.9745  2.8332 -1.3011
  191POPC  H13Y22108   6.136   4.575   7.422  0.4422 -0.2799  0.0982
  191POPC  C31422109   6.087   4.660   7.612  0.1996 -0.2439  0.0849
  191POPC  H14X22110   6.018   4.574   7.615  1.9813 -1.7193  1.4159
  191POPC  H14Y22111   6.048   4.752   7.660 -2.4739 -1.0776 -0.3451
  191POPC  C31522112   6.204   4.611   7.697  0.3886 -0.3578 -0.2226
  191POPC  H15X22113   6.162   4.626   7.799 -0.2451 -3.8939  0.1513
  191POPC  H15Y22114   6.295   4.672   7.682 -0.2907  0.6177 -0.4325
  191POPC  C31622115   6.239   4.461   7.703 -0.0721  0.6638  0.2676
  191POPC  H16X22116   6.275   4.414   7.609  0.2421 -0.3278  0.8625
  191POPC  H16Y22117   6.145   4.409   7.734  1.6784 -2.1470  1.2235
  191POPC  H16Z22118   6.313   4.448   7.785  1.4188  1.6996 -0.8748
  192POPC     N22119   2.175   1.685   5.698 -0.4784 -0.2038 -0.2837
  192POPC   C1222120   2.201   1.652   5.848  0.3550  0.1855 -0.0499
  192POPC  H12A22121   2.234   1.549   5.859 -0.5561 -0.2052 -0.8256
  192POPC  H12B22122   2.103   1.658   5.893  1.4539 -0.2716  2.5884
  192POPC   C1322123   2.318   1.705   5.650 -0.3442 -0.3157 -0.5295
  192POPC  H13A22124   2.385   1.621   5.658 -0.9388 -0.6644  1.2023
  192POPC  H13B22125   2.312   1.746   5.551  1.4397  1.4817  0.0405
  192POPC  H13C22126   2.372   1.781   5.705  1.4521 -2.0103  0.1557
  192POPC   C1422127   2.122   1.566   5.632  0.4634  0.1276  0.5503
  192POPC  H14A22128   2.185   1.478   5.638 -0.7136 -0.7815  0.1854
  192POPC  H14B22129   2.024   1.548   5.673  1.1366 -0.5231  1.9493
  192POPC  H14C22130   2.104   1.595   5.529 -0.3939  0.1242  0.6930
  192POPC   C1522131   2.098   1.811   5.678 -0.0351  0.1317  0.0913
  192POPC  H15A22132   2.081   1.846   5.577 -1.5302 -0.3522  0.1579
  192POPC  H15B22133   2.154   1.885   5.734 -1.2482  1.7230 -0.7015
  192POPC  H15C22134   2.005   1.792   5.730  0.2873 -2.0497 -0.0366
  192POPC   C1122135   2.296   1.746   5.935  0.0093  0.7877  0.6574
  192POPC  H11A22136   2.402   1.737   5.904 -0.1091  1.5808 -0.0339
  192POPC  H11B22137   2.284   1.707   6.038 -0.0432 -0.7811  0.0826
  192POPC     P22138   2.159   1.943   6.032  0.0072  0.4194  0.1381
  192POPC   O1322139   2.055   1.845   6.081 -0.5387 -0.0230 -0.4952
  192POPC   O1422140   2.114   2.068   5.971  0.1154 -0.2275 -0.1815
  192POPC   O1222141   2.257   1.880   5.927  0.2739 -0.0899  0.1140
  192POPC   O1122142   2.250   1.989   6.152  0.3556 -0.2414  0.0188
  192POPC    C122143   2.391   1.995   6.145 -0.4409 -0.2455  0.9718
  192POPC    HA22144   2.411   2.093   6.097 -2.2038 -1.0485 -1.6399
  192POPC    HB22145   2.436   1.921   6.076  2.1420  0.1378  2.1156
  192POPC    C222146   2.444   1.979   6.289 -0.0264  0.0863 -0.3861
  192POPC    HS22147   2.554   1.985   6.300 -0.2031  1.8141  0.8917
  192POPC   O2122148   2.373   1.867   6.359 -0.2251 -0.5069  0.0748
  192POPC   C2122149   2.413   1.743   6.315 -0.4778 -0.5655 -0.4291
  192POPC   O2222150   2.494   1.732   6.224 -0.3199  0.5530 -0.3498
  192POPC   C2222151   2.347   1.634   6.403  0.3957 -0.2846  0.2109
  192POPC   H2R22152   2.422   1.560   6.438  2.1310  0.9375 -0.7829
  192POPC   H2S22153   2.274   1.593   6.329  0.0756 -0.2872  0.5267
  192POPC    C322154   2.384   2.108   6.364 -0.4106  0.8111  0.1056
  192POPC    HX22155   2.284   2.129   6.319  0.3697  2.6671 -0.8766
  192POPC    HY22156   2.446   2.194   6.330 -0.0535  0.9146  0.9957
  192POPC   O3122157   2.366   2.085   6.505  0.6094 -0.2683 -0.0588
  192POPC   C3122158   2.478   2.122   6.575 -0.1312  0.2558 -0.1913
  192POPC   O3222159   2.581   2.157   6.525 -0.5774  0.0626  0.4969
  192POPC   C3222160   2.443   2.109   6.722 -0.0630  0.3297  0.6783
  192POPC   H2X22161   2.399   2.009   6.739 -1.6079  0.8252 -0.1592
  192POPC   H2Y22162   2.354   2.172   6.745 -1.8843 -2.0624  0.5761
  192POPC   C2322163   2.256   1.684   6.523  0.3253 -0.3834  0.6087
  192POPC   H3R22164   2.195   1.598   6.557 -0.0649 -0.7694 -1.0249
  192POPC   H3S22165   2.200   1.775   6.491  1.6865 -0.0202 -0.8734
  192POPC   C2422166   2.342   1.726   6.643  0.0920  0.4097 -0.4482
  192POPC   H4R22167   2.394   1.819   6.611  0.2420 -0.4132 -2.8192
  192POPC   H4S22168   2.417   1.646   6.654  1.0058  1.3095  0.0899
  192POPC   C2522169   2.277   1.739   6.787  0.3021 -0.3658  0.8025
  192POPC   H5R22170   2.352   1.768   6.864  1.4798  1.5940 -0.9645
  192POPC   H5S22171   2.250   1.638   6.825  2.3110 -1.3692 -0.2604
  192POPC   C2622172   2.158   1.832   6.797  1.0132 -0.3003 -0.9060
  192POPC   H6R22173   2.098   1.794   6.712 -0.5481 -2.9081  1.2241
  192POPC   H6S22174   2.187   1.939   6.785  0.8831 -0.0017  1.0021
  192POPC   C2722175   2.081   1.801   6.932  0.0086 -0.5089  0.1270
  192POPC   H7R22176   2.147   1.795   7.021 -0.1143  1.4288  0.3897
  192POPC   H7S22177   2.037   1.701   6.909 -1.5319  0.0168  0.7076
  192POPC   C2822178   1.960   1.898   6.959 -0.3474  0.4384  0.7217
  192POPC   H8R22179   1.901   1.895   6.865 -1.3490 -1.1319  1.3682
  192POPC   H8S22180   2.010   1.996   6.972  1.6917 -0.4349 -0.0270
  192POPC   C2922181   1.870   1.849   7.078 -0.2308 -0.0805  0.5432
  192POPC   H9122182   1.765   1.825   7.054 -0.2743 -0.0832  0.7404
  192POPC  C21022183   1.891   1.854   7.209  0.3194 -0.0306  0.7611
  192POPC  H10122184   1.809   1.828   7.279  0.3387 -1.4135  0.3058
  192POPC  C21122185   2.027   1.873   7.280 -0.4389 -0.0069  0.6893
  192POPC  H11R22186   2.052   1.978   7.306  1.1127 -0.6320  1.9137
  192POPC  H11S22187   2.103   1.827   7.214  0.0157  1.5971  0.0448
  192POPC  C21222188   2.038   1.789   7.415  0.0644 -0.3059  0.9111
  192POPC  H12R22189   2.145   1.791   7.444 -0.2827 -1.1231  2.2946
  192POPC  H12S22190   2.011   1.682   7.403 -0.1041 -0.0254 -1.8900
  192POPC  C21322191   1.952   1.859   7.524 -0.6793  0.5588 -0.1357
  192POPC  H13R22192   1.845   1.874   7.501 -0.3228  1.5238 -1.2670
  192POPC  H13S22193   1.996   1.960   7.535 -0.4648  0.4649 -0.1154
  192POPC  C21422194   1.962   1.773   7.646 -0.7149  0.0520 -0.5612
  192POPC  H14R22195   1.942   1.668   7.617 -0.8303  0.5712 -2.4642
  192POPC  H14S22196   1.880   1.817   7.707  1.0937  1.2454  1.1400
  192POPC  C21522197   2.103   1.775   7.709 -0.1495 -0.7107 -0.4705
  192POPC  H15R22198   2.150   1.873   7.686  1.8486 -1.1769  1.3076
  192POPC  H15S22199   2.165   1.688   7.681  0.5070 -0.3233 -0.2307
  192POPC  C21622200   2.084   1.771   7.868 -0.2966  0.6340 -0.0353
  192POPC  H16R22201   2.032   1.677   7.895 -1.1697  0.9435 -0.6180
  192POPC  H16S22202   2.019   1.856   7.897  0.6664  0.6571  2.3042
  192POPC  C21722203   2.220   1.781   7.932  0.0095  0.1447 -0.1527
  192POPC  H17R22204   2.269   1.865   7.879  2.2956 -0.7339  0.4641
  192POPC  H17S22205   2.269   1.684   7.910 -2.4802 -0.7204 -2.4712
  192POPC  C21822206   2.214   1.802   8.089 -0.4343 -0.1920  0.3710
  192POPC  H18R22207   2.169   1.714   8.138  0.2539  1.0038  3.3725
  192POPC  H18S22208   2.162   1.895   8.122 -0.8614  0.3886 -1.7752
  192POPC  H18T22209   2.317   1.806   8.131 -0.8718 -2.1834  1.7663
  192POPC   C3322210   2.561   2.134   6.824 -0.1231 -0.1215  0.0599
  192POPC   H3X22211   2.621   2.227   6.812  1.1731 -0.9315  0.0610
  192POPC   H3Y22212   2.639   2.055   6.820 -1.2444 -1.2663  0.2918
  192POPC   C3422213   2.507   2.142   6.972  0.0725 -0.1564 -0.4544
  192POPC   H4X22214   2.438   2.229   6.972 -3.0372 -2.4167 -2.2716
  192POPC   H4Y22215   2.598   2.169   7.030 -1.1120  1.8319  0.6254
  192POPC   C3522216   2.457   2.008   7.032 -0.1444 -0.6036  0.4576
  192POPC   H5X22217   2.516   1.925   6.986 -2.2764 -2.3575  0.6879
  192POPC   H5Y22218   2.353   1.978   7.005  0.8031 -3.2093 -0.6562
  192POPC   C3622219   2.467   2.002   7.186  0.5549  0.5554 -0.7390
  192POPC   H6X22220   2.561   2.044   7.229  1.0981  1.9016 -3.0693
  192POPC   H6Y22221   2.455   1.898   7.224  0.8929  0.2669 -1.4045
  192POPC   C3722222   2.356   2.083   7.252 -0.7113 -0.1313 -0.4788
  192POPC   H7X22223   2.259   2.051   7.209 -0.8300 -1.0421  0.4333
  192POPC   H7Y22224   2.368   2.191   7.227  0.3226  0.3665  1.8748
  192POPC   C3822225   2.341   2.051   7.399  0.6526  0.0795 -0.0081
  192POPC   H8X22226   2.307   1.947   7.419  0.2892  0.3517  0.8233
  192POPC   H8Y22227   2.251   2.104   7.436  0.9941 -0.1031  1.1054
  192POPC   C3922228   2.466   2.087   7.488 -0.4647  0.3232 -0.6584
  192POPC   H9X22229   2.491   2.195   7.482  0.6141  0.1894  0.9552
  192POPC   H9Y22230   2.553   2.027   7.456 -1.9168 -1.2346 -1.8960
  192POPC  C31022231   2.416   2.069   7.636  0.1714 -0.2261 -1.2397
  192POPC  H10X22232   2.372   1.969   7.658  0.7166 -0.1962  0.0601
  192POPC  H10Y22233   2.343   2.147   7.667  0.9213 -0.5837  1.7161
  192POPC  C31122234   2.525   2.088   7.744 -1.2250 -0.1666 -0.3347
  192POPC  H11X22235   2.556   2.193   7.727  5.2378 -1.5504  0.4357
  192POPC  H11Y22236   2.616   2.041   7.701 -1.8209 -1.4862 -0.2165
  192POPC  C31222237   2.517   2.038   7.886 -0.1352 -0.2986  0.6056
  192POPC  H12X22238   2.495   1.929   7.895 -0.7144 -0.2443 -0.0517
  192POPC  H12Y22239   2.436   2.091   7.941  0.4883  1.3242  0.0019
  192POPC  C31322240   2.650   2.049   7.963 -0.2508  0.1669 -0.0974
  192POPC  H13X22241   2.672   2.158   7.964  1.4495 -0.1218 -1.1420
  192POPC  H13Y22242   2.728   2.001   7.901 -1.5912  0.4743 -2.1147
  192POPC  C31422243   2.655   1.989   8.103 -0.3764 -0.4299  0.0707
  192POPC  H14X22244   2.578   2.026   8.174  0.0736  0.2325  0.2180
  192POPC  H14Y22245   2.753   2.023   8.144 -0.1554  0.6838 -1.3107
  192POPC  C31522246   2.668   1.836   8.104 -0.0340  0.1449 -0.4043
  192POPC  H15X22247   2.727   1.794   8.019  1.5614  1.5801 -0.0540
  192POPC  H15Y22248   2.565   1.796   8.093  0.5674 -2.1018  1.3994
  192POPC  C31622249   2.728   1.781   8.233  0.2356 -0.2875 -0.1883
  192POPC  H16X22250   2.719   1.670   8.242 -0.0973 -0.3523 -1.1231
  192POPC  H16Y22251   2.669   1.816   8.321  1.2488  0.1841  0.3159
  192POPC  H16Z22252   2.832   1.812   8.255  0.0928 -0.8479  1.3782
  193SOD    SOD22253   4.091   2.137  10.810  0.2094 -0.3350  0.3691
  194SOD    SOD22254   0.042   4.717   1.602  0.1429 -0.1785 -0.0710
  195SOD    SOD22255   4.745   2.552  12.291  0.5280 -0.5089 -0.1845
  196SOD    SOD22256   3.694   0.249  11.992  0.0625 -0.1705  0.0390
  197SOD    SOD22257   4.256   0.655   1.362  0.1816  0.0167  0.1544
  198SOD    SOD22258   3.223   1.717   6.018 -0.3024  0.0334 -0.3288
  199SOD    SOD22259   2.090   4.068   3.914 -0.0651  0.4306 -0.1682
  200SOD    SOD22260   6.802   4.807   5.640  0.3213  0.0527  0.9708
  201SOD    SOD22261   0.573   0.926   0.667  0.1300  0.4311  0.2553
  202SOD    SOD22262   3.440   4.138  10.593  0.1629 -0.3390 -0.4395
  203SOD    SOD22263   2.495   1.869  10.958 -0.2876  0.1589  0.2209
  204SOD    SOD22264   3.088   1.608   1.881  0.2673 -0.3594 -0.3069
  205SOD    SOD22265   3.080   3.865  13.302 -0.2546 -0.3082 -0.0103
  206SOD    SOD22266   3.415   1.617  12.536 -0.3822  0.1974 -0.1560
  207SOD    SOD22267   1.083   6.077  14.007  0.1488 -0.0196 -0.4221
  208SOD    SOD22268   3.605   5.897   3.970 -0.2149 -0.0770  0.0112
  209SOD    SOD22269   2.032   4.581  14.431  0.2388 -0.2187 -0.0787
  210SOD    SOD22270   0.796   3.166   6.369  0.0533 -0.0327  0.1815
  211SOD    SOD22271   3.356   4.765   5.840  0.2076 -0.5565  0.2888
  212SOD    SOD22272   0.062   5.415  11.178  0.2184  0.0504 -0.1126
  213SOD    SOD22273   5.800   6.049  10.569  0.5895 -0.1827 -0.5244
  214SOD    SOD22274   2.358   6.179  14.274  0.1821 -0.0917 -0.0780
  215SOD    SOD22275   4.693   3.143   3.926 -0.7053  0.3263  0.0007
  216SOD    SOD22276   1.886   1.097  15.722  0.8059 -0.0812  0.5921
  217SOD    SOD22277   0.297   5.901   5.450  0.1275  0.0725  0.3154
  218SOD    SOD22278   3.021   5.513  11.625  0.1326  0.5738 -0.0770
  219SOD    SOD22279   2.465   5.996   1.343  0.4447 -0.4529  0.1440
  220SOD    SOD22280   5.124   3.254  11.620 -0.2787 -1.1674  0.2187
  221SOD    SOD22281   4.603   0.911   4.598 -0.0139 -0.0856  0.3396
  222SOD    SOD22282   3.334   5.629  13.493  0.4146  0.2380  0.2362
  223SOD    SOD22283   6.245   5.193  12.265  0.3268 -0.6782 -0.1658
  224SOD    SOD22284   0.634   0.489  15.452 -0.0534  0.2506  0.6327
  225SOD    SOD22285   1.143   2.414   5.305  0.0999 -0.0819 -0.1987
  226SOD    SOD22286   0.906   4.812   0.935  0.2746  0.3120  0.3555
  227SOD    SOD22287   3.013   3.775   4.975  0.4537 -0.2637 -0.3380
  228SOD    SOD22288   0.913   2.373  11.519 -0.2369  0.1484 -0.2531
  229SOD    SOD22289   3.576   1.466   3.709  0.0714  0.4666 -0.0802
  230SOD    SOD22290   1.773   0.949   3.424  0.0509 -0.5415 -0.3632
  231SOD    SOD22291   0.322   6.066  10.580  0.0181  0.6705 -0.0204
  232SOD    SOD22292   2.312   3.369   3.672  0.0540  0.6301  0.3934
  233SOD    SOD22293   5.770   2.687  10.422  0.7013 -0.2853  0.1086
  234SOD    SOD22294   6.253   4.232   5.563 -0.1043 -0.0049 -0.2307
  235SOD    SOD22295   1.660   4.515   3.980  0.8736 -0.0848 -0.1643
  236SOD    SOD22296   6.520   1.912   0.905  0.4256 -0.2257  0.0255
  237SOD    SOD22297   1.531   3.288  14.462 -0.0816 -0.4477  0.5657
  238SOD    SOD22298   4.134   2.139  12.472  0.7793 -0.0481  0.3260
  239SOD    SOD22299   4.609   0.872  11.060 -0.3249  0.2249  0.0936
  240SOD    SOD22300   4.591   2.900  16.086 -0.2959 -0.4683  0.3595
  241SOD    SOD22301   5.127   6.295   2.338 -0.1937 -0.1962  0.1846
  242SOD    SOD22302   1.178   5.183   0.285 -0.6657  0.3940  0.2316
  243SOD    SOD22303   3.583   0.148   2.867 -0.1832  0.2019  0.7727
  244SOD    SOD22304   4.130   2.244  13.959 -0.1347 -0.0403  0.3909
  245SOD    SOD22305   5.056   4.250   2.973 -0.0718 -0.0841 -0.4574
  246SOD    SOD22306   2.541   0.920   4.788 -0.1302  0.4425 -0.0531
  247SOD    SOD22307   2.888   3.891  11.501 -0.4096  0.4177  0.0722
  248SOD    SOD22308   5.917   2.881   5.534 -0.3984  0.7145 -0.0547
  249SOD    SOD22309   0.711   0.087  13.041 -0.2827  0.3887  0.0524
  250SOD    SOD22310   5.043   5.101   1.130 -0.0075  0.3592 -0.4061
  251SOD    SOD22311   6.339   0.662   1.306 -0.1906 -0.0712  0.2471
  252SOD    SOD22312   6.042   1.781  10.428 -0.5262  0.3638 -0.2558
  253SOD    SOD22313   4.918   4.252  12.952 -0.3588 -0.1167  0.0656
  254SOD    SOD22314   2.105   5.753   3.318 -0.1534 -0.4535  0.5730
  255SOD    SOD22315   5.964   2.768  11.145 -0.1105 -0.1221  0.6066
  256SOD    SOD22316   2.300   0.223  10.618 -0.1524  0.2018 -0.2586
  257SOD    SOD22317   5.315   1.917   0.378 -0.0362  0.1116  0.0765
  258SOD    SOD22318   3.013   6.882  13.609  0.3799  0.2679  0.2841
  259SOD    SOD22319   2.906   6.407  15.789 -0.1042  0.0130  0.0564
  260SOD    SOD22320   0.261   3.865  15.303 -0.1699  0.0671 -0.0815
  261SOD    SOD22321   2.998   3.136   6.322  0.4944  0.3138 -0.5895
  262SOD    SOD22322   2.353   3.795  16.580 -0.0681  0.1202  0.0047
  263SOD    SOD22323   6.031   4.530  10.318 -0.0086  0.3535  0.3669
  264SOD    SOD22324   0.225   6.591   5.459  0.4301 -0.0900  0.3389
  265SOD    SOD22325   4.314   4.819   0.979 -0.2400  0.4864 -0.0620
  266SOD    SOD22326   0.899   6.050   1.805  0.1786  0.3743 -0.4931
  267SOD    SOD22327   4.039   6.149   4.744 -0.2655 -0.5055 -0.4158
  268SOD    SOD22328   6.848   3.273   1.291  0.3240 -0.1354 -0.1015
  269SOD    SOD22329   3.981   4.335  13.999 -1.1031 -0.4118  0.0934
  270CLA    CLA22330   5.558   5.223  13.378 -0.2578  0.1143 -0.4352
  271CLA    CLA22331   5.158   2.308   4.240  0.2846  0.2519 -0.1504
  272CLA    CLA22332   4.947   2.091  12.331 -0.3942  0.1154  0.1262
  273CLA    CLA22333   2.343   5.818  13.296  0.1861 -0.4035 -0.0785
  274CLA    CLA22334   5.811   0.555   3.441  0.2161 -0.3053 -0.0455
  275CLA    CLA22335   0.153   5.107   2.988  0.3117 -0.0296 -0.0793
  276CLA    CLA22336   2.596   1.130   2.700 -0.4461 -0.2156 -0.1339
  277CLA    CLA22337   1.861   1.039  13.947  0.0487 -0.3411  0.2164
  278CLA    CLA22338   1.216   5.650  15.557 -0.3764 -0.0198  0.1837
  279CLA    CLA22339   4.021   3.066  12.998 -0.2629  0.3764 -0.6158
  280CLA    CLA22340   0.215   0.055  13.063  0.3172  0.0837 -0.4744
  281CLA    CLA22341   4.489   3.800  15.752 -0.2052 -0.4899  0.2449
  282CLA    CLA22342   5.204   3.028   4.030 -0.0693 -0.1049 -0.1431
  283CLA    CLA22343   4.478   2.183  15.297  0.1684 -0.2427  0.0933
  284CLA    CLA22344   0.345   2.629  14.865 -0.0259 -0.0835 -0.4042
  285CLA    CLA22345   0.707   4.411   2.917 -0.0500 -0.0963 -0.0428
  286CLA    CLA22346   0.332   5.325   4.824 -0.4533 -0.6975 -0.0715
  287CLA    CLA22347   2.608   0.862   3.430  0.1512  0.0010 -0.1846
  288CLA    CLA22348   6.078   4.254   1.104 -0.2477 -0.2297  0.1206
  289CLA    CLA22349   3.739   4.085  11.058 -0.0070 -0.3060 -0.1568
  290CLA    CLA22350   5.159   6.665   3.684  0.2868  0.1518  0.0082
  291CLA    CLA22351   4.634   2.533   2.372 -0.0542 -0.0800 -0.5969
  292CLA    CLA22352   5.746   6.402  14.361  0.4763 -0.4255  0.1268
  293CLA    CLA22353   1.219   2.136   0.459  0.0822 -0.0389  0.0050
  294CLA    CLA22354   4.186   1.181  11.786 -0.1352  0.3280  0.3667
  295CLA    CLA22355   6.104   5.585  16.290  0.4387 -0.0025  0.0314
  296CLA    CLA22356   3.213   5.774   3.626 -0.2401 -0.3731 -0.1700
  297CLA    CLA22357   5.689   4.085   0.940  0.0766  0.2282 -0.1474
  298CLA    CLA22358   3.710   2.988   5.123 -0.0912 -0.3613  0.2689
  299CLA    CLA22359   2.870   5.609   2.779 -0.1320 -0.1456 -0.0538
  300CLA    CLA22360   4.113   4.223  16.359  0.1727  0.0126 -0.3846
  301CLA    CLA22361   4.172   1.591  15.294 -0.0152  0.1122 -0.1222
  302CLA    CLA22362   5.225   0.301  15.987  0.2592 -0.1691  0.2558
  303CLA    CLA22363   4.043   2.010  14.323 -0.1143  0.3620  0.0938
  304CLA    CLA22364   1.749   4.997   3.546 -0.0488  0.6972 -0.1004
  305CLA    CLA22365   5.163   4.120  11.466  0.1295  0.0287 -0.1746
  306CLA    CLA22366   2.490   1.192   4.442  0.0525 -0.0324 -0.4078
  307CLA    CLA22367   5.056   0.001   2.811  0.3747 -0.0031 -0.0481
  308CLA    CLA22368   2.890   3.960  12.819 -0.5286  0.0666 -0.2590
  309CLA    CLA22369   4.757   2.973  11.765 -0.3562 -0.0303 -0.0458
  310CLA    CLA22370   2.097   6.357   0.138 -0.0184  0.1979 -0.0333
  311CLA    CLA22371   1.911   3.802   1.183 -0.1568 -0.3187 -0.6659
  312CLA    CLA22372   6.771   0.809   0.542  0.0736 -0.2084 -0.5636
  313CLA    CLA22373   3.252   5.566  12.766 -0.1854 -0.2664  0.2136
  314CLA    CLA22374   3.618   6.526   0.019  0.0428 -0.0220  0.4184
  315CLA    CLA22375   5.504   6.051   1.245 -0.0908  0.6277  0.4927
  316CLA    CLA22376   2.011   0.069   1.115 -0.2253  0.3180 -0.2207
  317CLA    CLA22377   2.898   3.184  11.687 -0.0988  0.0137 -0.1543
  318CLA    CLA22378   0.780   3.775  15.101 -0.0558 -0.0536  0.1648
  319CLA    CLA22379   6.575   5.730  13.093  0.1667 -0.2478 -0.3338
  320CLA    CLA22380   4.425   6.670  13.334 -0.2650 -0.4589  0.1566
  321CLA    CLA22381   1.232   4.545  13.450  0.1391  0.3168  0.2690
  322CLA    CLA22382   6.371   1.813  16.122  0.4130  0.4914 -0.4056
  323TIP3   OH222383   0.954   4.965   4.431 -0.5960 -0.6043  0.4044
  323TIP3    H122384   0.963   4.879   4.471 -0.7931 -1.3448 -1.0992
  323TIP3    H222385   1.005   4.960   4.351 -0.3241  0.8038  0.4618
  324TIP3   OH222386   6.595   6.144   4.454  0.1985 -0.4396 -0.3742
  324TIP3    H122387   6.561   6.124   4.541 -0.3020  0.2773 -0.3929
  324TIP3    H222388   6.625   6.235   4.461 -0.0199 -0.3152 -0.9966
  325TIP3   OH222389   2.039   2.017  13.510 -0.1522 -0.0084  0.5886
  325TIP3    H122390   2.115   1.959  13.505 -1.0661 -1.3650  1.6355
  325TIP3    H222391   2.039   2.048  13.601 -1.1824 -0.5560  0.7954
  326TIP3   OH222392   6.584   1.320  14.610 -0.0239 -0.8712 -0.0331
  326TIP3    H122393   6.522   1.259  14.650 -0.7364 -1.1423 -1.4934
  326TIP3    H222394   6.661   1.315  14.666 -1.1835 -0.7438  1.6719
  327TIP3   OH222395   0.597   2.398   5.852  0.0454 -0.1998 -0.3015
  327TIP3    H122396   0.525   2.460   5.853 -0.1092 -0.3665 -0.8110
  327TIP3    H222397   0.598   2.360   5.940  0.6409  1.0863  0.2623
  328TIP3   OH222398   4.072   2.770  14.126  1.0442 -0.0620  0.1970
  328TIP3    H122399   4.141   2.720  14.082  1.1738 -1.4854  1.8940
  328TIP3    H222400   4.116   2.814  14.198  0.4852  0.4622  0.2212
  329TIP3   OH222401   1.558   4.205   2.010 -0.0120  0.3102 -0.0518
  329TIP3    H122402   1.472   4.164   2.004  0.4109 -0.9214  1.6604
  329TIP3    H222403   1.611   4.158   1.946  0.0541 -0.7911  0.7804
  330TIP3   OH222404   5.248   6.067   0.861  0.3582 -0.3266 -0.2989
  330TIP3    H122405   5.217   6.128   0.793  0.8836 -0.4340 -0.6432
  330TIP3    H222406   5.342   6.082   0.864  0.3397 -0.3521  0.3913
  331TIP3   OH222407   6.101   4.973   5.422 -0.4871 -0.2923 -0.1698
  331TIP3    H122408   6.022   5.021   5.447 -1.4077 -1.3721 -0.9136
  331TIP3    H222409   6.069   4.897   5.374  1.0800  0.0943 -1.9399
  332TIP3   OH222410   0.956   1.574   2.991 -0.2849  0.7073 -0.6943
  332TIP3    H122411   0.989   1.542   3.075  1.0890  4.3623  0.3254
  332TIP3    H222412   1.008   1.527   2.925  1.5436  0.7518  0.6530
  333TIP3   OH222413   5.364   5.147   0.964  0.4024 -0.1451  0.1910
  333TIP3    H122414   5.276   5.175   0.937 -0.6759 -2.0152  1.4603
  333TIP3    H222415   5.424   5.196   0.908 -1.3814  2.2144  0.1976
  334TIP3   OH222416   5.872   2.648  11.693 -0.1328  0.3190  0.6368
  334TIP3    H122417   5.866   2.730  11.644 -3.3808  0.7350  1.5133
  334TIP3    H222418   5.963   2.645  11.723  0.8278  2.1623 -1.7525
  335TIP3   OH222419   3.218   1.000   1.851  0.9490 -0.9741 -0.1905
  335TIP3    H122420   3.159   0.926   1.867  0.0861 -0.3466 -0.3896
  335TIP3    H222421   3.168   1.058   1.794  0.7281  0.8113  1.6905
  336TIP3   OH222422   4.234   3.958  16.603  0.0521 -0.1766  0.2372
  336TIP3    H122423   4.195   3.890  16.548  2.5655 -0.5755 -1.1933
  336TIP3    H222424   4.217   4.040  16.556  0.9916 -0.3605 -0.4369
  337TIP3   OH222425   2.604   5.404  16.066 -0.3193  0.3695  0.1830
  337TIP3    H122426   2.646   5.452  15.995  1.5305 -1.3167  0.0607
  337TIP3    H222427   2.565   5.327  16.024  1.2499 -0.9274  1.0092
  338TIP3   OH222428   2.325   2.957  13.666 -0.4551  0.3721 -0.5717
  338TIP3    H122429   2.305   2.896  13.738  0.0913  0.5595 -0.2592
  338TIP3    H222430   2.407   2.998  13.692 -0.0364  0.1359 -1.5130
  339TIP3   OH222431   2.322   4.680  14.203 -0.7425  0.4549 -0.3209
  339TIP3    H122432   2.248   4.623  14.184 -1.1115  0.2498  1.5134
  339TIP3    H222433   2.321   4.688  14.298  0.7495  1.5978 -0.3776
  340TIP3   OH222434   1.935   0.317  10.063 -0.3784 -0.0054 -0.0860
  340TIP3    H122435   1.909   0.227  10.080 -0.2690  0.1110  0.7160
  340TIP3    H222436   2.025   0.310  10.031 -0.0001 -0.1043  0.9820
  341TIP3   OH222437   6.148   2.464  16.680 -0.5999 -0.2440 -0.2614
  341TIP3    H122438   6.103   2.496  16.601 -1.5639 -1.7518 -0.3718
  341TIP3    H222439   6.107   2.379  16.698  1.6289 -1.3011  0.1667
  342TIP3   OH222440   4.842   6.412  13.333 -0.2437  0.4197  0.1743
  342TIP3    H122441   4.915   6.455  13.287 -0.3054  1.9422  1.4040
  342TIP3    H222442   4.850   6.442  13.424 -1.1175 -1.1540  0.8057
  343TIP3   OH222443   6.448   2.006  10.521 -0.3732  0.7929 -0.2695
  343TIP3    H122444   6.519   1.943  10.534 -1.0569 -0.1597 -1.0300
  343TIP3    H222445   6.447   2.057  10.602  0.6729  0.3200  0.0695
  344TIP3   OH222446   4.590   3.796  10.849 -1.0349 -0.1930  0.5992
  344TIP3    H122447   4.599   3.718  10.795  0.5344 -0.3968  1.1069
  344TIP3    H222448   4.677   3.808  10.889 -0.9603  2.3411 -0.1855
  345TIP3   OH222449   1.151   3.844   1.906 -0.2014  0.0785 -0.2563
  345TIP3    H122450   1.214   3.813   1.841  0.6001 -0.9935  0.9762
  345TIP3    H222451   1.066   3.821   1.870  0.1091  1.0153 -1.6820
  346TIP3   OH222452   0.563   5.199   2.272 -0.2063 -0.3060 -0.5001
  346TIP3    H122453   0.519   5.117   2.295  0.3608 -0.6384 -0.5677
  346TIP3    H222454   0.530   5.263   2.335  0.7119 -1.0089  0.7426
  347TIP3   OH222455   0.533   0.301  11.386 -0.1849 -0.0717 -0.6712
  347TIP3    H122456   0.474   0.357  11.336  0.3587  2.2920  1.1419
  347TIP3    H222457   0.600   0.275  11.323 -1.2303  0.1111 -1.9114
  348TIP3   OH222458   1.937   0.249  13.491 -0.0928 -0.5459  0.1157
  348TIP3    H122459   1.922   0.243  13.396  1.3702 -3.0885 -0.0530
  348TIP3    H222460   1.852   0.229  13.530 -0.5752 -0.0538 -0.6430
  349TIP3   OH222461   0.787   6.140  14.331 -0.1951 -0.0219 -1.0150
  349TIP3    H122462   0.697   6.165  14.353  0.0274  0.7635 -0.9299
  349TIP3    H222463   0.837   6.220  14.348  0.7313 -0.8349  0.2400
  350TIP3   OH222464   4.910   5.055   5.680  0.3234  0.3121  0.4138
  350TIP3    H122465   4.963   5.046   5.601  0.1762  0.2087  0.3284
  350TIP3    H222466   4.867   4.971   5.691  0.2556  0.3630  0.5427
  351TIP3   OH222467   0.034   1.089   1.096 -0.3773 -0.0337  0.3052
  351TIP3    H122468   0.002   1.171   1.132  0.5110  0.6554 -0.4416
  351TIP3    H222469   0.067   1.111   1.010  2.9025 -0.4838  1.2997
  352TIP3   OH222470   0.987   4.693  15.575  0.5083 -0.4869 -0.0307
  352TIP3    H122471   0.935   4.677  15.496 -1.0112 -0.4446  0.9231
  352TIP3    H222472   0.984   4.788  15.587 -0.9267 -0.6487  1.1261
  353TIP3   OH222473   5.976   5.896  10.637  0.3120 -0.1543 -0.1228
  353TIP3    H122474   6.056   5.872  10.591 -0.1585  0.8114 -1.5375
  353TIP3    H222475   5.941   5.813  10.670  1.1023 -0.7923 -0.8422
  354TIP3   OH222476   1.896   4.869  11.099 -0.2862  0.3362 -0.1643
  354TIP3    H122477   1.964   4.909  11.045  0.1878  0.8546  0.7882
  354TIP3    H222478   1.872   4.789  11.052  1.5558 -0.2761 -0.1288
  355TIP3   OH222479   1.579   3.950   5.348  0.1376 -1.0202 -0.0652
  355TIP3    H122480   1.523   4.028   5.346  1.3448 -0.1316 -0.5105
  355TIP3    H222481   1.608   3.944   5.439 -0.6615 -1.4866  0.1680
  356TIP3   OH222482   5.083   6.206  15.311  0.0540 -0.4815  0.2801
  356TIP3    H122483   5.130   6.130  15.345  0.1176 -0.6483 -0.1700
  356TIP3    H222484   5.118   6.280  15.361 -0.4687 -0.8224  1.1646
  357TIP3   OH222485   5.762   6.677   1.220 -0.3929  0.2780  0.0922
  357TIP3    H122486   5.678   6.708   1.186 -1.8978 -0.1145  3.1345
  357TIP3    H222487   5.772   6.723   1.303  1.5829 -0.9752  0.5997
  358TIP3   OH222488   0.849   0.219  13.156 -0.4940 -0.4577  0.4915
  358TIP3    H122489   0.922   0.252  13.103  0.2873 -1.3197  1.0197
  358TIP3    H222490   0.836   0.287  13.222  1.1064 -1.1539  1.5745
  359TIP3   OH222491   1.361   4.858  13.780  0.4667 -0.6540  0.4371
  359TIP3    H122492   1.323   4.840  13.694 -2.4331 -0.8474  1.6427
  359TIP3    H222493   1.302   4.922  13.819  1.1599 -1.2971  2.6446
  360TIP3   OH222494   2.683   5.836  16.179 -0.3554 -0.3958 -0.2387
  360TIP3    H122495   2.605   5.890  16.164  0.4346  0.6009 -0.8710
  360TIP3    H222496   2.648   5.750  16.202 -1.6430  0.1555 -0.0509
  361TIP3   OH222497   3.509   3.960  15.176  0.5302  0.0441 -0.0104
  361TIP3    H122498   3.574   3.936  15.242  1.6237 -0.0763 -1.0788
  361TIP3    H222499   3.560   3.975  15.097 -0.9317 -3.4719 -1.8877
  362TIP3   OH222500   0.410   6.353   3.060  0.5034 -0.6012  0.0624
  362TIP3    H122501   0.484   6.319   3.110  0.2638 -0.7933  0.2948
  362TIP3    H222502   0.439   6.352   2.969  0.3182 -1.9282  0.0050
  363TIP3   OH222503   4.130   0.153  14.086  0.4391  0.5338  0.2552
  363TIP3    H122504   4.218   0.143  14.050 -0.1974  2.1539 -1.9796
  363TIP3    H222505   4.115   0.248  14.085 -1.0431  0.3389  1.3526
  364TIP3   OH222506   4.648   1.506  14.547 -0.1557  0.2971  0.2246
  364TIP3    H122507   4.710   1.536  14.613 -0.9256  2.4382  0.0741
  364TIP3    H222508   4.576   1.468  14.598  1.1065 -2.0525  0.4008
  365TIP3   OH222509   2.167   0.770   4.476 -0.2618 -0.6206 -0.1581
  365TIP3    H122510   2.185   0.856   4.437 -1.6092 -0.3952 -0.3217
  365TIP3    H222511   2.222   0.710   4.427  0.4097  0.0934 -0.3060
  366TIP3   OH222512   5.125   5.347   2.999  0.2607  0.4995 -0.5349
  366TIP3    H122513   5.131   5.278   3.065  1.6880 -0.3289 -1.4972
  366TIP3    H222514   5.071   5.415   3.040 -0.1681 -0.6579  0.8801
  367TIP3   OH222515   6.469   5.448  12.057  0.0447 -0.2305 -0.0502
  367TIP3    H122516   6.527   5.379  12.092 -0.2564 -0.9875 -0.9999
  367TIP3    H222517   6.488   5.524  12.111  1.8170 -0.4968 -0.2217
  368TIP3   OH222518   6.475   3.397   3.413  0.0126  0.3705  0.1482
  368TIP3    H122519   6.476   3.305   3.384 -1.3222 -0.5700  2.7913
  368TIP3    H222520   6.555   3.434   3.375  2.0771 -2.6274  1.1171
  369TIP3   OH222521   5.893   4.569   0.773 -0.0231 -0.2624  0.3209
  369TIP3    H122522   5.890   4.506   0.845 -1.3556  0.5558  1.0313
  369TIP3    H222523   5.926   4.650   0.813  1.1854 -0.3440 -0.4660
  370TIP3   OH222524   3.611   1.169   1.739 -0.0037  0.2041 -0.3492
  370TIP3    H122525   3.575   1.242   1.788 -1.0557 -0.6664  0.2216
  370TIP3    H222526   3.705   1.172   1.757 -0.4252 -0.5375  2.4053
  371TIP3   OH222527   4.035   2.145   2.167  0.0242 -0.0567  0.2555
  371TIP3    H122528   4.107   2.138   2.105  1.2233 -0.2578  1.6327
  371TIP3    H222529   3.974   2.207   2.125  0.6857 -0.3391 -1.1919
  372TIP3   OH222530   3.407   5.141  14.971  0.3879 -0.1005  0.8996
  372TIP3    H122531   3.368   5.054  14.963  1.5536 -0.6069  0.5243
  372TIP3    H222532   3.471   5.145  14.900  1.8281  0.2633  2.1739
  373TIP3   OH222533   1.165   4.873  14.178  0.2811 -0.0575 -0.8040
  373TIP3    H122534   1.116   4.955  14.176 -0.4188 -0.4041  0.7113
  373TIP3    H222535   1.256   4.900  14.167  0.3247  1.2269  1.8490
  374TIP3   OH222536   4.771   2.632  12.079 -0.7277  0.1685 -0.2534
  374TIP3    H122537   4.766   2.636  11.983 -1.5404 -1.4721 -0.3070
  374TIP3    H222538   4.763   2.724  12.107 -0.6858  0.6526 -1.7434
  375TIP3   OH222539   6.426   6.221  12.439  0.6205  0.8932 -0.4421
  375TIP3    H122540   6.472   6.260  12.513  0.8368  2.2911 -1.2649
  375TIP3    H222541   6.351   6.280  12.424  0.2702  0.3236 -0.9807
  376TIP3   OH222542   1.052   4.530   3.852 -0.5760  0.0263 -0.3462
  376TIP3    H122543   1.084   4.476   3.780  0.5432  0.1057  0.0820
  376TIP3    H222544   0.993   4.472   3.901 -1.2085 -0.0803 -1.2026
  377TIP3   OH222545   4.686   2.144   5.845  0.3027 -0.2753 -0.4570
  377TIP3    H122546   4.755   2.081   5.863  1.6195  1.2323 -0.0641
  377TIP3    H222547   4.609   2.110   5.892  1.1011 -1.3432  0.0991
  378TIP3   OH222548   5.962   0.771   2.904 -0.3513  0.1766 -0.3237
  378TIP3    H122549   5.894   0.835   2.883  0.2602  1.5343  1.5809
  378TIP3    H222550   5.942   0.743   2.993  0.8222 -0.4220 -0.2337
  379TIP3   OH222551   5.943   6.331  11.331 -0.4064  0.1196 -0.3299
  379TIP3    H122552   5.955   6.426  11.341 -0.4650  0.2699 -1.5161
  379TIP3    H222553   5.881   6.307  11.399  0.5434  0.7131  0.7828
  380TIP3   OH222554   3.277   0.792  16.458  0.2189  0.0986  0.0855
  380TIP3    H122555   3.354   0.797  16.402 -0.3971  0.3058 -0.7699
  380TIP3    H222556   3.286   0.866  16.518  0.3650  0.5122 -0.4391
  381TIP3   OH222557   2.465   1.440  13.069  0.3511  0.0002  0.0207
  381TIP3    H122558   2.517   1.392  13.005  0.3788  0.4864 -0.3225
  381TIP3    H222559   2.505   1.419  13.154 -0.8403 -2.1772  0.1135
  382TIP3   OH222560   4.487   5.730   3.227 -0.2091 -0.2189  0.4141
  382TIP3    H122561   4.461   5.653   3.278  0.3052 -0.6796 -0.0115
  382TIP3    H222562   4.581   5.722   3.216  0.2361  1.6678  2.2935
  383TIP3   OH222563   0.156   1.548  13.178  0.0956 -0.0345 -0.1554
  383TIP3    H122564   0.210   1.487  13.226 -1.4755 -0.4604  1.1565
  383TIP3    H222565   0.096   1.584  13.243 -0.7890  0.8808 -1.4171
  384TIP3   OH222566   2.959   3.037  10.275  0.9769  0.3080 -0.3096
  384TIP3    H122567   2.893   2.975  10.308  0.6746 -0.3146 -2.0186
  384TIP3    H222568   3.042   2.992  10.288  0.9254  0.3528  0.2110
  385TIP3   OH222569   2.558   0.236   1.003 -0.3189 -0.3423  0.9147
  385TIP3    H122570   2.588   0.326   0.989  0.2389 -0.6821 -0.1162
  385TIP3    H222571   2.470   0.234   0.964  0.8463 -1.0262 -1.8573
  386TIP3   OH222572   6.598   0.764  12.696 -0.2032  0.4829  0.1850
  386TIP3    H122573   6.682   0.796  12.663 -1.0811  0.7293 -2.0221
  386TIP3    H222574   6.606   0.669  12.694  0.7621  0.4812  2.1755
  387TIP3   OH222575   4.996   4.602  15.361  0.0456  0.1008 -0.8547
  387TIP3    H122576   5.058   4.636  15.426 -1.3997 -2.2059  1.9287
  387TIP3    H222577   5.011   4.508  15.361 -2.9825 -0.4629 -0.5341
  388TIP3   OH222578   5.697   2.249   4.337 -0.3120  0.1126  0.0296
  388TIP3    H122579   5.669   2.309   4.267 -2.0141  0.7101  1.1771
  388TIP3    H222580   5.617   2.208   4.367  0.5434 -0.9531  0.9179
  389TIP3   OH222581   4.192   4.558   3.342 -0.3876 -0.1360  0.0165
  389TIP3    H122582   4.220   4.627   3.282  0.4544 -1.4132 -1.1205
  389TIP3    H222583   4.245   4.572   3.421 -0.0774  0.3974 -0.2821
  390TIP3   OH222584   3.430   0.657  11.076 -0.1324 -0.1341 -0.2786
  390TIP3    H122585   3.451   0.658  11.169 -0.3774 -1.2409 -0.1958
  390TIP3    H222586   3.339   0.629  11.072 -0.2127  0.1848 -0.8433
  391TIP3   OH222587   3.973   3.984   4.340 -0.2990  0.0327 -0.0612
  391TIP3    H122588   3.967   3.956   4.248  3.0891 -0.5169 -0.2363
  391TIP3    H222589   4.034   3.923   4.380  1.4562  2.6248  1.5284
  392TIP3   OH222590   6.031   0.479   0.314  0.2224 -0.9890  0.7499
  392TIP3    H122591   6.023   0.423   0.237  0.5790 -0.3352  0.2275
  392TIP3    H222592   5.947   0.471   0.359  0.2206 -1.8318  0.6136
  393TIP3   OH222593   1.286   5.388  16.039 -0.4497  0.0525  0.3269
  393TIP3    H122594   1.211   5.334  16.061 -0.9711  0.5201 -0.2595
  393TIP3    H222595   1.299   5.374  15.945  0.6443 -0.5747  0.5533
  394TIP3   OH222596   3.557   1.534   6.294 -0.2011 -0.7462 -0.1647
  394TIP3    H122597   3.649   1.554   6.280 -0.1355 -0.9732 -0.0661
  394TIP3    H222598   3.555   1.440   6.313 -0.3592 -0.5876  0.6549
  395TIP3   OH222599   1.237   1.276   2.612  0.1166 -0.4683  0.6435
  395TIP3    H122600   1.297   1.266   2.686 -0.2857  1.7962  1.3383
  395TIP3    H222601   1.283   1.333   2.550 -0.2991 -0.8287 -0.0163
  396TIP3   OH222602   1.132   3.763   3.328  0.0446  0.3995 -0.1598
  396TIP3    H122603   1.055   3.730   3.373  1.4100 -1.9485  0.6319
  396TIP3    H222604   1.196   3.777   3.397  1.1568 -0.2192 -1.0285
  397TIP3   OH222605   5.404   4.179  12.658  0.3362  0.1315 -0.1073
  397TIP3    H122606   5.316   4.142  12.655  0.1258  0.6428 -2.3163
  397TIP3    H222607   5.394   4.267  12.621  1.7627  0.1898 -0.4142
  398TIP3   OH222608   5.478   0.918   1.498 -0.2860  0.2004  0.5010
  398TIP3    H122609   5.432   0.837   1.477  0.6141 -0.7000  1.9121
  398TIP3    H222610   5.409   0.983   1.506 -1.0099 -0.3524 -0.8084
  399TIP3   OH222611   1.511   0.791   1.595 -0.4470  0.3011  0.1770
  399TIP3    H122612   1.458   0.865   1.564 -1.4877 -0.2546  0.5934
  399TIP3    H222613   1.595   0.831   1.619 -0.5442  1.1489 -0.8106
  400TIP3   OH222614   2.402   4.609  12.607 -0.0877  0.1560 -0.2082
  400TIP3    H122615   2.466   4.539  12.618  1.1159  1.4774  1.7841
  400TIP3    H222616   2.318   4.568  12.627  0.3110 -1.1998 -1.1735
  401TIP3   OH222617   6.149   0.515   5.442 -0.4493  0.0215 -0.1874
  401TIP3    H122618   6.058   0.517   5.472 -1.0611 -0.8096 -1.8259
  401TIP3    H222619   6.147   0.561   5.358  0.7470  0.4307  0.0022
  402TIP3   OH222620   2.797   2.309   2.726  0.3819 -0.0015 -0.1712
  402TIP3    H122621   2.892   2.301   2.720  0.2618 -0.5608 -2.1427
  402TIP3    H222622   2.781   2.404   2.723  0.8841  0.1551  1.2123
  403TIP3   OH222623   0.109   1.621   5.213 -0.0400  0.4978 -0.0862
  403TIP3    H122624   0.082   1.602   5.303  0.7297  1.1690  0.3095
  403TIP3    H222625   0.195   1.581   5.205  0.8444  2.2412  0.2054
  404TIP3   OH222626   5.602   2.750   3.742  0.1419  0.2351  0.1145
  404TIP3    H122627   5.693   2.749   3.711  0.2636 -1.6433  0.3874
  404TIP3    H222628   5.610   2.742   3.837 -0.2454 -2.6543  0.0107
  405TIP3   OH222629   2.352   5.005  14.236  0.2768 -0.3398 -0.4109
  405TIP3    H122630   2.442   4.986  14.264  0.0412  0.2373  0.8254
  405TIP3    H222631   2.327   4.929  14.183  0.5518 -1.8997  1.5524
  406TIP3   OH222632   1.285   3.084  15.545 -0.5128 -0.1190  1.2253
  406TIP3    H122633   1.281   3.147  15.473 -2.1266 -1.2837  0.2142
  406TIP3    H222634   1.375   3.050  15.543 -0.4969 -0.0434 -0.1852
  407TIP3   OH222635   0.087   3.836   4.489  1.0267 -0.1068  0.1940
  407TIP3    H122636   0.160   3.884   4.450  1.1956  0.7851  1.5388
  407TIP3    H222637   0.123   3.749   4.507  1.4052 -0.0386 -0.2084
  408TIP3   OH222638   2.820   5.496  10.811 -0.5187 -1.1057  0.3541
  408TIP3    H122639   2.764   5.572  10.794 -1.1441 -1.5576  0.3484
  408TIP3    H222640   2.778   5.451  10.885  0.0823 -1.2113  0.6345
  409TIP3   OH222641   5.357   6.602   0.395 -0.3537  0.0448 -0.0334
  409TIP3    H122642   5.308   6.537   0.345 -1.6866  1.4456 -0.6419
  409TIP3    H222643   5.415   6.644   0.331  1.1466 -1.0679  0.5270
  410TIP3   OH222644   3.589   3.145  11.172 -0.6833  0.3542 -0.5926
  410TIP3    H122645   3.663   3.205  11.162  0.3566 -0.7138  0.3683
  410TIP3    H222646   3.557   3.161  11.261 -0.8517 -0.0183 -0.5836
  411TIP3   OH222647   5.004   6.895  15.418 -0.4060 -0.0952  0.4169
  411TIP3    H122648   5.093   6.895  15.452 -0.1520 -2.1688 -0.1383
  411TIP3    H222649   4.956   6.835  15.475 -1.1625  0.0693 -0.0273
  412TIP3   OH222650   2.412   3.994   0.175  0.6220  0.4539  0.4914
  412TIP3    H122651   2.353   3.998   0.251  0.7200 -0.2165  0.6124
  412TIP3    H222652   2.498   3.978   0.213  0.6018 -0.3286  0.2231
  413TIP3   OH222653   0.965   6.318  16.457  0.3500 -0.2646  0.1588
  413TIP3    H122654   0.955   6.374  16.534  2.1900 -0.5675  0.6609
  413TIP3    H222655   0.893   6.255  16.464 -0.9352  1.1572  0.3130
  414TIP3   OH222656   4.047   4.792   4.402  0.8738  0.3530 -0.7615
  414TIP3    H122657   4.128   4.818   4.358  0.7779 -0.8890 -1.7010
  414TIP3    H222658   4.030   4.704   4.371  0.5977 -0.4516  1.4896
  415TIP3   OH222659   1.393   5.714  16.693 -0.3212 -0.0937  0.2772
  415TIP3    H122660   1.451   5.689  16.622 -0.6937  0.8663 -0.3861
  415TIP3    H222661   1.404   5.808  16.701 -0.4362 -0.1602  1.3643
  416TIP3   OH222662   5.637   6.270  14.625 -0.1826 -0.6423 -0.4412
  416TIP3    H122663   5.551   6.232  14.609 -0.6837  0.3331 -0.1623
  416TIP3    H222664   5.674   6.284  14.538 -1.4517  1.4254 -0.7416
  417TIP3   OH222665   5.560   1.633  15.577 -0.0519  0.0747  0.5434
  417TIP3    H122666   5.603   1.664  15.498 -2.1897 -1.5426 -1.3887
  417TIP3    H222667   5.490   1.697  15.593 -0.8604 -0.6372 -0.0744
  418TIP3   OH222668   2.701   2.451   5.039  0.6642 -0.2735  0.0126
  418TIP3    H122669   2.753   2.491   5.108 -0.2428  3.1553 -1.0549
  418TIP3    H222670   2.760   2.447   4.963  0.2822  0.8260 -0.3692
  419TIP3   OH222671   5.015   5.957  14.645 -0.3031 -0.5751  0.3720
  419TIP3    H122672   5.100   5.956  14.602 -0.3665  1.5487  0.1220
  419TIP3    H222673   5.023   6.022  14.714 -1.2388 -1.5390  1.4324
  420TIP3   OH222674   2.006   3.632   4.969  0.0950  0.2642  0.1875
  420TIP3    H122675   1.921   3.678   4.974  0.0153  0.0625  0.8137
  420TIP3    H222676   2.019   3.598   5.058 -0.0268 -1.2626 -0.3597
  421TIP3   OH222677   3.648   4.850   4.089 -0.0478  0.2392 -0.6315
  421TIP3    H122678   3.688   4.765   4.073 -0.3410  0.1131 -0.7137
  421TIP3    H222679   3.682   4.905   4.019  0.5126  0.3200 -0.3017
  422TIP3   OH222680   2.217   3.324  12.909 -0.3705 -0.9292 -0.5878
  422TIP3    H122681   2.169   3.259  12.960 -1.9582  0.7236  0.1325
  422TIP3    H222682   2.195   3.407  12.950  0.4409  0.1990 -2.3489
  423TIP3   OH222683   4.158   6.410   0.279  0.3919 -1.0455 -0.1222
  423TIP3    H122684   4.194   6.461   0.352 -0.7661  1.5486 -1.2428
  423TIP3    H222685   4.209   6.437   0.203 -2.1987  0.9916 -1.3086
  424TIP3   OH222686   1.456   5.348  13.529  0.0671  0.8684 -0.4007
  424TIP3    H122687   1.400   5.417  13.562 -1.3395 -0.2094 -0.4296
  424TIP3    H222688   1.442   5.274  13.588  0.0823  0.0002 -1.4392
  425TIP3   OH222689   6.789   1.829  15.501  0.5215  0.1425  0.0461
  425TIP3    H122690   6.774   1.871  15.585  0.8662  0.0176  0.1712
  425TIP3    H222691   6.744   1.744  15.508  1.9420 -0.5896  0.7285
  426TIP3   OH222692   1.555   6.783   3.106 -0.1087  0.1108 -0.0236
  426TIP3    H122693   1.510   6.864   3.132 -0.4110  0.2303 -0.8968
  426TIP3    H222694   1.618   6.767   3.177  2.0019  2.6899 -1.1195
  427TIP3   OH222695   2.478   0.968   3.895  0.5511  0.3632  0.1881
  427TIP3    H122696   2.566   1.002   3.912  0.6142  0.8071 -0.9403
  427TIP3    H222697   2.444   0.944   3.982  2.1421 -0.7232  0.5439
  428TIP3   OH222698   5.293   4.045  14.008  0.1557  0.0890  0.9840
  428TIP3    H122699   5.263   4.128  14.046 -0.1468  0.9675 -1.0059
  428TIP3    H222700   5.383   4.063  13.981 -0.0234 -0.0968  0.2405
  429TIP3   OH222701   4.817   1.844  15.299 -0.9830  0.1631  0.0521
  429TIP3    H122702   4.815   1.914  15.234 -0.3863 -0.8770 -1.1167
  429TIP3    H222703   4.751   1.871  15.364 -1.1701  1.5164 -0.6523
  430TIP3   OH222704   5.714   3.291  16.639 -0.1111 -0.1990  0.0377
  430TIP3    H122705   5.751   3.366  16.592  0.8140 -0.7786 -0.1826
  430TIP3    H222706   5.733   3.216  16.583 -0.1471 -0.7268  0.7240
  431TIP3   OH222707   3.538   0.259   4.001 -0.7904  0.0230  0.0175
  431TIP3    H122708   3.581   0.174   4.015 -0.1259  0.4917  0.8837
  431TIP3    H222709   3.562   0.311   4.077 -0.8862  1.1227 -0.6864
  432TIP3   OH222710   3.705   3.911   9.841  0.4546  0.0270 -0.3924
  432TIP3    H122711   3.664   3.838   9.889 -1.9956  0.6929 -1.3406
  432TIP3    H222712   3.673   3.989   9.885 -0.2541  0.5909 -1.8452
  433TIP3   OH222713   0.903   3.753  12.952  0.4418 -1.1783 -0.2585
  433TIP3    H122714   0.938   3.746  13.041  1.3205  1.3722 -0.3220
  433TIP3    H222715   0.817   3.711  12.957 -0.4314  0.6154  2.3733
  434TIP3   OH222716   5.035   4.715   2.297 -0.3096 -0.0024 -0.1124
  434TIP3    H122717   5.067   4.756   2.377  1.9292 -0.1951 -0.8419
  434TIP3    H222718   4.957   4.765   2.274  0.7667  2.0966  0.5173
  435TIP3   OH222719   0.918   6.507   3.604  0.3713  0.6648 -0.2257
  435TIP3    H122720   0.976   6.509   3.680  1.5276  0.5577 -1.0721
  435TIP3    H222721   0.934   6.591   3.560 -1.2829  1.3164  0.3424
  436TIP3   OH222722   1.689   2.786   4.038 -0.3037  0.1794  0.0614
  436TIP3    H122723   1.626   2.730   4.082  0.1004 -0.4022 -0.0692
  436TIP3    H222724   1.688   2.755   3.947  1.1004 -0.7534  0.3159
  437TIP3   OH222725   0.824   6.581  15.685 -0.1787 -0.2477 -0.1477
  437TIP3    H122726   0.917   6.563  15.697 -0.1186  0.7344  1.1118
  437TIP3    H222727   0.785   6.496  15.665  1.1353 -0.4856 -1.9424
  438TIP3   OH222728   0.309   4.416  12.519  0.1476 -0.1848  0.0600
  438TIP3    H122729   0.335   4.325  12.531 -0.1700 -0.7447 -2.7904
  438TIP3    H222730   0.327   4.458  12.604  1.1360 -2.6611  1.1643
  439TIP3   OH222731   2.904   5.571   6.024  0.1079 -0.2341  0.1576
  439TIP3    H122732   2.917   5.501   6.087 -1.2234 -1.2285 -0.6214
  439TIP3    H222733   2.869   5.528   5.946  1.7263  0.9535 -1.2990
  440TIP3   OH222734   1.021   4.643  10.704 -0.2860 -0.3846  0.4126
  440TIP3    H122735   1.070   4.698  10.765  2.4467 -0.8552 -1.1890
  440TIP3    H222736   1.006   4.700  10.628 -1.4867 -0.5192  0.5425
  441TIP3   OH222737   5.959   3.127   4.192 -0.1106 -0.1248 -0.0833
  441TIP3    H122738   5.891   3.092   4.135 -2.0742  0.3197  1.8467
  441TIP3    H222739   5.920   3.126   4.280  0.8871  3.7443  0.5926
  442TIP3   OH222740   0.265   3.175   2.208 -0.2123 -0.1345 -0.3385
  442TIP3    H122741   0.300   3.195   2.122 -1.9387 -0.3067 -1.1215
  442TIP3    H222742   0.277   3.081   2.218  0.4115 -0.0430 -0.1764
  443TIP3   OH222743   0.473   3.247  14.218  0.1160 -0.0657  0.5037
  443TIP3    H122744   0.422   3.318  14.256  0.9273  0.1242  1.2644
  443TIP3    H222745   0.423   3.168  14.241 -0.2391  0.1703  0.5584
  444TIP3   OH222746   4.026   5.435   2.183  0.0582  0.9273 -0.8524
  444TIP3    H122747   3.996   5.351   2.147 -0.2526  1.1477 -1.1104
  444TIP3    H222748   4.102   5.412   2.237 -1.9167  0.0498  1.7208
  445TIP3   OH222749   6.674   4.816  14.105  0.1825  0.0151  0.0394
  445TIP3    H122750   6.657   4.798  14.198  0.1136  0.6490  0.1544
  445TIP3    H222751   6.587   4.815  14.064  0.1176  0.6811  0.1560
  446TIP3   OH222752   6.442   3.804  15.869  0.4375 -0.7963 -0.0954
  446TIP3    H122753   6.490   3.883  15.845  1.8505 -1.7353 -0.5094
  446TIP3    H222754   6.357   3.813  15.826  0.6025  0.4475 -0.1905
  447TIP3   OH222755   0.907   6.517  16.660 -0.1048  0.3647 -0.0952
  447TIP3    H122756   0.968   6.589  16.670  0.8548  0.0997 -3.2063
  447TIP3    H222757   0.830   6.555  16.618 -0.6750  0.0399  0.6250
  448TIP3   OH222758   5.218   0.544   3.795 -0.3941 -0.0706 -0.0264
  448TIP3    H122759   5.221   0.473   3.731  0.8685 -0.1747  0.1286
  448TIP3    H222760   5.287   0.523   3.857  1.7641  2.5662 -1.3564
  449TIP3   OH222761   6.716   4.323   3.760  0.4003  0.3173 -0.2946
  449TIP3    H122762   6.694   4.360   3.674  1.1147 -0.9334 -1.0436
  449TIP3    H222763   6.782   4.256   3.741  0.3811 -0.1600  1.2100
  450TIP3   OH222764   2.507   1.497  14.082 -0.1426  0.2663  0.2790
  450TIP3    H122765   2.452   1.542  14.018 -0.1618  0.3098  0.3256
  450TIP3    H222766   2.447   1.473  14.153 -0.7294 -2.3289 -0.9827
  451TIP3   OH222767   1.587   1.905  15.292 -0.0553  0.1302 -0.1301
  451TIP3    H122768   1.664   1.866  15.251  0.8124  2.3062 -0.7557
  451TIP3    H222769   1.525   1.916  15.220 -0.5546 -0.6523  0.1681
  452TIP3   OH222770   0.108   4.769   1.835  0.1374  0.4086 -0.2401
  452TIP3    H122771   0.087   4.775   1.928 -0.4520 -0.0008 -0.3378
  452TIP3    H222772   0.193   4.812   1.827  1.0796 -1.1513  0.8000
  453TIP3   OH222773   3.458   5.778  11.337  0.1005 -0.1963 -0.4677
  453TIP3    H122774   3.431   5.870  11.329 -1.1758 -0.4970  0.2556
  453TIP3    H222775   3.457   5.745  11.248  0.0150  0.3314 -0.6678
  454TIP3   OH222776   6.445   3.882   4.789  0.0258  0.0177  0.1442
  454TIP3    H122777   6.476   3.970   4.769 -0.5936 -0.1513 -1.7219
  454TIP3    H222778   6.498   3.854   4.864  0.0806  2.0381  0.9024
  455TIP3   OH222779   5.946   1.127  13.611  0.1982  0.3267 -0.2524
  455TIP3    H122780   6.038   1.106  13.597  0.3763  1.2168 -0.4980
  455TIP3    H222781   5.946   1.218  13.640 -0.8392  1.7566 -4.1298
  456TIP3   OH222782   3.921   0.039   1.333 -0.0464  0.5052 -0.5054
  456TIP3    H122783   3.830   0.013   1.345  0.3353 -1.1131 -0.8471
  456TIP3    H222784   3.928   0.124   1.377 -1.9545  1.1800 -1.3846
  457TIP3   OH222785   1.746   1.188   4.398 -0.2612 -0.0142 -0.7080
  457TIP3    H122786   1.734   1.171   4.492  1.8437  0.6858 -0.2653
  457TIP3    H222787   1.703   1.273   4.384  1.6958  1.1940  0.2547
  458TIP3   OH222788   2.868   2.174  16.115 -0.0033 -0.2891 -0.2112
  458TIP3    H122789   2.783   2.162  16.073 -0.0866  1.9877 -0.8395
  458TIP3    H222790   2.846   2.201  16.205 -0.0569  1.7314 -0.7784
  459TIP3   OH222791   1.112   0.121  14.857  0.0002 -0.4706  0.0581
  459TIP3    H122792   1.077   0.056  14.797  0.1430  0.2020 -0.7662
  459TIP3    H222793   1.207   0.104  14.858 -0.1991 -1.8165  1.7242
  460TIP3   OH222794   3.406   6.160  16.274 -0.0670  0.4296 -0.1292
  460TIP3    H122795   3.315   6.139  16.295  0.1844 -0.2867  0.2777
  460TIP3    H222796   3.453   6.143  16.355  0.9130 -2.2686 -1.1545
  461TIP3   OH222797   0.748   4.904   2.121 -0.1135 -0.5189  0.2098
  461TIP3    H122798   0.757   4.969   2.051  1.0670  0.7645  1.4695
  461TIP3    H222799   0.795   4.943   2.195 -3.5980 -0.4930  2.6458
  462TIP3   OH222800   0.491   6.723   0.159 -0.3131 -0.0002  0.3557
  462TIP3    H122801   0.468   6.688   0.245 -1.9598  1.6752  0.6359
  462TIP3    H222802   0.423   6.691   0.100 -0.4525  0.6887  0.1312
  463TIP3   OH222803   4.032   3.622   6.033  0.1393  0.1268 -0.0170
  463TIP3    H122804   3.958   3.678   6.010 -0.0516  0.3181  1.0238
  463TIP3    H222805   4.037   3.627   6.128  1.1702 -0.2960 -0.0372
  464TIP3   OH222806   3.602   5.443   0.566  0.0352 -0.5420 -0.1805
  464TIP3    H122807   3.572   5.417   0.479 -2.8188 -1.3230  0.9298
  464TIP3    H222808   3.582   5.536   0.572 -0.2601 -0.6027 -0.1984
  465TIP3   OH222809   2.996   5.171   4.804 -0.2385  0.3036  0.1265
  465TIP3    H122810   3.088   5.149   4.791 -0.4649  0.1239 -1.3571
  465TIP3    H222811   2.998   5.256   4.848  0.6378  0.3267  0.0679
  466TIP3   OH222812   1.717   4.447  14.907 -0.0261 -0.1604  0.3267
  466TIP3    H122813   1.786   4.497  14.950  0.7661 -1.5660  0.7207
  466TIP3    H222814   1.694   4.500  14.830 -0.8411  1.9477  1.9265
  467TIP3   OH222815   3.605   6.844  14.810  0.1244 -0.3008 -0.0782
  467TIP3    H122816   3.604   6.759  14.765 -0.4225  0.2029 -1.0444
  467TIP3    H222817   3.685   6.886  14.779  0.4075 -0.4734  0.4200
  468TIP3   OH222818   5.972   2.351  12.457  0.1137 -0.5614  0.0022
  468TIP3    H122819   5.967   2.257  12.443  1.4096 -0.6693  0.1748
  468TIP3    H222820   6.022   2.361  12.538 -0.1945  0.2776  0.1045
  469TIP3   OH222821   2.774   6.019  10.919  0.7647  0.0944  0.8396
  469TIP3    H122822   2.789   5.990  11.009 -0.3232  2.4219  1.8660
  469TIP3    H222823   2.692   5.976  10.894 -0.1925  1.2236  1.8873
  470TIP3   OH222824   2.798   4.619   6.436  0.1832  0.0626 -0.8300
  470TIP3    H122825   2.763   4.698   6.393 -1.8268 -1.2015 -1.6403
  470TIP3    H222826   2.892   4.637   6.444 -0.2477  2.7093 -0.5830
  471TIP3   OH222827   5.785   2.231  14.385 -0.5348  0.4411 -0.5791
  471TIP3    H122828   5.850   2.284  14.430  0.7521  0.1031 -1.9420
  471TIP3    H222829   5.715   2.218  14.449 -0.5831  3.1307  0.0439
  472TIP3   OH222830   3.329   3.207  15.601  0.4463  0.3799  0.4922
  472TIP3    H122831   3.351   3.129  15.549 -2.0748  0.0897 -0.2841
  472TIP3    H222832   3.414   3.246  15.622  1.7000 -1.1950 -1.2312
  473TIP3   OH222833   6.528   3.676  16.608  0.1374 -0.0750 -0.0644
  473TIP3    H122834   6.548   3.622  16.532  1.8329  0.5959 -0.1483
  473TIP3    H222835   6.560   3.763  16.585 -0.8052  0.5156  0.7956
  474TIP3   OH222836   2.295   2.286   2.156 -0.4517  0.0031 -0.3671
  474TIP3    H122837   2.307   2.201   2.198 -1.3506  1.0739  2.3277
  474TIP3    H222838   2.249   2.339   2.222  0.2250  2.6429 -1.8547
  475TIP3   OH222839   2.781   5.148  16.137 -0.0850 -0.6502  0.2782
  475TIP3    H122840   2.865   5.189  16.113 -0.3989  0.2030  0.5898
  475TIP3    H222841   2.779   5.155  16.233  0.0004 -1.7017  0.3618
  476TIP3   OH222842   6.686   3.513   2.123 -0.4994 -0.6047 -0.0056
  476TIP3    H122843   6.672   3.449   2.193 -1.8702  0.3763  0.6604
  476TIP3    H222844   6.755   3.571   2.158 -1.7271  0.3544  0.9143
  477TIP3   OH222845   3.456   1.615   0.197  0.8036 -0.1691  0.1249
  477TIP3    H122846   3.543   1.585   0.172  0.6708  0.3988 -1.1418
  477TIP3    H222847   3.399   1.584   0.125 -0.2303 -1.3976  1.4049
  478TIP3   OH222848   6.066   0.284  13.728  0.0034 -0.6065 -0.1072
  478TIP3    H122849   6.132   0.353  13.721  0.1073 -0.1804  3.2808
  478TIP3    H222850   6.097   0.215  13.670  3.6820 -0.5344  1.4861
  479TIP3   OH222851   4.731   0.902  14.539  0.4573  0.0069  0.2695
  479TIP3    H122852   4.809   0.926  14.490 -0.2246 -1.2085 -1.5261
  479TIP3    H222853   4.738   0.807  14.552 -1.0779 -0.2689 -0.6614
  480TIP3   OH222854   3.177   2.196  16.196  0.0041  0.0508  0.3720
  480TIP3    H122855   3.246   2.171  16.257 -2.0195 -1.9507  2.0513
  480TIP3    H222856   3.107   2.230  16.252  0.6450  5.2813 -1.4754
  481TIP3   OH222857   2.842   6.847  13.995  0.1249 -0.3782 -0.4589
  481TIP3    H122858   2.799   6.767  14.026  0.4337  0.0046  0.9879
  481TIP3    H222859   2.896   6.875  14.068 -0.9820  1.8794 -0.4414
  482TIP3   OH222860   4.829   2.035  16.225  0.8555  0.8507  0.3022
  482TIP3    H122861   4.785   2.026  16.141  1.1952 -0.1280  0.2187
  482TIP3    H222862   4.922   2.043  16.203  0.8426  1.7202  0.5319
  483TIP3   OH222863   0.924   4.605   3.360 -0.1041 -0.9370 -0.2579
  483TIP3    H122864   0.998   4.656   3.326 -0.5029  0.5012  0.8865
  483TIP3    H222865   0.849   4.633   3.308 -0.3185 -0.3145  0.3561
  484TIP3   OH222866   1.584   3.507  13.015 -0.0559  0.6916  0.1404
  484TIP3    H122867   1.507   3.558  13.039  0.4613  1.5057  0.1117
  484TIP3    H222868   1.655   3.571  13.010  0.9933 -0.2706  1.8360
  485TIP3   OH222869   0.245   2.188   1.532  0.0760  0.1419  0.4581
  485TIP3    H122870   0.339   2.172   1.529  0.2295  1.2043 -1.4229
  485TIP3    H222871   0.236   2.283   1.522 -1.2013  0.0764  0.7793
  486TIP3   OH222872   2.992   5.701   5.389  0.1419 -0.0990  0.1347
  486TIP3    H122873   2.913   5.674   5.437 -0.1167  0.0184 -0.2215
  486TIP3    H222874   3.064   5.669   5.443 -0.1504 -0.4337  0.3371
  487TIP3   OH222875   6.309   5.258  14.856 -0.4842  0.7556  0.0662
  487TIP3    H122876   6.226   5.298  14.883 -2.0847 -0.9232 -2.0501
  487TIP3    H222877   6.285   5.194  14.789  2.6965  1.3839 -1.9152
  488TIP3   OH222878   6.271   3.243  11.130 -0.1085  0.0534  0.1002
  488TIP3    H122879   6.310   3.302  11.194 -0.4558 -1.7490  2.0872
  488TIP3    H222880   6.183   3.278  11.116  0.2700  0.9553 -0.0945
  489TIP3   OH222881   3.530   3.074  16.462  0.4105 -0.3497 -0.1133
  489TIP3    H122882   3.445   3.116  16.447  1.0530  0.1615 -2.9916
  489TIP3    H222883   3.573   3.128  16.528 -1.1979 -0.2158  0.8837
  490TIP3   OH222884   2.682   0.867   2.498 -0.2592 -0.0717 -0.0099
  490TIP3    H122885   2.762   0.875   2.550  0.4712  0.0889 -1.1429
  490TIP3    H222886   2.632   0.946   2.519 -0.6693 -0.6911  1.5536
  491TIP3   OH222887   5.817   3.670   0.052  1.0967 -0.5792 -0.7765
  491TIP3    H122888   5.855   3.755   0.029 -2.5962  1.6643  0.3748
  491TIP3    H222889   5.888   3.623   0.095  2.9178  2.7279  0.2585
  492TIP3   OH222890   5.947   1.581  14.986 -0.1699  0.8270  0.2397
  492TIP3    H122891   6.019   1.600  14.926  1.0935 -1.5688  0.8993
  492TIP3    H222892   5.988   1.541  15.062 -2.0760  0.6602  1.2393
  493TIP3   OH222893   3.979   0.632  12.796 -0.5208 -0.0132  0.6284
  493TIP3    H122894   4.022   0.588  12.869 -0.0361  2.5874  2.0268
  493TIP3    H222895   4.042   0.698  12.768 -1.4327  0.2136 -0.9878
  494TIP3   OH222896   1.747   3.778   6.317 -0.0352 -0.1238 -0.0983
  494TIP3    H122897   1.699   3.710   6.364 -1.1761  2.3495  2.6434
  494TIP3    H222898   1.826   3.792   6.369 -1.3321  2.7025  1.3193
  495TIP3   OH222899   0.060   5.304   0.607  0.4785  0.1959 -0.2786
  495TIP3    H122900   0.014   5.282   0.687  0.2515  1.7057  0.0486
  495TIP3    H222901   0.008   5.375   0.568  2.3569  1.8144 -0.0172
  496TIP3   OH222902   3.576   6.776  11.772  0.4063  0.2199  0.3330
  496TIP3    H122903   3.568   6.687  11.805  1.1754  0.0997  0.2075
  496TIP3    H222904   3.597   6.765  11.679 -1.3171  0.5488 -0.1278
  497TIP3   OH222905   1.120   1.752  10.041  0.0518 -0.1629  0.4802
  497TIP3    H122906   1.060   1.774  10.113  1.2875  1.3544  1.0852
  497TIP3    H222907   1.094   1.810   9.970  0.6726  0.3648  0.6803
  498TIP3   OH222908   5.185   3.373   5.082  0.3079  0.5494 -0.5851
  498TIP3    H122909   5.152   3.330   5.003 -0.6950 -0.4598  0.3527
  498TIP3    H222910   5.109   3.420   5.117  0.6030  0.5478  0.0629
  499TIP3   OH222911   0.532   6.793  14.633 -0.1424  0.4800 -0.2823
  499TIP3    H122912   0.460   6.751  14.680  1.0160 -0.0020  1.1390
  499TIP3    H222913   0.611   6.765  14.680  0.9527  1.3096 -1.5480
  500TIP3   OH222914   1.949   0.002  10.618  0.4587 -0.4817 -0.3847
  500TIP3    H122915   1.981  -0.064  10.557  2.8104 -0.8013  1.0724
  500TIP3    H222916   2.028   0.049  10.646 -0.7143  0.6461  1.2312
  501TIP3   OH222917   6.264   5.246  15.138  0.6940 -0.5269  0.2315
  501TIP3    H122918   6.271   5.181  15.068 -2.6898 -0.0299 -0.7202
  501TIP3    H222919   6.218   5.320  15.098  0.1167  0.4417  2.5404
  502TIP3   OH222920   4.767   4.933  14.368  0.2504  0.7334  0.5033
  502TIP3    H122921   4.684   4.912  14.411 -0.5435  0.4108 -1.1035
  502TIP3    H222922   4.822   4.857  14.383 -1.0083 -0.6332 -1.3704
  503TIP3   OH222923   0.241   5.349  11.047  0.2412 -0.6059  0.6387
  503TIP3    H122924   0.328   5.342  11.086  0.0766 -2.6355  0.7336
  503TIP3    H222925   0.251   5.312  10.959 -0.5699 -1.1404  0.7564
  504TIP3   OH222926   0.091   5.556   4.084  0.3048 -0.0547  0.0220
  504TIP3    H122927   0.002   5.577   4.056 -0.0690  0.6993  1.7106
  504TIP3    H222928   0.082   5.477   4.137  0.5102  0.5051  0.9055
  505TIP3   OH222929   3.030   3.218  12.399  0.1309 -0.5530  0.4318
  505TIP3    H122930   3.079   3.267  12.465 -0.2339 -0.9844  1.0358
  505TIP3    H222931   3.087   3.145  12.376  0.8469  0.3576 -0.7676
  506TIP3   OH222932   2.300   3.696   0.343 -0.5792  0.5105 -0.4771
  506TIP3    H122933   2.325   3.653   0.425 -1.4842 -0.6377 -0.7758
  506TIP3    H222934   2.373   3.678   0.283  0.4736  2.0665  0.2866
  507TIP3   OH222935   5.832   4.211  13.790  0.2951  0.3026  0.2508
  507TIP3    H122936   5.791   4.281  13.739  0.3552  1.0822  1.2492
  507TIP3    H222937   5.912   4.250  13.825  1.7139 -1.0600 -1.3076
  508TIP3   OH222938   3.356   4.076   4.930 -1.2738 -0.3339 -0.0770
  508TIP3    H122939   3.338   4.160   4.972 -2.1788 -1.2820  1.5352
  508TIP3    H222940   3.442   4.051   4.962 -1.3944 -0.4391  0.1667
  509TIP3   OH222941   1.256   1.848   0.976  0.7828  0.3956  0.1310
  509TIP3    H122942   1.264   1.755   0.955  0.8858  0.4863 -0.2450
  509TIP3    H222943   1.162   1.861   0.993  0.6587  0.3644 -0.5173
  510TIP3   OH222944   5.198   5.356  12.654  0.3603  0.3119  0.2586
  510TIP3    H122945   5.245   5.377  12.735 -0.4946  0.6092  0.6825
  510TIP3    H222946   5.110   5.333  12.682 -0.0942  0.9106 -0.6328
  511TIP3   OH222947   6.138   4.509  15.957  0.3072  0.5400  0.0575
  511TIP3    H122948   6.071   4.545  15.898  0.3857 -1.9708 -1.7197
  511TIP3    H222949   6.092   4.439  16.004  1.8340 -2.0290 -2.0473
  512TIP3   OH222950   6.874   5.498  14.050 -0.0131  0.6220 -0.3122
  512TIP3    H122951   6.817   5.524  14.121  1.3440  2.2334  0.2497
  512TIP3    H222952   6.820   5.440  13.996 -1.4874  0.4392  1.2734
  513TIP3   OH222953   3.321   3.958   0.736  0.2714  0.0034  0.2144
  513TIP3    H122954   3.285   3.895   0.673  0.9109  0.8160 -1.0230
  513TIP3    H222955   3.245   3.993   0.781 -0.1415 -1.1907  0.4769
  514TIP3   OH222956   6.895   4.691   4.369 -0.0336  0.0722 -0.3208
  514TIP3    H122957   6.927   4.697   4.460  1.7393  1.0356 -0.9632
  514TIP3    H222958   6.810   4.735   4.371  0.8749  1.8957  0.4996
  515TIP3   OH222959   0.246   1.251   0.917 -0.0493  0.0253 -0.0240
  515TIP3    H122960   0.325   1.213   0.956  0.9094  0.9674 -0.9648
  515TIP3    H222961   0.258   1.240   0.822  0.2671  2.5458 -0.3479
  516TIP3   OH222962   2.257   6.671   3.930 -0.2348 -0.1603 -0.2392
  516TIP3    H122963   2.325   6.611   3.900  0.9417  0.5801  0.8825
  516TIP3    H222964   2.267   6.748   3.874 -1.8494 -0.9825 -1.7899
  517TIP3   OH222965   6.019   4.910   3.288  1.1736  1.0843 -0.1300
  517TIP3    H122966   6.094   4.853   3.301  1.4020  1.6250  1.0090
  517TIP3    H222967   6.055   4.988   3.245  0.6748 -0.0493 -2.7790
  518TIP3   OH222968   1.420   4.680  14.326 -0.6172  0.4001  0.6883
  518TIP3    H122969   1.372   4.728  14.393 -1.0990  1.2904 -0.2824
  518TIP3    H222970   1.497   4.734  14.307  0.2390 -0.4889  1.4372
  519TIP3   OH222971   5.471   4.840  16.564 -0.5487  0.2996 -0.3500
  519TIP3    H122972   5.389   4.884  16.587 -0.9215 -1.3505  1.7982
  519TIP3    H222973   5.444   4.762  16.515 -0.2691 -0.0467  0.0319
  520TIP3   OH222974   6.105   1.968   5.694 -0.1320  0.0701  0.4716
  520TIP3    H122975   6.037   1.924   5.744 -0.2633  0.3598  0.5473
  520TIP3    H222976   6.073   2.057   5.681  0.0428  0.0909  0.1477
  521TIP3   OH222977   2.834   5.362  11.299 -0.8628  0.0671  0.3565
  521TIP3    H122978   2.832   5.424  11.373 -3.0266  1.8362 -1.0483
  521TIP3    H222979   2.746   5.326  11.295 -0.3549 -1.1573 -0.4830
  522TIP3   OH222980   6.800   0.539  13.009 -0.0006  0.5818 -0.3102
  522TIP3    H122981   6.829   0.448  13.015 -0.6881  0.1602 -2.2834
  522TIP3    H222982   6.704   0.533  13.015 -0.0139  1.2425  0.1524
  523TIP3   OH222983   3.606   0.380   5.323  0.3100  0.1413 -0.3006
  523TIP3    H122984   3.606   0.446   5.253  2.3632  0.8135  0.2799
  523TIP3    H222985   3.590   0.430   5.403 -1.3492 -0.5406 -0.1573
  524TIP3   OH222986   6.023   6.335  15.207 -0.0069  0.3583 -0.5190
  524TIP3    H122987   6.118   6.321  15.201 -0.0460 -0.0250 -0.2470
  524TIP3    H222988   6.009   6.368  15.296 -0.3850 -1.7833  0.2858
  525TIP3   OH222989   3.891   4.418  15.624 -0.4742 -0.1325  0.3528
  525TIP3    H122990   3.846   4.430  15.541  0.6833  0.5279 -0.1957
  525TIP3    H222991   3.832   4.459  15.688 -1.3501 -0.6092 -0.1256
  526TIP3   OH222992   1.119   0.711   2.260  0.1537 -0.1167  0.3522
  526TIP3    H122993   1.134   0.617   2.244 -0.3495 -0.3471  1.1532
  526TIP3    H222994   1.025   0.722   2.242  0.2601  0.2800  0.0475
  527TIP3   OH222995   6.550   5.181  16.453  0.0229 -0.0814 -0.3191
  527TIP3    H122996   6.572   5.262  16.408 -1.9010 -0.1325 -1.4656
  527TIP3    H222997   6.547   5.115  16.384 -0.9441 -0.5786  0.1738
  528TIP3   OH222998   5.359   3.229  12.497 -0.0960 -0.1873 -0.1685
  528TIP3    H122999   5.273   3.271  12.490  0.7056  1.5175 -0.1043
  528TIP3    H223000   5.394   3.232  12.408  0.7209  0.9976  0.1649
  529TIP3   OH223001   4.391   2.327  14.701 -0.2150 -0.7794  0.8905
  529TIP3    H123002   4.321   2.326  14.766 -1.2292 -0.3273 -0.1527
  529TIP3    H223003   4.391   2.239  14.664 -0.2513 -0.7724  0.8737
  530TIP3   OH223004   6.803   0.833   1.077  1.1743  0.2666 -0.2672
  530TIP3    H123005   6.832   0.922   1.054 -1.0342  1.4199  1.0804
  530TIP3    H223006   6.821   0.826   1.171 -1.8634  0.7251  0.4480
  531TIP3   OH223007   0.847   1.778  16.362 -1.2778 -0.2634 -1.1054
  531TIP3    H123008   0.936   1.807  16.381 -1.6771  1.5853 -1.8185
  531TIP3    H223009   0.848   1.755  16.269 -1.7453  0.6137 -1.3347
  532TIP3   OH223010   5.215   0.432  11.890  0.6356 -0.0233 -0.2021
  532TIP3    H123011   5.206   0.473  11.976 -0.2062  1.1680 -0.8432
  532TIP3    H223012   5.143   0.370  11.886 -0.6813  1.4992 -0.8939
  533TIP3   OH223013   3.268   6.455   0.364 -1.0343 -0.7849  0.4681
  533TIP3    H123014   3.208   6.381   0.361 -1.6698 -0.2571 -0.6709
  533TIP3    H223015   3.221   6.525   0.319  0.5459 -0.4250 -0.6943
  534TIP3   OH223016   3.742   3.193   3.002 -0.2940 -0.0771  0.7247
  534TIP3    H123017   3.787   3.244   2.936  1.6714 -1.8195  0.6001
  534TIP3    H223018   3.700   3.122   2.953  0.9178 -1.1996  1.2355
  535TIP3   OH223019   6.734   2.385  13.660  0.5964  0.5604  0.3001
  535TIP3    H123020   6.699   2.362  13.746  0.5684 -2.9546 -0.4932
  535TIP3    H223021   6.664   2.364  13.599  1.5470  0.3223 -0.7510
  536TIP3   OH223022   2.924   4.568  15.112  0.2767  0.5976 -0.2339
  536TIP3    H123023   2.884   4.531  15.190  1.0076  1.9753  0.8344
  536TIP3    H223024   3.007   4.519  15.102 -0.2871 -0.2852 -0.7878
  537TIP3   OH223025   5.104   0.347  13.665 -0.1778 -0.4973  0.5142
  537TIP3    H123026   5.156   0.389  13.596 -1.5363 -0.8871 -0.8143
  537TIP3    H223027   5.023   0.320  13.621 -1.3865 -0.2006  2.4291
  538TIP3   OH223028   1.349   6.090   0.145 -0.1199  0.3164 -0.1118
  538TIP3    H123029   1.305   6.126   0.222 -1.2639  0.7872 -0.9513
  538TIP3    H223030   1.361   5.997   0.165  1.0685  0.7419  1.2711
  539TIP3   OH223031   3.623   0.704  16.484  0.1917  0.2967  0.5106
  539TIP3    H123032   3.682   0.774  16.513 -0.3740  0.3189  1.7059
  539TIP3    H223033   3.680   0.629  16.471  0.9082  1.1317 -1.4670
  540TIP3   OH223034   6.390   0.168  15.692  0.0401  0.4486  0.7776
  540TIP3    H123035   6.313   0.186  15.745 -0.0335  0.8994  0.5142
  540TIP3    H223036   6.422   0.254  15.665  1.0391  0.3160  1.4595
  541TIP3   OH223037   5.639   0.324   0.761 -0.2983  0.5069 -0.4189
  541TIP3    H123038   5.606   0.326   0.671 -2.6289 -1.0331  0.2876
  541TIP3    H223039   5.690   0.243   0.766  1.3943  1.4987 -0.7672
  542TIP3   OH223040   2.311   5.264  15.073 -0.1378 -0.2967  0.0043
  542TIP3    H123041   2.384   5.203  15.063  3.7306  3.9213 -0.9658
  542TIP3    H223042   2.328   5.308  15.156 -1.0612  1.3670 -0.6457
  543TIP3   OH223043   4.903   2.941  13.630 -0.4042  1.1835 -0.0154
  543TIP3    H123044   4.846   2.924  13.706  0.1282  2.0226  0.5869
  543TIP3    H223045   4.942   3.027  13.648  2.1817  0.0315  0.3128
  544TIP3   OH223046   1.774   2.579  14.827 -0.1240  0.6853 -0.1563
  544TIP3    H123047   1.723   2.499  14.813 -0.1883  0.9068 -1.2769
  544TIP3    H223048   1.718   2.649  14.791 -0.2787  1.3038  1.2327
  545TIP3   OH223049   5.782   6.080  16.381 -0.5031 -0.2014 -0.0756
  545TIP3    H123050   5.694   6.054  16.357 -1.1119 -0.1251  1.8813
  545TIP3    H223051   5.839   6.014  16.343 -1.5261 -1.0051 -0.2369
  546TIP3   OH223052   3.912   4.889   3.620 -0.1587  0.3409 -0.1910
  546TIP3    H123053   3.985   4.911   3.562 -1.9163 -0.9739 -3.0736
  546TIP3    H223054   3.849   4.961   3.609 -0.3598  0.2758  0.4438
  547TIP3   OH223055   6.836   2.543   2.656 -0.1665  0.4898 -0.2778
  547TIP3    H123056   6.784   2.623   2.659 -1.6840 -0.4745  1.8219
  547TIP3    H223057   6.916   2.566   2.704 -0.3554  0.8988 -0.1485
  548TIP3   OH223058   1.341   3.157  14.507 -0.9812  0.2014  0.1551
  548TIP3    H123059   1.338   3.166  14.603  0.4321 -1.1981  0.3715
  548TIP3    H223060   1.293   3.076  14.489 -0.7057  0.1325 -0.2624
  549TIP3   OH223061   2.856   2.567  13.803 -0.3907 -0.4338  0.0055
  549TIP3    H123062   2.800   2.513  13.859 -0.3949  0.5899  1.0373
  549TIP3    H223063   2.795   2.613  13.745 -0.8044  1.5292  1.8684
  550TIP3   OH223064   2.053   4.841  14.465 -0.6682  0.2297  0.1149
  550TIP3    H123065   2.057   4.879  14.377 -2.1201  1.5985  0.5799
  550TIP3    H223066   2.084   4.911  14.522 -1.0490 -0.1502  0.8024
  551TIP3   OH223067   4.117   5.692  12.365  0.3330 -0.7826  0.0449
  551TIP3    H123068   4.064   5.615  12.345  1.1712 -1.3026 -0.1942
  551TIP3    H223069   4.059   5.766  12.346 -1.3434 -1.3075  2.5128
  552TIP3   OH223070   2.725   2.553  10.927  0.2838  0.1309 -0.4578
  552TIP3    H123071   2.722   2.527  10.835  0.3419  2.3019 -1.1235
  552TIP3    H223072   2.804   2.512  10.961  1.5753  1.1931 -2.0272
  553TIP3   OH223073   5.737   0.084  12.511  0.2386 -0.7578  0.3947
  553TIP3    H123074   5.713   0.116  12.424 -1.5241 -0.5033  0.9355
  553TIP3    H223075   5.805   0.018  12.494  1.8068  1.1041 -0.9497
  554TIP3   OH223076   3.342   1.884  11.710  0.3274 -0.0139 -0.0849
  554TIP3    H123077   3.386   1.799  11.708  1.5591  0.5522  1.3322
  554TIP3    H223078   3.401   1.943  11.664  1.2028  0.7793  1.9338
  555TIP3   OH223079   2.527   2.082  12.069  0.4019  0.2864  0.0715
  555TIP3    H123080   2.620   2.090  12.045  0.2730 -0.7454 -0.8036
  555TIP3    H223081   2.526   2.014  12.136  0.1612 -0.4098 -0.6365
  556TIP3   OH223082   5.756   1.359   2.928  0.0845 -0.4491 -0.3984
  556TIP3    H123083   5.783   1.379   2.839 -1.7716  0.1001 -0.8750
  556TIP3    H223084   5.740   1.445   2.968  1.3661 -0.6662  0.6410
  557TIP3   OH223085   3.747   2.676   2.516 -0.3778 -0.0192 -0.1095
  557TIP3    H123086   3.719   2.623   2.591 -0.8298 -0.2794 -0.4584
  557TIP3    H223087   3.666   2.713   2.481 -0.2590 -0.4906 -0.9132
  558TIP3   OH223088   2.392   3.180   3.541 -0.6940 -0.5163 -0.1959
  558TIP3    H123089   2.421   3.121   3.610  0.3454 -0.5041 -0.6067
  558TIP3    H223090   2.471   3.202   3.493 -0.6165  2.8343  1.1611
  559TIP3   OH223091   4.615   0.112  12.575 -0.4950  0.4498  0.4637
  559TIP3    H123092   4.658   0.134  12.658 -0.3681  1.2230  0.2028
  559TIP3    H223093   4.525   0.142  12.585 -0.9845 -1.0992  0.9793
  560TIP3   OH223094   6.776   2.339   4.307 -0.1257  0.0467 -0.2642
  560TIP3    H123095   6.784   2.434   4.315  0.3653 -0.0784  0.9190
  560TIP3    H223096   6.798   2.320   4.216 -2.8135  1.3149 -1.2785
  561TIP3   OH223097   2.931   0.056  11.801 -0.0375 -0.0859 -0.2319
  561TIP3    H123098   2.892  -0.008  11.861 -1.5135  0.5671 -0.4486
  561TIP3    H223099   2.875   0.055  11.724  1.5464 -0.5384 -1.4337
  562TIP3   OH223100   5.390   4.466  10.809 -0.3388 -0.2741  0.0584
  562TIP3    H123101   5.478   4.482  10.843 -0.8969  0.7023  1.1109
  562TIP3    H223102   5.390   4.374  10.783  1.1700 -0.1264 -0.5497
  563TIP3   OH223103   1.774   2.067  13.911 -0.0780 -0.2179 -0.1046
  563TIP3    H123104   1.836   2.096  13.843  1.2284 -0.2433  1.0395
  563TIP3    H223105   1.756   2.145  13.963  0.8303 -0.6973  0.9639
  564TIP3   OH223106   5.308   0.762  15.625 -0.0268  0.3625 -0.0292
  564TIP3    H123107   5.328   0.846  15.584 -0.2574  0.8312  0.7839
  564TIP3    H223108   5.218   0.773  15.658 -0.3411 -0.4724 -0.5712
  565TIP3   OH223109   2.924   1.089  14.458  0.0059 -0.2320 -0.0116
  565TIP3    H123110   2.931   1.126  14.546 -0.3760 -1.6926  0.6618
  565TIP3    H223111   3.008   1.047  14.443  0.2837  0.5239 -0.5932
  566TIP3   OH223112   5.702   1.171  12.359 -0.3273 -0.4228  0.0153
  566TIP3    H123113   5.623   1.153  12.410 -0.2154  0.7442  0.6286
  566TIP3    H223114   5.774   1.141  12.415 -0.3139 -1.2279 -0.4250
  567TIP3   OH223115   4.359   5.113  11.275 -0.2484  0.1023  0.1965
  567TIP3    H123116   4.429   5.053  11.300  0.7168  0.9636 -0.3667
  567TIP3    H223117   4.282   5.082  11.324 -0.4389 -3.0521 -1.7878
  568TIP3   OH223118   0.017   5.855  12.734 -0.0456  0.0302 -0.2111
  568TIP3    H123119  -0.006   5.875  12.825  1.2677 -0.9592  0.3794
  568TIP3    H223120   0.054   5.767  12.738 -1.0476 -0.4959 -1.9095
  569TIP3   OH223121   2.639   2.511  16.271 -0.3743  0.1854  0.1165
  569TIP3    H123122   2.730   2.528  16.296  1.1094 -4.8222 -0.7109
  569TIP3    H223123   2.628   2.558  16.189  1.3461  1.2310  0.4344
  570TIP3   OH223124   1.532   0.548  11.887  0.5061  0.6716 -0.6847
  570TIP3    H123125   1.461   0.534  11.950  0.1603  0.8052 -1.0388
  570TIP3    H223126   1.575   0.629  11.917  0.6474  0.4759 -0.3480
  571TIP3   OH223127   4.326   0.745  16.705  0.5953  0.1612 -0.5102
  571TIP3    H123128   4.287   0.732  16.791 -0.0814  1.6744 -0.5622
  571TIP3    H223129   4.386   0.819  16.717  1.6135 -0.5446 -1.0179
  572TIP3   OH223130   3.103   6.699  10.937  0.1023  0.0798 -0.0605
  572TIP3    H123131   3.097   6.607  10.963  0.4270 -0.3748 -1.4691
  572TIP3    H223132   3.012   6.726  10.924  0.0039 -0.0339  0.3913
  573TIP3   OH223133   5.953   1.043   4.819 -0.4138  1.1009 -0.0240
  573TIP3    H123134   5.968   1.133   4.790 -1.6956  0.5818 -2.5732
  573TIP3    H223135   5.994   0.989   4.752  0.4861 -0.2754  1.5499
  574TIP3   OH223136   5.848   4.602   3.971  0.0488  0.4610  0.4068
  574TIP3    H123137   5.753   4.612   3.970  0.0827  0.9425  1.1381
  574TIP3    H223138   5.880   4.686   4.004  0.9291  1.5508 -2.8117
  575TIP3   OH223139   4.756   3.729  11.980  0.7477 -0.9313  0.0919
  575TIP3    H123140   4.764   3.734  11.884  0.8355 -1.2319  0.0843
  575TIP3    H223141   4.740   3.820  12.007  3.0586 -0.4459  0.0162
  576TIP3   OH223142   2.143   5.744  14.392 -0.1413 -0.0729 -0.3107
  576TIP3    H123143   2.216   5.741  14.454 -0.2393 -0.8601 -0.2130
  576TIP3    H223144   2.076   5.794  14.437  0.1742  0.2632 -0.2103
  577TIP3   OH223145   0.628   2.880   2.625 -0.0480  0.0941  0.2664
  577TIP3    H123146   0.697   2.843   2.679  0.1568  0.1826  0.0659
  577TIP3    H223147   0.664   2.963   2.593  0.0175 -0.1860 -0.3899
  578TIP3   OH223148   2.311   4.346   2.508  0.4232 -0.5887  0.2726
  578TIP3    H123149   2.219   4.344   2.535  0.1972 -2.1654 -0.4767
  578TIP3    H223150   2.319   4.425   2.456 -1.0910 -1.4556 -1.4134
  579TIP3   OH223151   6.650   0.228  12.012 -0.3485 -0.0709 -0.3442
  579TIP3    H123152   6.592   0.257  11.941  0.1437 -0.6203 -0.9792
  579TIP3    H223153   6.693   0.150  11.977 -0.9650 -1.0353  0.9993
  580TIP3   OH223154   4.626   4.539   4.051  0.3896  0.4682  0.3362
  580TIP3    H123155   4.610   4.448   4.074  2.0682  0.1962  0.5757
  580TIP3    H223156   4.718   4.541   4.024  0.1088  1.9050 -0.6371
  581TIP3   OH223157   4.104   3.975  14.310  0.3452 -0.2100 -0.1075
  581TIP3    H123158   4.163   3.984  14.236  1.0662 -2.2448  0.1581
  581TIP3    H223159   4.159   3.945  14.382 -0.6087  0.1991  0.8252
  582TIP3   OH223160   4.169   6.897   4.563 -0.0646  0.0009  0.2237
  582TIP3    H123161   4.078   6.917   4.582 -0.8083 -2.0052 -0.8604
  582TIP3    H223162   4.188   6.818   4.614  0.8507  0.0149 -0.0660
  583TIP3   OH223163   1.479   0.709  14.918 -0.5565 -0.0514  0.4793
  583TIP3    H123164   1.541   0.747  14.981  1.3825 -2.2604  0.0460
  583TIP3    H223165   1.410   0.671  14.973  0.7596 -1.3587  1.2970
  584TIP3   OH223166   4.129   0.154   5.233  0.1372  0.1438  0.3545
  584TIP3    H123167   4.215   0.152   5.274  0.6114 -2.4709 -0.5435
  584TIP3    H223168   4.081   0.222   5.280  1.6032 -0.6199  3.1544
  585TIP3   OH223169   6.344   4.836   1.549  0.2814  0.2292 -0.0927
  585TIP3    H123170   6.390   4.885   1.481  0.3836 -1.0776 -1.0128
  585TIP3    H223171   6.358   4.887   1.629  0.6309  1.5099 -0.9399
  586TIP3   OH223172   2.897   2.078  10.920  0.3668  0.2245  0.0478
  586TIP3    H123173   2.951   2.009  10.881  0.2232 -0.7525  1.4797
  586TIP3    H223174   2.953   2.156  10.919  0.8152 -0.0886 -0.9065
  587TIP3   OH223175   5.982   5.857   2.500  1.0979  0.2625 -0.3862
  587TIP3    H123176   5.962   5.805   2.423  2.2052  0.0576 -0.5487
  587TIP3    H223177   5.939   5.941   2.484  0.1363 -0.2463 -0.5716
  588TIP3   OH223178   5.954   1.549  13.664  0.7274  0.6596 -0.2884
  588TIP3    H123179   5.880   1.514  13.714  0.1024  0.6394 -1.2200
  588TIP3    H223180   5.947   1.644  13.675 -0.8509  0.8291 -2.2859
  589TIP3   OH223181   2.591   2.845   2.478  0.5517 -0.1788 -0.2286
  589TIP3    H123182   2.522   2.798   2.525  0.7795 -0.8665 -0.5592
  589TIP3    H223183   2.544   2.896   2.412  0.3609 -0.7581 -0.5499
  590TIP3   OH223184   6.379   6.506   0.376 -0.0890 -0.5260 -0.4400
  590TIP3    H123185   6.406   6.466   0.458 -0.8324  0.6736  0.4240
  590TIP3    H223186   6.461   6.524   0.329  0.6033  1.7048  1.4643
  591TIP3   OH223187   1.140   4.526   6.230 -0.0027  0.2129  0.3062
  591TIP3    H123188   1.145   4.551   6.138  1.2958  2.4867  0.9417
  591TIP3    H223189   1.067   4.463   6.233 -0.1400  0.1413 -2.2189
  592TIP3   OH223190   2.022   4.774   0.961 -0.4144 -0.3454  0.4660
  592TIP3    H123191   2.080   4.720   1.015  0.3779 -0.4409 -0.4578
  592TIP3    H223192   2.068   4.783   0.877 -1.5073  0.0017 -0.1173
  593TIP3   OH223193   5.905   6.480  13.372  0.1542  0.2272  0.0146
  593TIP3    H123194   5.831   6.456  13.427 -0.8070  1.4464 -0.6966
  593TIP3    H223195   5.935   6.397  13.334  1.3506 -0.7801  2.8901
  594TIP3   OH223196   4.602   5.812   1.614 -0.1058 -0.2755  0.3204
  594TIP3    H123197   4.604   5.729   1.661 -0.6434 -0.2953  0.3079
  594TIP3    H223198   4.580   5.877   1.680  0.8665 -0.0579  0.4450
  595TIP3   OH223199   4.501   1.101  10.564  0.2219  0.1952  0.1492
  595TIP3    H123200   4.533   1.184  10.529 -0.5429  0.3933 -0.0920
  595TIP3    H223201   4.571   1.039  10.545  0.1786  0.4740 -0.9924
  596TIP3   OH223202   5.398   0.142  14.479 -0.5658  0.3193 -0.0581
  596TIP3    H123203   5.330   0.208  14.474 -1.1256 -0.3034 -1.3255
  596TIP3    H223204   5.416   0.119  14.387 -2.8049 -3.6447  0.2617
  597TIP3   OH223205   6.603   6.704   5.544  0.4877  0.2686  0.5475
  597TIP3    H123206   6.537   6.766   5.575  0.1694 -0.0435  0.4943
  597TIP3    H223207   6.632   6.740   5.460 -2.7865 -1.8074 -1.7086
  598TIP3   OH223208   4.384   6.123  11.426  0.0324  0.2824 -0.0794
  598TIP3    H123209   4.409   6.033  11.404 -1.4895 -0.0389 -0.5564
  598TIP3    H223210   4.375   6.167  11.342  2.9761  1.5776  0.1484
  599TIP3   OH223211   5.092   6.302  14.709 -0.1964 -0.6057  0.2456
  599TIP3    H123212   5.138   6.356  14.774  1.2870 -1.1968 -0.2593
  599TIP3    H223213   5.156   6.290  14.638 -0.7727 -2.3015 -0.0439
  600TIP3   OH223214   0.868   5.894   3.179  0.1764 -0.1187 -0.4450
  600TIP3    H123215   0.938   5.959   3.189  0.0020 -0.1231  0.9596
  600TIP3    H223216   0.850   5.894   3.085 -0.9381  3.1108 -0.3785
  601TIP3   OH223217   2.823   3.110  10.521  0.0441  0.0208  0.4224
  601TIP3    H123218   2.899   3.055  10.537  0.0372 -0.3625 -0.7468
  601TIP3    H223219   2.823   3.174  10.592  3.2475  2.0366 -1.1864
  602TIP3   OH223220   0.910   5.720  10.787  0.3634  0.6134  0.2376
  602TIP3    H123221   0.824   5.683  10.767  0.1566  1.9410 -1.5583
  602TIP3    H223222   0.894   5.813  10.804  1.3835  0.7994  0.2702
  603TIP3   OH223223   3.503   1.686   5.510  0.3984  0.4404 -0.4593
  603TIP3    H123224   3.553   1.746   5.454  2.3516  0.1035  0.8028
  603TIP3    H223225   3.554   1.682   5.591 -1.1280 -0.8401  0.4843
  604TIP3   OH223226   5.455   3.536  14.139 -0.0101 -0.0952 -0.2858
  604TIP3    H123227   5.472   3.574  14.053  0.4346 -0.8088 -0.5275
  604TIP3    H223228   5.444   3.442  14.121  1.4885 -0.4770  0.5887
  605TIP3   OH223229   0.485   2.195   3.911 -0.0357 -0.2396  0.1004
  605TIP3    H123230   0.413   2.224   3.967 -0.1431  0.9248 -0.5985
  605TIP3    H223231   0.442   2.145   3.842 -0.0392 -0.5764  0.3440
  606TIP3   OH223232   5.248   6.741  11.334 -0.2144 -0.0169  0.0309
  606TIP3    H123233   5.327   6.688  11.326 -1.1554 -1.3545 -0.9099
  606TIP3    H223234   5.256   6.784  11.419  1.6477  0.1277 -0.1708
  607TIP3   OH223235   0.238   5.872   1.227 -0.7257 -0.5735 -0.0815
  607TIP3    H123236   0.151   5.845   1.257 -1.5779  2.1942  0.2016
  607TIP3    H223237   0.253   5.956   1.270  1.4067 -0.2175 -1.4050
  608TIP3   OH223238   2.581   0.603  16.323 -0.6326 -0.0743 -0.0150
  608TIP3    H123239   2.661   0.621  16.274 -0.6764 -1.1925 -0.5446
  608TIP3    H223240   2.608   0.542  16.392 -0.9672 -0.2034  0.0074
  609TIP3   OH223241   2.025   5.122   5.674  0.0808 -0.1772 -0.3323
  609TIP3    H123242   1.939   5.163   5.666  0.1884  0.1180 -0.0205
  609TIP3    H223243   2.032   5.101   5.767  0.9554  1.1690 -0.0568
  610TIP3   OH223244   4.637   4.493  14.627  0.4294  0.6573 -0.4803
  610TIP3    H123245   4.567   4.550  14.658 -1.8608 -1.2536 -1.8056
  610TIP3    H223246   4.626   4.412  14.677  0.7087 -0.2191 -1.7886
  611TIP3   OH223247   5.789   6.736  13.042  0.7099 -0.0075  0.4185
  611TIP3    H123248   5.767   6.666  12.981  3.6898 -0.9927  0.3109
  611TIP3    H223249   5.720   6.802  13.028 -0.9273 -1.9012 -1.0957
  612TIP3   OH223250   1.740   4.516   4.472 -0.0580 -0.3126 -0.1311
  612TIP3    H123251   1.821   4.560   4.499  0.6298 -1.8822  0.4890
  612TIP3    H223252   1.688   4.511   4.552 -0.5858  0.2887 -0.4298
  613TIP3   OH223253   3.423   3.252  13.194 -0.6914 -0.3390  0.0018
  613TIP3    H123254   3.374   3.333  13.207  0.0218  0.0181  0.5742
  613TIP3    H223255   3.514   3.281  13.185 -0.4434 -1.0686  0.1071
  614TIP3   OH223256   2.530   3.262  14.487  0.1728 -0.0757 -0.2015
  614TIP3    H123257   2.549   3.308  14.569  0.6020 -0.3978 -0.1198
  614TIP3    H223258   2.525   3.170  14.512  1.0797 -0.2562 -0.6727
  615TIP3   OH223259   2.958   4.470  11.111  0.3722 -0.0557 -0.3245
  615TIP3    H123260   3.010   4.405  11.064  1.2502  2.2059 -2.8033
  615TIP3    H223261   2.871   4.464  11.072  0.1363 -0.5012  0.2647
  616TIP3   OH223262   0.848   4.423  16.339 -0.1161  0.7341  0.5718
  616TIP3    H123263   0.943   4.423  16.350 -0.1163  1.0736  0.5951
  616TIP3    H223264   0.814   4.424  16.428 -0.1411  0.3880  0.5645
  617TIP3   OH223265   0.484   5.292   3.584 -0.2564  0.2709  0.8897
  617TIP3    H123266   0.479   5.384   3.559  1.9016  1.2313  3.5278
  617TIP3    H223267   0.563   5.260   3.540 -0.8375 -0.2733  0.2161
  618TIP3   OH223268   2.017   0.634  15.308  0.3786 -0.1837 -0.6751
  618TIP3    H123269   1.940   0.582  15.285 -0.9371  1.4391 -0.1301
  618TIP3    H223270   2.090   0.586  15.270 -0.8165 -2.1142 -0.6861
  619TIP3   OH223271   4.777   1.802   3.245 -0.1930 -0.1620 -0.1453
  619TIP3    H123272   4.845   1.735   3.253 -1.5006 -2.2503 -3.9204
  619TIP3    H223273   4.707   1.772   3.303  1.0558  0.7891  2.0080
  620TIP3   OH223274   1.134   5.817   1.455 -0.1273  0.1471 -0.6388
  620TIP3    H123275   1.226   5.798   1.435 -0.3348 -0.8798 -0.6950
  620TIP3    H223276   1.095   5.730   1.468 -0.4213  0.6196  2.4236
  621TIP3   OH223277   2.727   6.319   1.253  0.8042  0.1897  0.0992
  621TIP3    H123278   2.741   6.229   1.222  1.1043 -0.4323  1.9404
  621TIP3    H223279   2.736   6.313   1.348 -2.3327  1.5441  0.6094
  622TIP3   OH223280   5.846   5.962  12.179 -0.4601 -0.3092  0.2157
  622TIP3    H123281   5.923   6.019  12.180  0.6136 -1.7087  0.6335
  622TIP3    H223282   5.840   5.933  12.088 -0.3011 -0.4449  0.2480
  623TIP3   OH223283   2.991   6.268   3.470  0.0701 -0.8305  0.4025
  623TIP3    H123284   3.052   6.231   3.534  0.6688  0.5432  0.6635
  623TIP3    H223285   3.031   6.248   3.385  0.3383 -0.8384  0.5309
  624TIP3   OH223286   5.533   6.036   0.945  0.1658  0.0797 -0.2052
  624TIP3    H123287   5.621   6.062   0.920  0.4085 -0.4747  0.0615
  624TIP3    H223288   5.529   6.050   1.039  0.2013 -0.5604 -0.1068
  625TIP3   OH223289   1.389   4.168   0.964  0.4169  0.1604  0.5654
  625TIP3    H123290   1.469   4.138   0.920  0.1361  0.4085 -0.1360
  625TIP3    H223291   1.321   4.108   0.933  0.2999  0.0435  1.0417
  626TIP3   OH223292   3.723   5.726   3.199  0.0018 -0.2905  0.4149
  626TIP3    H123293   3.687   5.791   3.138  0.0625 -0.2234  0.4515
  626TIP3    H223294   3.698   5.641   3.160 -0.7607 -0.2420  0.7730
  627TIP3   OH223295   2.932   6.608   1.258 -0.8562 -0.5759 -0.0507
  627TIP3    H123296   2.974   6.642   1.179 -1.6003  2.3002  0.6562
  627TIP3    H223297   2.876   6.538   1.227 -0.5932  0.0189 -1.9991
  628TIP3   OH223298   4.697   0.095  15.096 -0.3440  0.3883 -0.6774
  628TIP3    H123299   4.742   0.010  15.095  1.2512  1.1839 -1.2666
  628TIP3    H223300   4.736   0.143  15.023  0.3300  2.3897  0.9018
  629TIP3   OH223301   0.911   4.708   5.124  0.1498  0.4923 -0.1724
  629TIP3    H123302   0.827   4.685   5.085  0.3571  0.0063 -0.3385
  629TIP3    H223303   0.894   4.711   5.218  0.3295 -1.3734 -0.0317
  630TIP3   OH223304   4.693   0.107  16.380 -0.2964  0.2908  0.5315
  630TIP3    H123305   4.633   0.062  16.440 -1.6916  1.3219 -0.0444
  630TIP3    H223306   4.743   0.166  16.437 -0.9938  0.6260  0.8089
  631TIP3   OH223307   5.391   3.066   2.992  0.2121  0.5225  0.0149
  631TIP3    H123308   5.477   3.048   3.028  0.4142  0.4913 -0.4748
  631TIP3    H223309   5.364   2.984   2.950  0.2124  0.7124 -0.3656
  632TIP3   OH223310   5.423   4.016   0.174 -0.2270 -0.2052  0.5012
  632TIP3    H123311   5.427   4.105   0.140 -2.2206 -0.0396  0.6056
  632TIP3    H223312   5.475   4.019   0.255  0.3759  0.6402  0.1031
  633TIP3   OH223313   6.855   1.384  11.929  0.2630 -0.0990 -0.1756
  633TIP3    H123314   6.786   1.440  11.893 -0.6420 -1.0119  0.1045
  633TIP3    H223315   6.907   1.358  11.853  1.5394  2.1794 -0.1714
  634TIP3   OH223316   3.051   0.843   0.680 -0.0787 -1.1534 -0.0627
  634TIP3    H123317   3.082   0.889   0.758 -0.6943 -0.6257 -0.1118
  634TIP3    H223318   3.028   0.913   0.619 -0.0758 -1.5508 -0.5233
  635TIP3   OH223319   2.883   6.227   0.512 -0.1733 -0.5183 -0.3605
  635TIP3    H123320   2.860   6.285   0.584 -0.3284  0.4422 -1.1633
  635TIP3    H223321   2.973   6.252   0.488  0.0431 -1.1364 -0.2136
  636TIP3   OH223322   6.742   2.095   3.293  0.3094  0.5689 -0.2063
  636TIP3    H123323   6.683   2.022   3.312  0.5551  0.6526  0.9664
  636TIP3    H223324   6.802   2.060   3.227  0.5259 -0.3456  0.4577
  637TIP3   OH223325   2.472   2.564  11.032 -0.6560 -0.2370  0.5021
  637TIP3    H123326   2.487   2.591  11.123  0.3584 -0.0310  0.2847
  637TIP3    H223327   2.558   2.573  10.990 -0.7026 -2.0080 -0.0388
  638TIP3   OH223328   3.842   4.327   5.307 -0.0669  0.2262 -0.2306
  638TIP3    H123329   3.805   4.342   5.394 -0.5730  1.7624 -0.6753
  638TIP3    H223330   3.910   4.394   5.297  0.9812 -0.8330 -0.4883
  639TIP3   OH223331   5.691   0.876  11.809 -0.0892 -0.3629  0.4974
  639TIP3    H123332   5.715   0.926  11.887  0.3770 -0.4884  0.4392
  639TIP3    H223333   5.596   0.871  11.812 -0.0731 -0.4346  1.1008
  640TIP3   OH223334   1.100   3.701  15.252  0.5835 -0.2926  0.0669
  640TIP3    H123335   1.155   3.708  15.174 -0.3820  2.0541 -0.5015
  640TIP3    H223336   1.011   3.698  15.218  0.2203 -1.7548  1.0509
  641TIP3   OH223337   6.877   0.601  14.758 -0.1076 -0.8683  0.3729
  641TIP3    H123338   6.794   0.558  14.737 -0.9335  0.7136  0.2470
  641TIP3    H223339   6.910   0.631  14.673  0.1573 -0.7095  0.5308
  642TIP3   OH223340   3.678   5.210   3.061  0.3398 -0.1644 -0.2346
  642TIP3    H123341   3.731   5.207   2.981  0.5901  2.9958 -0.3022
  642TIP3    H223342   3.593   5.175   3.034  0.5194  0.5453 -1.8363
  643TIP3   OH223343   2.841   0.573   1.934  0.3638 -0.4785 -0.3517
  643TIP3    H123344   2.843   0.570   1.838 -1.3719  1.3855 -0.4952
  643TIP3    H223345   2.772   0.511   1.959  1.3312 -1.5473 -0.2064
  644TIP3   OH223346   5.775   0.099  15.617 -0.0498 -0.1147 -0.2598
  644TIP3    H123347   5.691   0.142  15.603  0.1342  0.5439  0.6363
  644TIP3    H223348   5.829   0.164  15.661  0.9313 -0.5420 -0.7959
  645TIP3   OH223349   4.677   0.522  14.188 -0.2783  0.4710  0.1729
  645TIP3    H123350   4.583   0.518  14.206 -0.3595  1.8147  0.1738
  645TIP3    H223351   4.717   0.461  14.250 -1.1083  0.2312  0.4792
  646TIP3   OH223352   2.740   0.480   5.018 -0.0923  0.2526 -0.1477
  646TIP3    H123353   2.805   0.536   5.061 -0.2924 -0.1143  0.6511
  646TIP3    H223354   2.763   0.391   5.046 -1.7921  0.2383  1.3195
  647TIP3   OH223355   0.392   4.482  12.769 -0.0603 -0.2820  0.1273
  647TIP3    H123356   0.330   4.473  12.842  0.3690  3.0214  1.0831
  647TIP3    H223357   0.475   4.506  12.811  0.8266 -0.6610 -1.3553
  648TIP3   OH223358   3.453   5.488  14.366 -0.0807  0.2235  0.2192
  648TIP3    H123359   3.381   5.439  14.325 -0.7243  0.2331  1.3057
  648TIP3    H223360   3.496   5.532  14.293 -0.5867 -0.5450 -0.5683
  649TIP3   OH223361   2.987   6.127   1.478 -0.9465  0.0689 -0.1471
  649TIP3    H123362   2.997   6.126   1.383  0.9584  0.2853  0.0176
  649TIP3    H223363   2.953   6.214   1.497 -1.1795  0.0851 -0.6193
  650TIP3   OH223364   2.124   0.023   0.522 -0.1639 -0.0924  0.4079
  650TIP3    H123365   2.115  -0.054   0.466  0.5927  0.4609 -0.5020
  650TIP3    H223366   2.099  -0.008   0.609  1.3759 -1.7465  0.3323
  651TIP3   OH223367   1.882   0.535  12.920  0.1058 -0.0885 -0.2899
  651TIP3    H123368   1.868   0.603  12.986  1.0841  0.9420 -1.1014
  651TIP3    H223369   1.880   0.453  12.969 -1.8213  0.4371  0.6060
  652TIP3   OH223370   4.824   4.827  12.759  0.5185  0.5313  0.3072
  652TIP3    H123371   4.867   4.792  12.837 -0.6112 -1.0570  0.2493
  652TIP3    H223372   4.821   4.753  12.698  2.3001  1.9772 -1.7151
  653TIP3   OH223373   3.974   5.410   5.722  0.0048 -0.4595 -0.3443
  653TIP3    H123374   3.902   5.378   5.775 -0.2050  0.8712  0.2228
  653TIP3    H223375   4.052   5.396   5.775 -0.0903 -0.0321 -0.0850
  654TIP3   OH223376   5.804   5.738   2.007  0.7098  0.4073 -0.2477
  654TIP3    H123377   5.725   5.702   2.048 -0.3890  1.0552 -1.6883
  654TIP3    H223378   5.864   5.753   2.079 -0.4546 -0.1741  0.8867
  655TIP3   OH223379   2.041   5.988  13.498  0.0895  0.0939 -0.2542
  655TIP3    H123380   1.994   5.944  13.427 -0.2874  0.7835 -0.4379
  655TIP3    H223381   2.089   6.058  13.455 -0.9569  1.1777  0.2839
  656TIP3   OH223382   3.678   2.491   5.093 -0.5455  0.1023 -0.5083
  656TIP3    H123383   3.658   2.568   5.040 -1.5232 -0.1339 -0.5110
  656TIP3    H223384   3.676   2.418   5.031 -1.5616 -0.1598 -0.1921
  657TIP3   OH223385   6.116   6.186  13.278 -0.1068  0.4663 -0.1719
  657TIP3    H123386   6.059   6.116  13.309 -0.4804  0.0047 -1.8520
  657TIP3    H223387   6.171   6.145  13.212  0.7588  1.4066 -0.0617
  658TIP3   OH223388   3.388   2.715  16.340 -0.1378 -0.2438 -0.6256
  658TIP3    H123389   3.378   2.621  16.354  0.2977 -0.1962  0.0279
  658TIP3    H223390   3.447   2.744  16.409 -2.4103  0.9877  0.9356
  659TIP3   OH223391   2.203   5.888  16.161 -0.2282  0.1304  0.0074
  659TIP3    H123392   2.183   5.919  16.073  0.7384 -0.7527 -0.5493
  659TIP3    H223393   2.140   5.932  16.218 -2.7022 -1.2990 -1.4422
  660TIP3   OH223394   0.474   6.442  13.017  0.1914 -0.0339  0.5394
  660TIP3    H123395   0.403   6.383  12.992 -0.0399  0.5406 -0.1982
  660TIP3    H223396   0.535   6.386  13.065  1.2733 -1.5502 -2.3345
  661TIP3   OH223397   4.020   3.429   4.753  0.3065  0.2949  0.4798
  661TIP3    H123398   4.026   3.432   4.849  1.4355 -1.8465  0.5445
  661TIP3    H223399   4.016   3.336   4.733 -0.5491  0.7285 -1.5561
  662TIP3   OH223400   4.414   6.027   3.216 -0.3531 -0.0945 -0.8181
  662TIP3    H123401   4.472   5.955   3.241 -1.5045 -1.1624 -1.1111
  662TIP3    H223402   4.369   6.050   3.298 -1.6743 -1.3230 -1.1479
  663TIP3   OH223403   5.656   2.536   5.957  0.0584  0.9099  0.1147
  663TIP3    H123404   5.637   2.443   5.945 -0.4089  0.9261  0.6968
  663TIP3    H223405   5.747   2.545   5.928  0.8412 -0.1595  1.9837
  664TIP3   OH223406   3.581   4.542   2.348  1.1556  0.4607 -0.0219
  664TIP3    H123407   3.533   4.624   2.344 -0.0694 -0.1691  0.9654
  664TIP3    H223408   3.565   4.499   2.264  1.3725  0.9853 -0.3355
  665TIP3   OH223409   6.774   5.727   3.160 -0.3294  0.3438 -0.4890
  665TIP3    H123410   6.807   5.676   3.234  0.4434  0.8053 -0.5061
  665TIP3    H223411   6.682   5.701   3.152 -0.7222  1.0354  1.2894
  666TIP3   OH223412   5.084   2.138   5.655  0.2733  0.0428 -0.0704
  666TIP3    H123413   5.077   2.070   5.588 -1.6993  0.0955  0.0064
  666TIP3    H223414   5.135   2.098   5.725  1.4012 -0.4105 -1.1206
  667TIP3   OH223415   0.729   1.131  16.573 -0.3862  0.3350 -0.2519
  667TIP3    H123416   0.699   1.170  16.491 -1.4879  0.9427  0.4153
  667TIP3    H223417   0.660   1.069  16.596  0.0270  0.0038  0.1110
  668TIP3   OH223418   4.466   0.158   0.575 -0.3179  0.0482 -0.6214
  668TIP3    H123419   4.482   0.252   0.570  0.9984 -0.1640 -0.7595
  668TIP3    H223420   4.371   0.150   0.569 -0.5445  1.4262  0.3860
  669TIP3   OH223421   2.613   0.193  13.681  0.3023 -0.0355 -0.0886
  669TIP3    H123422   2.695   0.143  13.681 -0.2733 -1.0155  0.5389
  669TIP3    H223423   2.617   0.247  13.602  1.1513 -0.7421 -0.5355
  670TIP3   OH223424   4.503   6.693  14.057 -0.1438 -0.7341 -0.4798
  670TIP3    H123425   4.479   6.644  13.978 -0.1649 -0.9000 -0.3727
  670TIP3    H223426   4.549   6.628  14.111 -2.6527 -1.4620  0.9422
  671TIP3   OH223427   4.647   2.124   4.409 -1.0433 -0.4358 -0.2223
  671TIP3    H123428   4.644   2.029   4.396  3.6213 -0.6752 -1.3018
  671TIP3    H223429   4.629   2.160   4.322 -1.5143 -0.3562 -0.0965
  672TIP3   OH223430   6.163   2.382   5.142 -0.0823  0.3978 -0.0324
  672TIP3    H123431   6.100   2.431   5.195 -2.4029 -0.9748 -1.3597
  672TIP3    H223432   6.112   2.310   5.105  2.4822 -1.2994 -0.5511
  673TIP3   OH223433   1.989   6.864  15.269  0.4139  0.1883  0.1083
  673TIP3    H123434   1.962   6.897  15.183 -1.4090 -2.1921 -0.3496
  673TIP3    H223435   1.909   6.868  15.322  1.1395  0.2124  1.2204
  674TIP3   OH223436   4.986   5.936   2.507 -0.0721  0.0265  0.2603
  674TIP3    H123437   5.050   5.865   2.504  1.0389  0.9822  0.3892
  674TIP3    H223438   5.015   5.996   2.438 -1.5980 -0.1345 -0.5427
  675TIP3   OH223439   3.554   6.017  13.270 -0.0975  0.0115 -0.2055
  675TIP3    H123440   3.633   6.020  13.325 -1.3574 -0.5782  1.7201
  675TIP3    H223441   3.544   6.107  13.238  0.5912  0.4087  0.6485
  676TIP3   OH223442   0.428   4.639  16.064  0.3341 -0.2928 -0.1004
  676TIP3    H123443   0.372   4.709  16.032  0.1823 -0.2770  0.1933
  676TIP3    H223444   0.517   4.674  16.057  0.2617 -0.0873  0.0044
  677TIP3   OH223445   0.682   4.114  13.011  0.1860 -0.1434  0.0075
  677TIP3    H123446   0.730   4.075  12.939 -0.9128 -1.9999  0.2027
  677TIP3    H223447   0.595   4.134  12.974  0.0433  0.1371  0.4785
  678TIP3   OH223448   5.866   1.122   1.524  0.4882 -0.3881  0.2855
  678TIP3    H123449   5.832   1.201   1.482 -1.4566 -0.6903  1.1853
  678TIP3    H223450   5.880   1.147   1.615  0.8043 -0.8370  0.3664
  679TIP3   OH223451   3.365   5.989   2.252  0.6580  0.2207  0.4935
  679TIP3    H123452   3.390   5.915   2.308  0.8795  0.5272  0.8042
  679TIP3    H223453   3.447   6.034   2.233  0.7745 -0.6565 -1.2169
  680TIP3   OH223454   0.678   1.978   2.393 -0.4626  0.0763 -0.3585
  680TIP3    H123455   0.667   2.043   2.324  0.7277  0.1199 -0.5307
  680TIP3    H223456   0.629   2.014   2.467 -1.0730  0.4246 -0.9209
  681TIP3   OH223457   5.855   6.132  15.494 -0.5357  0.2613  0.4834
  681TIP3    H123458   5.777   6.156  15.444  0.5408  1.3029 -0.7831
  681TIP3    H223459   5.863   6.202  15.559 -0.7123  0.1062  0.6712
  682TIP3   OH223460   2.699   4.129  16.516 -0.2714  0.1018 -0.0346
  682TIP3    H123461   2.752   4.208  16.530  1.0131 -0.8913  1.0474
  682TIP3    H223462   2.751   4.058  16.556 -2.5172 -0.9262  1.2245
  683TIP3   OH223463   4.355   0.432   2.205  0.2665 -0.7902 -0.4529
  683TIP3    H123464   4.317   0.381   2.134  0.6406 -0.2797 -1.0367
  683TIP3    H223465   4.288   0.433   2.273 -0.9685  0.4317 -1.6083
  684TIP3   OH223466   6.123   3.859   4.440 -0.3918  0.1082 -0.2154
  684TIP3    H123467   6.158   3.856   4.530  0.0620 -0.5617 -0.4063
  684TIP3    H223468   6.191   3.818   4.387 -0.7168  0.3831 -0.8529
  685TIP3   OH223469   4.451   2.322   1.297 -0.1142 -0.2929 -0.4134
  685TIP3    H123470   4.471   2.409   1.262 -0.6779  1.0059  2.2753
  685TIP3    H223471   4.520   2.306   1.362 -1.2627 -0.8274  0.7175
  686TIP3   OH223472   4.168   6.391   3.596  0.4905 -0.2669  0.1269
  686TIP3    H123473   4.181   6.424   3.685 -3.8656  0.4944  0.6907
  686TIP3    H223474   4.146   6.469   3.544  0.4664 -1.0138 -1.0180
  687TIP3   OH223475   4.064   4.278   6.141 -0.6844  0.0819  0.5064
  687TIP3    H123476   4.047   4.313   6.229 -0.7486  0.2323  0.4341
  687TIP3    H223477   4.135   4.216   6.154  0.6818  1.5549  0.3509
  688TIP3   OH223478   0.776   5.096   1.890  0.0929  0.3687 -0.9457
  688TIP3    H123479   0.774   5.189   1.865  0.5889  0.0680 -2.1707
  688TIP3    H223480   0.703   5.057   1.841 -1.6254  0.5049  1.3730
  689TIP3   OH223481   3.137   3.864   2.595  0.0486 -0.8456  0.3258
  689TIP3    H123482   3.083   3.812   2.536 -1.7825  0.6145  0.6130
  689TIP3    H223483   3.129   3.820   2.680 -0.6795 -0.6750  0.3540
  690TIP3   OH223484   0.486   2.506   6.362 -0.1162  0.9593 -0.5188
  690TIP3    H123485   0.498   2.586   6.310 -1.7388  0.2376 -2.1101
  690TIP3    H223486   0.405   2.467   6.328  0.7181 -1.4568  0.0780
  691TIP3   OH223487   5.273   4.784  11.591  0.1534  0.1309 -0.0704
  691TIP3    H123488   5.348   4.819  11.640 -0.0222  1.6710 -0.8342
  691TIP3    H223489   5.289   4.810  11.501 -0.2968 -1.3343 -0.5926
  692TIP3   OH223490   3.536   4.836  11.266  0.9978  0.4015 -0.3207
  692TIP3    H123491   3.579   4.817  11.349 -0.2690  0.2679  0.3399
  692TIP3    H223492   3.571   4.921  11.239  0.5025  1.0563  1.0159
  693TIP3   OH223493   3.618   2.178  14.653  0.0472  0.0109 -0.1969
  693TIP3    H123494   3.580   2.266  14.648  0.2224  0.0661 -0.6002
  693TIP3    H223495   3.563   2.125  14.596  0.5320  0.0829 -0.7546
  694TIP3   OH223496   1.157   0.139   4.336  0.2511 -0.3058 -0.0751
  694TIP3    H123497   1.157   0.221   4.287  0.9893  2.1397  3.5839
  694TIP3    H223498   1.247   0.106   4.328 -0.1425 -1.0635 -1.8619
  695TIP3   OH223499   6.511   0.807   1.890 -0.1989 -0.2867 -0.7086
  695TIP3    H123500   6.501   0.717   1.921  0.9160 -0.2245 -0.0920
  695TIP3    H223501   6.581   0.802   1.824 -0.0903  0.1291 -0.6279
  696TIP3   OH223502   2.628   4.278   3.269 -0.1988 -0.3702  0.3724
  696TIP3    H123503   2.721   4.258   3.255 -0.2347 -0.6929  0.5864
  696TIP3    H223504   2.628   4.348   3.334 -0.0907 -0.0704  0.0516
  697TIP3   OH223505   3.402   0.669  14.650  0.5965 -0.1153  0.0085
  697TIP3    H123506   3.346   0.654  14.726  1.0304 -0.4679  0.2665
  697TIP3    H223507   3.352   0.633  14.577  0.1515  0.2742  0.1168
  698TIP3   OH223508   3.265   3.547  11.887 -0.1516 -0.2151  0.4888
  698TIP3    H123509   3.293   3.455  11.887  1.2130  0.1489 -0.8657
  698TIP3    H223510   3.341   3.595  11.920  0.0784  0.6121 -1.1509
  699TIP3   OH223511   4.081   0.376  16.320  0.3583  0.6417 -0.7074
  699TIP3    H123512   4.174   0.364  16.341  0.6028 -0.1678 -2.1001
  699TIP3    H223513   4.040   0.294  16.347  0.3289  0.4070 -1.4224
  700TIP3   OH223514   2.237   5.000  15.496 -0.9559  0.0350  0.2568
  700TIP3    H123515   2.207   5.025  15.583 -1.1107 -1.5550  0.6778
  700TIP3    H223516   2.181   5.050  15.436 -1.2792  0.6495  1.0493
  701TIP3   OH223517   4.604   0.314  11.271  0.1726  0.2221  0.3707
  701TIP3    H123518   4.520   0.351  11.299  1.0189  1.8888  0.9135
  701TIP3    H223519   4.657   0.391  11.249  1.8454 -0.7208  0.9247
  702TIP3   OH223520   2.997   5.635   3.168 -0.2401  0.2217  0.5182
  702TIP3    H123521   2.955   5.659   3.251  1.0565 -0.5805  1.4431
  702TIP3    H223522   2.999   5.539   3.169  1.1259  0.2348  0.2587
  703TIP3   OH223523   2.397   4.485   0.143  0.5665 -0.1121  0.1333
  703TIP3    H123524   2.414   4.578   0.161  0.9086  0.0172 -0.8213
  703TIP3    H223525   2.442   4.468   0.061 -0.3711 -0.8564 -0.2440
  704TIP3   OH223526   1.823   5.978  11.860  0.1238  0.1285 -0.2581
  704TIP3    H123527   1.768   5.940  11.928 -0.2066 -0.2762 -0.7456
  704TIP3    H223528   1.765   5.991  11.785  0.9226 -1.4244 -1.2004
  705TIP3   OH223529   0.432   6.828   4.267 -0.7771  0.3990 -0.2387
  705TIP3    H123530   0.513   6.822   4.217  0.1261  0.9473  1.1038
  705TIP3    H223531   0.363   6.820   4.202  0.3546  0.4751 -1.4839
  706TIP3   OH223532   5.512   6.787   2.866  0.5647  0.4331 -0.2147
  706TIP3    H123533   5.421   6.758   2.871  0.1358  1.8900  1.2430
  706TIP3    H223534   5.561   6.720   2.914  0.2527 -0.2513 -0.8333
  707TIP3   OH223535   0.789   1.866  16.631  0.2411 -0.7991  0.1367
  707TIP3    H123536   0.842   1.810  16.575 -0.6358 -1.8230  0.2983
  707TIP3    H223537   0.715   1.811  16.656 -0.2597  0.2029  0.9066
  708TIP3   OH223538   2.611   2.217   4.429  0.7278  0.5118 -0.1492
  708TIP3    H123539   2.583   2.139   4.477 -1.7156  0.6346 -1.1957
  708TIP3    H223540   2.702   2.230   4.455  0.5875 -1.4685  1.6421
  709TIP3   OH223541   3.362   0.081   6.117 -0.1524  0.3693  0.5083
  709TIP3    H123542   3.300   0.035   6.174 -0.6102 -0.5149 -0.6684
  709TIP3    H223543   3.320   0.084   6.032 -0.4061  3.5751  0.6300
  710TIP3   OH223544   5.773   0.040   0.389 -0.1823 -0.1636  0.2096
  710TIP3    H123545   5.735  -0.020   0.453  0.5620 -0.2503  0.5888
  710TIP3    H223546   5.756   0.127   0.424  0.5255 -0.2207  0.7139
  711TIP3   OH223547   1.943   1.189  15.168  0.6857 -0.5952 -0.0946
  711TIP3    H123548   1.974   1.109  15.210 -1.7460 -2.4017 -1.4964
  711TIP3    H223549   1.952   1.173  15.074 -0.9243  0.2606 -0.4359
  712TIP3   OH223550   5.827   4.019  15.167  0.5729  0.4449  0.5237
  712TIP3    H123551   5.873   4.043  15.087  1.4096  1.2807  1.2189
  712TIP3    H223552   5.761   3.956  15.140  0.8197  0.7432 -0.8172
  713TIP3   OH223553   2.787   1.290   5.219 -0.1690 -0.0783 -0.5455
  713TIP3    H123554   2.843   1.227   5.263  3.0387  2.5039 -0.4819
  713TIP3    H223555   2.734   1.329   5.288  1.5256  0.7550  0.3422
  714TIP3   OH223556   4.699   5.629  15.984 -0.3659  0.4240 -0.6906
  714TIP3    H123557   4.698   5.583  15.900  2.4708 -2.4653  0.6528
  714TIP3    H223558   4.696   5.722  15.960 -0.9295 -0.2698 -3.8711
  715TIP3   OH223559   2.201   0.071   3.147 -0.0084 -0.2375 -0.1154
  715TIP3    H123560   2.107   0.076   3.167 -0.3956 -1.0358 -1.5924
  715TIP3    H223561   2.221   0.157   3.111  0.0549  0.2417  1.0124
  716TIP3   OH223562   3.243   2.080   5.472  0.2952 -0.5987 -0.2773
  716TIP3    H123563   3.303   2.155   5.477  0.9692 -1.1159 -0.3787
  716TIP3    H223564   3.187   2.088   5.549  0.2568  0.0941 -0.3727
  717TIP3   OH223565   6.521   4.320   2.231  0.6738 -0.1750 -0.2058
  717TIP3    H123566   6.475   4.330   2.314 -0.0836 -2.5106 -0.2819
  717TIP3    H223567   6.573   4.240   2.241  2.1300  0.5685 -1.3164
  718TIP3   OH223568   0.303   6.753  16.359  0.2103 -0.3086  0.2111
  718TIP3    H123569   0.214   6.749  16.396 -0.6649 -0.3358 -1.7559
  718TIP3    H223570   0.326   6.661  16.344  0.1731 -0.2542 -0.1753
  719TIP3   OH223571   6.854   1.663  16.115 -0.3639  0.6359  0.0136
  719TIP3    H123572   6.871   1.742  16.063 -1.6360  0.2089 -1.1121
  719TIP3    H223573   6.763   1.641  16.096 -0.1083 -0.9659  0.5027
  720TIP3   OH223574   5.810   3.836   1.089  0.9783  0.4842 -0.1476
  720TIP3    H123575   5.797   3.913   1.034  0.5736  1.6389  1.4854
  720TIP3    H223576   5.882   3.788   1.047  0.9644  1.5274 -1.4132
  721TIP3   OH223577   1.525   0.248   0.504  0.4080  0.0784  0.1041
  721TIP3    H123578   1.565   0.279   0.585  0.3407 -0.3211  0.2959
  721TIP3    H223579   1.510   0.327   0.452 -0.1817  0.4090  0.7652
  722TIP3   OH223580   5.203   2.755  14.034 -0.2170  0.1361 -0.2175
  722TIP3    H123581   5.159   2.817  14.092 -0.7754 -1.3789  1.0548
  722TIP3    H223582   5.175   2.779  13.946  1.2034  2.9525 -0.0045
  723TIP3   OH223583   3.235   0.082   0.590  0.1543  0.3993  0.1964
  723TIP3    H123584   3.231   0.038   0.505  2.1067  0.0717  0.2186
  723TIP3    H223585   3.170   0.151   0.585  1.3045  1.4109 -2.1848
  724TIP3   OH223586   0.517   3.603  13.501  0.4175 -0.2353 -0.3884
  724TIP3    H123587   0.424   3.580  13.499 -0.1689  1.8807 -1.2394
  724TIP3    H223588   0.562   3.527  13.466 -0.6837 -2.3077  2.3198
  725TIP3   OH223589   0.234   1.604  16.607 -0.5215 -0.4628 -0.2503
  725TIP3    H123590   0.190   1.687  16.626 -0.3347 -0.5983  0.8663
  725TIP3    H223591   0.192   1.573  16.527 -1.7645 -0.0888  0.2218
  726TIP3   OH223592   2.533   5.555  15.383  0.6286  0.1766 -0.0354
  726TIP3    H123593   2.545   5.590  15.471 -2.9658  2.8104 -0.3398
  726TIP3    H223594   2.575   5.620  15.325  0.4022  0.0538 -0.3426
  727TIP3   OH223595   1.261   5.588   1.215 -0.5545  0.1986  0.1183
  727TIP3    H123596   1.193   5.609   1.151 -0.2671 -1.4388 -0.8000
  727TIP3    H223597   1.339   5.571   1.162  0.0040 -0.0625  0.9977
  728TIP3   OH223598   4.502   3.861   1.682  0.2748  0.6951  0.6783
  728TIP3    H123599   4.584   3.900   1.652  1.2665 -1.4643  0.4245
  728TIP3    H223600   4.434   3.919   1.647  1.6365  2.2088  0.3945
  729TIP3   OH223601   3.226   2.048  13.162  0.4872  0.6238 -0.2721
  729TIP3    H123602   3.186   2.093  13.087 -0.1009 -0.1269 -0.4273
  729TIP3    H223603   3.239   2.117  13.227 -1.2981  0.8845 -0.1337
  730TIP3   OH223604   2.735   1.957   5.115  0.6541  0.4989  0.2700
  730TIP3    H123605   2.669   2.014   5.076  1.4435  1.0391 -0.3075
  730TIP3    H223606   2.819   1.992   5.084  1.1245 -2.1118 -1.6991
  731TIP3   OH223607   1.672   2.486  13.513 -0.5055 -0.3033 -0.1519
  731TIP3    H123608   1.611   2.529  13.572 -0.9825 -3.0759  1.5441
  731TIP3    H223609   1.626   2.406  13.486  1.0225 -0.7175 -1.6837
  732TIP3   OH223610   2.776   2.272   3.531  0.3638  0.0551 -0.7933
  732TIP3    H123611   2.839   2.204   3.508 -0.1986 -0.0916 -1.9969
  732TIP3    H223612   2.778   2.276   3.626  1.8821 -0.2258 -0.7948
  733TIP3   OH223613   1.325   5.124  16.560 -0.3215 -0.0875  0.4625
  733TIP3    H123614   1.305   5.217  16.571  0.9052  0.2324  0.1678
  733TIP3    H223615   1.409   5.123  16.515 -0.6631 -1.3523 -0.1877
  734TIP3   OH223616   6.465   2.185  14.908 -0.5624 -0.2784  0.5687
  734TIP3    H123617   6.514   2.146  14.835 -2.6357 -0.3275 -0.9040
  734TIP3    H223618   6.532   2.215  14.969  1.2081 -2.2094 -0.3176
  735TIP3   OH223619   0.552   2.595  10.475 -0.3424 -0.4873 -0.3832
  735TIP3    H123620   0.627   2.597  10.416  0.3255 -0.3389  0.4653
  735TIP3    H223621   0.588   2.615  10.561 -1.1180 -1.8592  0.2869
  736TIP3   OH223622   0.692   6.664  14.053  0.1618 -0.0425  1.0281
  736TIP3    H123623   0.740   6.746  14.047 -0.0692  0.1349  1.5206
  736TIP3    H223624   0.600   6.690  14.057  0.0171 -0.3773  0.0881
  737TIP3   OH223625   2.337   3.792   3.750 -0.5004 -0.1956 -0.2754
  737TIP3    H123626   2.368   3.817   3.664  0.0245 -1.0754 -0.3540
  737TIP3    H223627   2.373   3.859   3.809 -2.8460  1.8334 -0.9728
  738TIP3   OH223628   0.604   4.415  13.087 -0.2792  0.5254 -0.4771
  738TIP3    H123629   0.615   4.502  13.125 -1.8286  0.5299 -0.0110
  738TIP3    H223630   0.601   4.356  13.162  0.7800  0.0465 -0.7921
  739TIP3   OH223631   2.160   3.079  11.144  0.3882  0.5039 -0.3397
  739TIP3    H123632   2.074   3.098  11.181 -0.3044  0.3919 -1.8088
  739TIP3    H223633   2.219   3.083  11.219 -0.3944  3.6110  0.2963
  740TIP3   OH223634   4.742   2.657   5.932 -0.7538 -0.2025 -0.8725
  740TIP3    H123635   4.703   2.570   5.942 -1.0765  0.0241 -0.0834
  740TIP3    H223636   4.689   2.714   5.987  1.1973 -0.0356  0.9478
  741TIP3   OH223637   2.109   6.455  16.308 -0.1449 -0.4458 -0.4761
  741TIP3    H123638   2.121   6.401  16.230 -2.8162 -2.5935  0.4357
  741TIP3    H223639   2.057   6.400  16.367 -0.2424  1.9790  1.8876
  742TIP3   OH223640   4.865   0.152  14.903  0.3386 -0.7127  0.3154
  742TIP3    H123641   4.923   0.171  14.977  2.7635  1.5645 -1.9818
  742TIP3    H223642   4.919   0.102  14.842 -0.7395 -0.2338 -1.0861
  743TIP3   OH223643   5.707   0.456  12.054 -0.8640 -0.8730  0.5876
  743TIP3    H123644   5.652   0.508  11.995  0.9429 -0.7143 -1.0610
  743TIP3    H223645   5.652   0.381  12.077 -2.1964 -0.1141  0.0064
  744TIP3   OH223646   6.410   3.995   6.233  0.6404 -0.2244  0.5097
  744TIP3    H123647   6.416   4.080   6.189  0.4299  0.3302  1.5323
  744TIP3    H223648   6.495   3.984   6.274 -0.3593  1.0836  3.1734
  745TIP3   OH223649   6.049   1.752   3.491 -0.0192 -0.1425 -0.0104
  745TIP3    H123650   5.979   1.804   3.531 -0.5150 -0.8500  0.0591
  745TIP3    H223651   6.130   1.791   3.525 -0.3313  1.1489 -0.6594
  746TIP3   OH223652   5.169   4.272   0.998 -0.2740 -0.4788  0.5161
  746TIP3    H123653   5.119   4.286   0.918 -0.0984 -1.3871  0.2381
  746TIP3    H223654   5.256   4.306   0.980 -0.3161 -0.4239  0.4208
  747TIP3   OH223655   1.503   2.295  15.578  0.0281  0.3359 -0.2608
  747TIP3    H123656   1.482   2.386  15.554 -1.1634 -0.0636 -0.8480
  747TIP3    H223657   1.571   2.270  15.516  0.1585  0.7345 -0.2854
  748TIP3   OH223658   6.443   3.615   5.190 -0.4705  0.2092 -0.3441
  748TIP3    H123659   6.457   3.520   5.190  0.0505  0.2600  1.2671
  748TIP3    H223660   6.531   3.652   5.177 -0.9787  0.5434 -4.1057
  749TIP3   OH223661   5.067   3.725   5.344 -0.3423  0.3115 -0.3246
  749TIP3    H123662   5.158   3.698   5.351 -0.3892 -0.0625 -1.0657
  749TIP3    H223663   5.033   3.677   5.268 -1.1914  0.3456  0.0183
  750TIP3   OH223664   5.693   4.309   2.640 -0.4026  0.0771 -0.2828
  750TIP3    H123665   5.670   4.221   2.610 -0.4861 -0.0461  0.1269
  750TIP3    H223666   5.776   4.297   2.687 -1.3126 -0.1236  1.3709
  751TIP3   OH223667   6.720   6.528   4.151 -0.4723  0.5010 -0.3142
  751TIP3    H123668   6.683   6.532   4.063 -0.0932 -0.6202 -0.5462
  751TIP3    H223669   6.812   6.553   4.139  0.0793 -1.4785 -0.5942
  752TIP3   OH223670   3.261   2.057  11.442  0.1669 -0.1718 -0.0595
  752TIP3    H123671   3.348   2.025  11.420  0.2823  0.9983 -1.4421
  752TIP3    H223672   3.201   1.996  11.400  0.3719  0.4506 -1.3119
  753TIP3   OH223673   2.424   3.985   4.561 -0.6637 -0.4594 -0.5066
  753TIP3    H123674   2.420   4.079   4.540  0.4877  0.0471  1.3592
  753TIP3    H223675   2.470   3.947   4.486  1.5977  0.9751  0.0529
  754TIP3   OH223676   4.317   5.549   4.776  0.3552  0.3926  0.4761
  754TIP3    H123677   4.307   5.490   4.851  1.2981 -1.0340 -0.4676
  754TIP3    H223678   4.411   5.561   4.767  0.2899  0.1048 -0.7761
  755TIP3   OH223679   0.060   6.391  15.905 -0.0842  0.5544  0.6785
  755TIP3    H123680  -0.001   6.319  15.926  0.3093 -0.2618 -0.8198
  755TIP3    H223681   0.078   6.380  15.812  2.6387  0.5659  1.1449
  756TIP3   OH223682   0.727   0.758   0.627  0.3600 -0.0351  0.0422
  756TIP3    H123683   0.812   0.790   0.659  0.4039 -0.3786  0.2750
  756TIP3    H223684   0.726   0.666   0.651  0.4358 -0.3293 -1.0440
  757TIP3   OH223685   2.971   5.179  11.160  0.2249 -0.3654  0.1135
  757TIP3    H123686   2.943   5.266  11.188  0.3412 -0.3420  0.1588
  757TIP3    H223687   3.023   5.194  11.081  0.4251 -0.3745  0.2439
  758TIP3   OH223688   5.249   3.894   1.791  0.0702  0.6063 -0.8219
  758TIP3    H123689   5.341   3.895   1.765 -0.3237 -0.6113 -2.3935
  758TIP3    H223690   5.215   3.978   1.760  0.7069  1.2521  0.1393
  759TIP3   OH223691   4.583   2.794   4.280 -0.6556  0.2068 -0.2127
  759TIP3    H123692   4.528   2.715   4.278  1.9180 -1.6824 -0.5606
  759TIP3    H223693   4.658   2.770   4.334  1.4215  1.5401 -2.3534
  760TIP3   OH223694   4.261   1.861   5.156 -0.3161 -0.6741 -0.3658
  760TIP3    H123695   4.234   1.769   5.155  1.6096 -1.2656 -0.4245
  760TIP3    H223696   4.328   1.865   5.224 -0.0006  0.5710 -0.7342
  761TIP3   OH223697   2.700   5.886   5.818 -0.3446  0.1118  0.0477
  761TIP3    H123698   2.694   5.925   5.905 -1.4080  2.3875 -0.9602
  761TIP3    H223699   2.705   5.791   5.834  3.8929  0.5301  2.7172
  762TIP3   OH223700   5.455   4.825   5.304  0.2662 -0.0822  0.4920
  762TIP3    H123701   5.464   4.919   5.285  1.4450 -0.1279  0.7376
  762TIP3    H223702   5.387   4.794   5.244  0.4847  0.7482 -0.1935
  763TIP3   OH223703   6.097   3.145  12.447 -0.7571 -0.2803 -0.2006
  763TIP3    H123704   6.063   3.075  12.502 -0.7119  0.0280  0.2256
  763TIP3    H223705   6.105   3.220  12.506  0.6302 -0.3375 -0.2824
  764TIP3   OH223706   0.044   6.776  12.151  0.4007 -0.1013  0.1481
  764TIP3    H123707  -0.007   6.695  12.148  2.5113 -1.4639 -0.8188
  764TIP3    H223708   0.110   6.761  12.219  0.9646  0.6991 -0.2094
  765TIP3   OH223709   3.332   3.323   1.696 -0.2322 -0.8840 -0.1375
  765TIP3    H123710   3.375   3.387   1.753 -0.9464 -1.7085  1.4122
  765TIP3    H223711   3.393   3.309   1.624  0.7628  0.1297  0.4838
  766TIP3   OH223712   1.355   6.696  14.173  0.3193  0.1819 -0.7644
  766TIP3    H123713   1.287   6.705  14.106  0.4618 -1.0264 -1.0801
  766TIP3    H223714   1.418   6.765  14.152 -0.1515  0.4749 -1.2498
  767TIP3   OH223715   0.453   5.135  11.044 -0.7387 -0.3194  0.0250
  767TIP3    H123716   0.486   5.139  10.954  0.0557 -3.3604  0.0756
  767TIP3    H223717   0.532   5.135  11.098 -1.1826  0.4880  0.6918
  768TIP3   OH223718   1.378   5.568  14.060 -0.1324 -0.3185 -0.6369
  768TIP3    H123719   1.462   5.523  14.054  0.0365 -0.2694  0.9618
  768TIP3    H223720   1.397   5.658  14.033  0.6010 -0.0255  0.7782
  769TIP3   OH223721   6.544   5.861  11.435 -0.0266 -0.0356 -0.9195
  769TIP3    H123722   6.582   5.923  11.497 -0.7752  0.0269 -0.5204
  769TIP3    H223723   6.551   5.905  11.350  2.4032 -0.7249 -1.1779
  770TIP3   OH223724   4.397   0.495   1.824  0.2026  1.3191 -0.5143
  770TIP3    H123725   4.332   0.461   1.885  1.0703  0.5812  0.0295
  770TIP3    H223726   4.464   0.427   1.820  0.2091  1.3792 -2.2448
  771TIP3   OH223727   5.226   1.244   1.104 -0.0796  0.0915 -0.2709
  771TIP3    H123728   5.183   1.330   1.103 -0.7309 -0.1548  1.7639
  771TIP3    H223729   5.309   1.258   1.058 -0.1433  1.8229  0.0638
  772TIP3   OH223730   5.088   4.712  10.179  0.1541 -0.2884  0.4516
  772TIP3    H123731   5.137   4.631  10.183  2.1049  0.4924 -3.2019
  772TIP3    H223732   5.146   4.778  10.218 -0.6264 -0.2907  1.6680
  773TIP3   OH223733   6.180   6.344   0.839  0.2562 -0.5154  0.4728
  773TIP3    H123734   6.088   6.367   0.847  0.2825 -0.0193 -0.4963
  773TIP3    H223735   6.216   6.359   0.927 -0.5820 -0.7638  0.8710
  774TIP3   OH223736   5.259   6.385  11.347 -0.5955  0.1184  0.6883
  774TIP3    H123737   5.284   6.293  11.336  1.3583  0.7034 -0.1196
  774TIP3    H223738   5.199   6.401  11.274 -0.6615 -0.4257  0.6147
  775TIP3   OH223739   0.834   4.127   3.738  0.2168 -0.2436  0.3285
  775TIP3    H123740   0.750   4.083   3.750  0.3909 -0.7024 -0.1503
  775TIP3    H223741   0.816   4.218   3.763 -0.5635 -0.2098 -0.3094
  776TIP3   OH223742   1.637   4.682   5.057 -0.0553 -0.5114 -0.0620
  776TIP3    H123743   1.555   4.644   5.090  0.5280  1.3078  4.1650
  776TIP3    H223744   1.705   4.624   5.090  0.6088  1.8132  3.1654
  777TIP3   OH223745   4.046   5.501  12.923  0.5692 -0.6070  0.1536
  777TIP3    H123746   4.050   5.532  13.013  1.3933  1.8572 -0.6485
  777TIP3    H223747   4.126   5.535  12.882 -1.3761  1.3927 -2.3493
  778TIP3   OH223748   5.077   2.648   4.353  0.1286  0.3592  0.0277
  778TIP3    H123749   5.124   2.687   4.427  1.1045 -1.4855  0.4645
  778TIP3    H223750   5.142   2.642   4.283 -0.7907  2.0950 -1.0356
  779TIP3   OH223751   2.204   6.842   5.114 -0.9837 -0.6348 -0.3381
  779TIP3    H123752   2.261   6.775   5.077  1.3543  0.3090  1.3482
  779TIP3    H223753   2.230   6.848   5.206 -0.3024  3.2693 -0.6105
  780TIP3   OH223754   2.399   6.779  16.578  0.1847  0.4597 -0.6899
  780TIP3    H123755   2.368   6.815  16.661 -0.5772 -2.6680  0.5209
  780TIP3    H223756   2.351   6.697  16.569  1.5982 -0.1653 -3.3554
  781TIP3   OH223757   1.899   2.340   1.608  0.0674  0.3582  0.2367
  781TIP3    H123758   1.915   2.255   1.648  0.8104  0.3315 -0.0923
  781TIP3    H223759   1.933   2.403   1.672 -0.8206  0.4351  0.6457
  782TIP3   OH223760   2.161   3.533   3.795 -0.2193 -0.1990 -0.1468
  782TIP3    H123761   2.165   3.479   3.875 -1.2504 -1.1898 -0.7436
  782TIP3    H223762   2.199   3.617   3.822 -0.4761 -0.5290  1.3659
  783TIP3   OH223763   0.848   2.063  15.168  0.4931 -0.5840  0.2915
  783TIP3    H123764   0.785   2.131  15.196  0.1142 -0.8842  0.1768
  783TIP3    H223765   0.870   2.017  15.248  0.5855 -0.4603  0.3369
  784TIP3   OH223766   5.687   1.177  12.874  0.2889 -0.0956 -0.1169
  784TIP3    H123767   5.702   1.094  12.919  1.7573  0.3762  0.3323
  784TIP3    H223768   5.620   1.221  12.927 -3.1906 -2.3458 -2.2580
  785TIP3   OH223769   1.650   4.025   2.200 -0.8106 -0.2324  0.6202
  785TIP3    H123770   1.650   4.088   2.128  0.4257 -0.3093  0.5252
  785TIP3    H223771   1.656   3.940   2.156 -2.0325 -0.4129  0.7632
  786TIP3   OH223772   3.765   6.283  10.173 -0.5867 -0.0413  0.5746
  786TIP3    H123773   3.827   6.217  10.143 -0.9884 -0.3425  0.4110
  786TIP3    H223774   3.684   6.235  10.191 -1.5909  0.6638 -1.6257
  787TIP3   OH223775   5.566   1.331  14.292 -0.1314  0.5423  0.2318
  787TIP3    H123776   5.565   1.427  14.283 -0.9840  0.4622 -0.7914
  787TIP3    H223777   5.620   1.301  14.219  0.7600  0.2685  0.9961
  788TIP3   OH223778   3.219   3.038  12.732 -0.0379  0.1605 -0.0683
  788TIP3    H123779   3.278   2.974  12.771 -1.9919 -0.9286  1.2368
  788TIP3    H223780   3.220   3.112  12.792  1.8963  1.2742 -1.3640
  789TIP3   OH223781   6.182   4.938  13.409 -0.3873 -0.3969  0.7887
  789TIP3    H123782   6.087   4.950  13.420 -0.6260 -0.9510 -0.4973
  789TIP3    H223783   6.220   5.019  13.443 -1.3079 -0.2192  1.4385
  790TIP3   OH223784   0.325   1.141   0.069 -0.1016  0.1167 -0.3123
  790TIP3    H123785   0.261   1.203   0.036 -1.8143 -0.6869  1.3048
  790TIP3    H223786   0.389   1.194   0.116 -1.8904  0.6756  1.6054
  791TIP3   OH223787   1.009   3.277   6.227 -0.3486  0.1554  0.0970
  791TIP3    H123788   1.062   3.214   6.179  0.0508  1.0862 -0.7085
  791TIP3    H223789   1.073   3.336   6.268 -0.7066 -0.1536  1.1386
  792TIP3   OH223790   6.051   5.596   2.043  0.0088  0.2351  0.2524
  792TIP3    H123791   6.083   5.506   2.044 -1.8107 -0.4656 -0.4385
  792TIP3    H223792   6.045   5.618   1.950 -3.6093 -0.5515  0.1418
  793TIP3   OH223793   4.879   6.236  11.654  0.2731 -0.1336  0.0651
  793TIP3    H123794   4.970   6.217  11.631  0.6319  0.6166  0.8115
  793TIP3    H223795   4.848   6.156  11.697  0.7276 -0.2118  0.2474
  794TIP3   OH223796   1.484   0.445   4.408 -0.0913  0.0572  0.2258
  794TIP3    H123797   1.479   0.538   4.432 -0.3187 -0.1503  0.9933
  794TIP3    H223798   1.534   0.405   4.479  0.7298 -0.2763 -0.5121
  795TIP3   OH223799   3.111   6.696   2.350 -0.6792  0.5032  0.1814
  795TIP3    H123800   3.131   6.634   2.280 -0.0633  1.1061 -0.1937
  795TIP3    H223801   3.092   6.778   2.304 -0.1360  0.9403  0.7244
  796TIP3   OH223802   0.861   6.012   4.115 -0.6912  0.2980  0.0529
  796TIP3    H123803   0.920   6.009   4.040  1.2541  0.7886  1.4869
  796TIP3    H223804   0.851   5.920   4.141 -2.0157  0.0454 -1.2284
  797TIP3   OH223805   1.138   4.387   5.188  0.0931  0.0230 -0.1807
  797TIP3    H123806   1.181   4.451   5.132 -2.4287  3.0011  0.9844
  797TIP3    H223807   1.079   4.340   5.129 -0.4791  1.1521 -0.5297
  798TIP3   OH223808   3.950   1.162   1.284 -0.3298  0.2324 -0.3888
  798TIP3    H123809   3.890   1.235   1.300 -0.0945  0.6227 -1.2564
  798TIP3    H223810   3.900   1.101   1.230 -0.5724 -0.3265  0.4466
  799TIP3   OH223811   4.229   4.331   0.768 -0.1447  0.7529  0.2048
  799TIP3    H123812   4.222   4.286   0.684  0.2935 -0.8357  0.9774
  799TIP3    H223813   4.145   4.313   0.811  0.8072 -1.2404  1.3771
  800TIP3   OH223814   4.550   3.860   5.083  0.0874 -0.2457  0.1116
  800TIP3    H123815   4.511   3.779   5.051 -2.2024  0.7401  0.1906
  800TIP3    H223816   4.530   3.925   5.015  0.7319  0.5346  0.6453
  801TIP3   OH223817   6.429   0.711  13.697  0.1665  0.3078  0.0083
  801TIP3    H123818   6.450   0.670  13.612 -1.0778  0.7835 -0.5549
  801TIP3    H223819   6.358   0.772  13.677  0.0690  0.6632  1.3537
  802TIP3   OH223820   5.612   5.359  15.270 -0.1085 -0.6317  0.3684
  802TIP3    H123821   5.684   5.418  15.291 -1.6030  2.1760 -1.7755
  802TIP3    H223822   5.568   5.344  15.354  1.0316  0.2804  1.1614
  803TIP3   OH223823   3.891   4.603  14.989  0.0808  0.5683  0.3125
  803TIP3    H123824   3.947   4.592  15.066 -0.0979 -1.7657  0.1730
  803TIP3    H223825   3.951   4.632  14.920  0.6750  0.3794  0.7437
  804TIP3   OH223826   0.187   0.740  13.479 -0.5105 -0.0723 -0.7109
  804TIP3    H123827   0.186   0.832  13.452 -1.7319  1.2216  3.0979
  804TIP3    H223828   0.098   0.724  13.510  0.0804 -2.1090  0.0697
  805TIP3   OH223829   0.757   4.382  12.532  0.0841 -0.2490 -0.0141
  805TIP3    H123830   0.779   4.465  12.490  1.6003  0.7566  2.5392
  805TIP3    H223831   0.834   4.359  12.584 -0.2141 -3.4019 -0.7240
  806TIP3   OH223832   4.439   2.791  14.751  0.4496 -0.2372  0.0449
  806TIP3    H123833   4.423   2.697  14.750 -3.7616  0.2619  0.4656
  806TIP3    H223834   4.427   2.818  14.660  0.2896  0.0323  0.1445
  807TIP3   OH223835   4.952   3.003  12.382 -0.1278  0.4190  0.2648
  807TIP3    H123836   4.871   2.974  12.340 -0.5141  1.4444  0.2566
  807TIP3    H223837   5.022   2.964  12.329 -0.5983  1.8233 -1.5238
  808TIP3   OH223838   1.528   1.989  12.124 -0.1451  0.7751 -0.0184
  808TIP3    H123839   1.610   1.953  12.090  0.5426  1.3216  0.9966
  808TIP3    H223840   1.549   2.079  12.148 -2.0718  2.3075 -3.3944
  809TIP3   OH223841   1.573   2.946   3.022 -0.0780  0.4852  0.2711
  809TIP3    H123842   1.578   2.910   2.933 -1.1242  1.7071 -0.2969
  809TIP3    H223843   1.624   3.027   3.017  0.2325  0.3339  0.9213
  810TIP3   OH223844   4.563   2.962   2.857  0.0638 -0.3057 -0.1223
  810TIP3    H123845   4.473   2.980   2.882  0.4406  0.9575  0.4600
  810TIP3    H223846   4.582   3.026   2.788  0.3647 -0.8844 -0.5824
  811TIP3   OH223847   4.732   3.040  11.441  0.5382 -0.2987  0.0607
  811TIP3    H123848   4.720   3.134  11.455  3.5742  0.0390  1.0129
  811TIP3    H223849   4.709   3.000  11.525  4.4385  0.2623  1.5933
  812TIP3   OH223850   4.477   3.495  15.818 -0.4067 -0.0949 -0.4542
  812TIP3    H123851   4.513   3.583  15.808  1.4142 -0.7187  0.2139
  812TIP3    H223852   4.448   3.471  15.729 -1.5614  1.3987 -0.5187
  813TIP3   OH223853   4.640   6.488  13.846  0.1533 -0.6588  0.3628
  813TIP3    H123854   4.567   6.454  13.897 -0.6312 -0.1046 -0.3732
  813TIP3    H223855   4.601   6.518  13.764  1.2023 -0.3497 -0.0454
  814TIP3   OH223856   6.819   6.856  13.010  0.1566 -0.3771  0.5292
  814TIP3    H123857   6.833   6.892  12.923  1.6352 -0.2313  0.8086
  814TIP3    H223858   6.902   6.867  13.055 -0.6773 -0.1418  2.0895
  815TIP3   OH223859   3.041   5.316  16.534 -0.2768  0.2749  0.2173
  815TIP3    H123860   3.043   5.363  16.617  1.7736  1.4696 -0.4353
  815TIP3    H223861   3.081   5.377  16.471  0.3774 -1.4737 -1.1360
  816TIP3   OH223862   0.477   6.416  13.850 -0.4847  0.2328  0.5188
  816TIP3    H123863   0.436   6.485  13.797  0.9086  0.1095 -0.7859
  816TIP3    H223864   0.570   6.438  13.850  0.0536 -1.8049 -0.2086
  817TIP3   OH223865   0.852   1.502   0.046  0.1287  0.1895 -0.5298
  817TIP3    H123866   0.843   1.510  -0.049 -0.6209  0.1095 -0.4761
  817TIP3    H223867   0.928   1.445   0.058  0.5213  0.5868 -1.0657
  818TIP3   OH223868   1.123   6.771   5.753 -0.0904  0.5311  0.3224
  818TIP3    H123869   1.058   6.724   5.805  0.1861 -0.0559  0.1501
  818TIP3    H223870   1.193   6.791   5.814 -0.8699  2.0601  0.7408
  819TIP3   OH223871   1.738   2.483  11.766  0.5723  0.0921  0.1339
  819TIP3    H123872   1.726   2.388  11.764  0.3319  0.1289 -0.3633
  819TIP3    H223873   1.662   2.518  11.719  0.9802  0.4914 -0.2425
  820TIP3   OH223874   6.088   4.721   4.716  0.4246 -0.1183  0.0966
  820TIP3    H123875   6.060   4.697   4.628 -0.9185  0.1359  0.4376
  820TIP3    H223876   6.117   4.812   4.707  2.4824 -0.7868 -0.5292
  821TIP3   OH223877   3.585   6.833   4.181 -0.3494 -0.1258 -0.0665
  821TIP3    H123878   3.630   6.883   4.249  0.4800  0.1862 -0.8268
  821TIP3    H223879   3.579   6.744   4.216 -0.0959  0.0746  0.4873
  822TIP3   OH223880   3.032   3.438  12.053 -0.0334  0.3986  0.0183
  822TIP3    H123881   3.095   3.373  12.084 -0.3289  0.5778  1.0577
  822TIP3    H223882   3.086   3.512  12.024  0.2533  0.7488  1.3569
  823TIP3   OH223883   4.044   4.390  13.789  0.0359  0.6738 -0.3197
  823TIP3    H123884   4.022   4.330  13.718  1.0893  0.2739 -0.3254
  823TIP3    H223885   4.025   4.477  13.754  1.5951  0.5669 -1.5331
  824TIP3   OH223886   3.001   0.441   4.513  0.6232  0.7541  0.1716
  824TIP3    H123887   2.925   0.384   4.528  1.2399 -0.0812  0.1809
  824TIP3    H223888   3.037   0.457   4.600  1.4042 -0.1982  0.0449
  825TIP3   OH223889   3.727   1.922   3.965 -0.4221 -0.4977 -0.1781
  825TIP3    H123890   3.638   1.959   3.970  0.5674  1.9763  0.8881
  825TIP3    H223891   3.760   1.950   3.880  0.9886  3.1539  1.3083
  826TIP3   OH223892   5.808   0.152  15.036 -0.0670  0.8737 -0.2470
  826TIP3    H123893   5.842   0.094  15.105 -0.3079 -0.7220 -1.3979
  826TIP3    H223894   5.883   0.171  14.981 -0.4830 -0.6155 -1.3902
  827TIP3   OH223895   5.088   5.587  15.026 -0.4127  0.3187  0.3009
  827TIP3    H123896   4.996   5.603  15.004 -0.3333  0.7098  0.2412
  827TIP3    H223897   5.100   5.628  15.112 -0.5881 -0.7491  0.8556
  828TIP3   OH223898   2.261   1.982  11.762  0.0905  0.5267  0.3885
  828TIP3    H123899   2.338   2.030  11.792  0.3431 -0.0928  0.7498
  828TIP3    H223900   2.280   1.890  11.782 -1.0823  0.4423  1.2243
  829TIP3   OH223901   0.928   6.383  14.370 -0.0625  0.4414 -0.4828
  829TIP3    H123902   0.900   6.461  14.417 -1.7165 -0.9482  0.9719
  829TIP3    H223903   1.014   6.362  14.405 -0.2230  0.8132  0.1347
  830TIP3   OH223904   3.123   0.068   5.020 -0.9374  0.5343 -0.0870
  830TIP3    H123905   3.205   0.024   5.041 -1.6796 -0.2206  1.3628
  830TIP3    H223906   3.061  -0.002   5.005 -1.6527  1.0880  0.2221
  831TIP3   OH223907   3.033   3.395   1.862  0.3875 -0.6671  0.2916
  831TIP3    H123908   3.005   3.304   1.855 -1.3393 -0.1354 -0.2740
  831TIP3    H223909   3.060   3.419   1.773  1.6025 -0.8325  0.5981
  832TIP3   OH223910   4.029   2.909  14.706  0.0802  0.1646 -0.4064
  832TIP3    H123911   3.935   2.891  14.716  0.2178  0.5926  2.1774
  832TIP3    H223912   4.068   2.823  14.691 -0.2827 -0.7981  3.1872
  833TIP3   OH223913   4.421   6.770  10.426  0.3593  0.4024 -0.2875
  833TIP3    H123914   4.503   6.728  10.453 -1.6710 -3.3482  0.7225
  833TIP3    H223915   4.363   6.760  10.501 -1.8375  0.6169 -1.8673
  834TIP3   OH223916   4.388   5.487  13.131 -0.0210  0.2552  0.9401
  834TIP3    H123917   4.464   5.501  13.075 -0.3013  1.9023  0.9213
  834TIP3    H223918   4.349   5.574  13.141 -1.8059 -0.5121  1.0907
  835TIP3   OH223919   5.615   6.678   2.600  0.4677  0.2366 -0.4196
  835TIP3    H123920   5.700   6.698   2.639  0.5942 -0.4102 -0.3508
  835TIP3    H223921   5.635   6.658   2.509  0.1890  1.6146 -0.8067
  836TIP3   OH223922   2.041   1.252   0.056  0.3364  0.3667 -0.3631
  836TIP3    H123923   1.997   1.313   0.115 -0.1436 -0.5018  0.1954
  836TIP3    H223924   1.974   1.186   0.036  0.8814 -0.0426 -0.8681
  837TIP3   OH223925   3.054   4.549   3.394  0.1286  0.2294  0.3216
  837TIP3    H123926   3.064   4.643   3.377  0.2715  0.3513  1.0446
  837TIP3    H223927   3.129   4.509   3.350 -0.6604  0.3071 -1.1292
  838TIP3   OH223928   6.854   4.437  16.253 -0.2675 -0.0831 -0.1773
  838TIP3    H123929   6.882   4.401  16.337 -0.6811  0.4610  0.1988
  838TIP3    H223930   6.901   4.520  16.245 -0.9069  0.2971 -0.0593
  839TIP3   OH223931   3.391   3.473  14.803  0.0781  0.0622 -0.6240
  839TIP3    H123932   3.329   3.402  14.788  0.7899 -0.5241 -0.8551
  839TIP3    H223933   3.341   3.540  14.849 -0.5103 -0.7439 -0.0766
  840TIP3   OH223934   6.601   6.588  15.872  0.1882 -0.4283  0.6829
  840TIP3    H123935   6.582   6.635  15.953  1.5040 -1.2293  1.5001
  840TIP3    H223936   6.515   6.562  15.838 -0.4477  0.9288  1.1777
  841TIP3   OH223937   1.374   6.017  13.629 -0.2991 -0.3578 -0.3454
  841TIP3    H123938   1.358   6.013  13.535  0.9379 -0.8767 -0.5497
  841TIP3    H223939   1.429   6.095  13.640  0.5404 -0.9585 -0.2179
  842TIP3   OH223940   0.478   4.863   1.379  0.7152  0.1397 -0.1470
  842TIP3    H123941   0.496   4.853   1.285 -0.0879  1.0564 -0.4132
  842TIP3    H223942   0.541   4.804   1.422  0.3258 -1.1787 -1.3041
  843TIP3   OH223943   2.459   1.394  16.275 -0.0118 -0.3356 -0.2880
  843TIP3    H123944   2.455   1.316  16.220  0.4085  0.0519 -0.8761
  843TIP3    H223945   2.375   1.437  16.261  0.2850  0.0221 -1.0281
  844TIP3   OH223946   2.990   6.700  12.248  0.2790  0.3252 -0.3705
  844TIP3    H123947   2.911   6.696  12.303 -0.7614 -0.2813 -1.8382
  844TIP3    H223948   3.031   6.615  12.260  0.1782  0.2760 -0.3725
  845TIP3   OH223949   0.232   1.442  11.085  0.2816  0.1243 -0.0453
  845TIP3    H123950   0.204   1.419  10.997  0.0429  0.1734  0.0193
  845TIP3    H223951   0.184   1.522  11.106 -0.2249 -0.3006  0.4214
  846TIP3   OH223952   1.029   0.936  16.191  0.0664 -0.2952  0.5811
  846TIP3    H123953   0.979   0.969  16.117  2.3144  1.2215 -0.3850
  846TIP3    H223954   1.022   1.004  16.258  0.4144 -0.2880  0.6162
  847TIP3   OH223955   4.535   5.012  14.157 -0.1212 -0.2699 -0.5030
  847TIP3    H123956   4.541   4.968  14.072  0.3498 -1.5598  0.1716
  847TIP3    H223957   4.625   5.021  14.186 -0.3219 -0.9984  0.4144
  848TIP3   OH223958   5.149   3.159  11.408 -0.1274 -0.2200 -0.0155
  848TIP3    H123959   5.100   3.166  11.327  0.0072 -0.8096 -0.1543
  848TIP3    H223960   5.177   3.067  11.411 -0.9572 -0.4493  1.1754
  849TIP3   OH223961   0.554   1.809  11.926 -0.2309 -0.3549 -0.0364
  849TIP3    H123962   0.607   1.811  12.006 -0.0793  1.6774 -0.1497
  849TIP3    H223963   0.618   1.804  11.855 -0.1018  2.1114 -0.1739
  850TIP3   OH223964   2.740   1.895  13.714 -0.0402  0.4166  0.1899
  850TIP3    H123965   2.767   1.949  13.788 -0.0297  0.4070  0.1930
  850TIP3    H223966   2.646   1.883  13.725 -0.0249  0.3485  0.2454
  851TIP3   OH223967   6.711   2.815   2.152  0.1044 -0.6915  0.0583
  851TIP3    H123968   6.688   2.864   2.074  2.3810  0.6373  0.1157
  851TIP3    H223969   6.743   2.731   2.120  0.1684 -0.5056 -0.3638
  852TIP3   OH223970   4.452   4.980   0.515 -0.5805 -0.4885  0.1181
  852TIP3    H123971   4.414   4.899   0.480  1.0125 -1.4246  0.4500
  852TIP3    H223972   4.475   5.032   0.438 -0.1762 -1.0564 -0.1505
  853TIP3   OH223973   2.335   5.754   3.391 -0.3721 -0.1122  0.1499
  853TIP3    H123974   2.340   5.805   3.472  0.7899  1.0793 -0.6284
  853TIP3    H223975   2.426   5.737   3.368 -0.7182 -1.2425 -0.4297
  854TIP3   OH223976   6.750   0.720   1.829 -0.1465 -0.0068  0.0128
  854TIP3    H123977   6.815   0.755   1.891 -0.5167  0.9463 -0.1157
  854TIP3    H223978   6.736   0.630   1.857  1.3470 -0.2822 -0.0445
  855TIP3   OH223979   2.858   2.802  10.988 -0.9087  0.8113  0.1502
  855TIP3    H123980   2.807   2.723  10.965 -0.8651  0.4689  1.1564
  855TIP3    H223981   2.926   2.769  11.047 -0.7048  1.5638  0.3360
  856TIP3   OH223982   0.637   2.082  13.733  0.1533  0.0085 -0.3243
  856TIP3    H123983   0.578   2.026  13.782 -0.2735 -0.4857 -1.3584
  856TIP3    H223984   0.581   2.125  13.668  0.5993  1.0761 -0.0123
  857TIP3   OH223985   0.074   5.910   4.189  0.4620 -0.2193 -0.3226
  857TIP3    H123986   0.055   5.943   4.101  0.5349  0.2519 -0.1624
  857TIP3    H223987   0.127   5.831   4.174  1.1543  0.3094 -0.6822
  858TIP3   OH223988   1.689   1.627   3.810 -0.1339  0.0550 -0.3613
  858TIP3    H123989   1.769   1.598   3.767 -0.0760 -0.3260 -0.0061
  858TIP3    H223990   1.706   1.719   3.831 -0.8366  0.7839 -2.6928
  859TIP3   OH223991   5.790   3.362   1.586  0.5052 -0.2197 -0.2583
  859TIP3    H123992   5.846   3.288   1.607  0.0804 -0.1339  1.2831
  859TIP3    H223993   5.725   3.365   1.657  0.2022  1.3041 -0.5517
  860TIP3   OH223994   4.246   2.535  12.472 -0.0252 -0.1864  0.3434
  860TIP3    H123995   4.180   2.583  12.522 -0.8402 -0.0999 -0.7806
  860TIP3    H223996   4.234   2.444  12.499 -0.2163 -0.0989  0.5635
  861TIP3   OH223997   0.670   4.163   1.839 -0.7110 -0.1002  0.2868
  861TIP3    H123998   0.747   4.109   1.818  0.8622  2.3065 -0.5109
  861TIP3    H223999   0.621   4.167   1.756  1.0093  2.4038 -0.7213
  862TIP3   OH224000   3.276   3.151   0.871  0.0998  0.6532 -0.3367
  862TIP3    H124001   3.210   3.084   0.887 -1.4204  1.8936 -1.0842
  862TIP3    H224002   3.345   3.106   0.823 -1.6021 -0.1132 -2.2284
  863TIP3   OH224003   2.416   5.113  12.790  0.0371  0.0134 -0.1175
  863TIP3    H124004   2.485   5.065  12.743  0.0127 -0.1635  0.0260
  863TIP3    H224005   2.372   5.164  12.722 -0.8036 -1.1832 -0.5064
  864TIP3   OH224006   1.404   1.177   4.669 -0.3701  0.3690  0.1594
  864TIP3    H124007   1.313   1.203   4.682 -0.8078 -1.2539  0.6336
  864TIP3    H224008   1.417   1.183   4.575 -0.9196  0.7640  0.1016
  865TIP3   OH224009   1.689   2.977   5.101  0.4318  0.3621 -0.4388
  865TIP3    H124010   1.666   2.981   5.008  0.0615 -1.3482 -0.4520
  865TIP3    H224011   1.639   3.048   5.141 -2.6928 -1.4158 -0.9200
  866TIP3   OH224012   3.658   5.636  10.883  0.1703  0.0998 -0.5853
  866TIP3    H124013   3.675   5.588  10.802  0.5027 -0.6694 -0.0668
  866TIP3    H224014   3.616   5.572  10.941 -0.6293  0.8082 -0.3517
  867TIP3   OH224015   6.831   0.662   6.094 -0.3640  0.2166 -0.2839
  867TIP3    H124016   6.925   0.657   6.076  0.5615 -1.9113  3.8067
  867TIP3    H224017   6.824   0.723   6.168 -1.6853 -1.7697  1.3487
  868TIP3   OH224018   1.657   0.409  10.965  0.2062 -0.7453  0.3082
  868TIP3    H124019   1.651   0.365  11.049  2.6974 -0.3938  0.7374
  868TIP3    H224020   1.670   0.339  10.902  0.3811 -0.8763  0.4903
  869TIP3   OH224021   1.212   6.099  12.252  0.7218 -0.2430  0.2535
  869TIP3    H124022   1.247   6.185  12.274  1.2252 -0.6904  1.2902
  869TIP3    H224023   1.238   6.043  12.325 -0.7215 -0.9835  0.2520
  870TIP3   OH224024   1.510   5.276   1.060 -0.3226 -0.4532  0.1417
  870TIP3    H124025   1.532   5.253   1.150 -1.8792  1.4793  1.1154
  870TIP3    H224026   1.502   5.372   1.062  1.7171 -0.1214 -2.5925
  871TIP3   OH224027   2.380   1.432  11.388 -0.1192 -0.1118  0.1995
  871TIP3    H124028   2.450   1.496  11.374  0.5628 -0.9812 -0.4758
  871TIP3    H224029   2.317   1.450  11.318 -0.1372  0.1053  0.2722
  872TIP3   OH224030   5.152   2.841  15.086 -0.1548  0.2370 -0.3012
  872TIP3    H124031   5.066   2.877  15.108  0.6135  0.5745  2.5104
  872TIP3    H224032   5.214   2.904  15.122  1.2283 -2.2033  1.9541
  873TIP3   OH224033   2.529   3.262  11.422  0.0964 -0.0648  0.0466
  873TIP3    H124034   2.449   3.228  11.463  0.6135 -0.5382  0.6708
  873TIP3    H224035   2.579   3.301  11.493  1.0987 -1.0887 -0.0709
  874TIP3   OH224036   0.986   6.519  14.124 -0.8600 -0.2567 -0.2174
  874TIP3    H124037   0.908   6.574  14.112 -1.2964 -0.6483  0.7269
  874TIP3    H224038   0.969   6.471  14.206  1.4054  1.4529  1.3962
  875TIP3   OH224039   0.856   5.553  11.265  0.1425 -0.0686 -0.0176
  875TIP3    H124040   0.909   5.562  11.186  0.1368  0.8269  0.0666
  875TIP3    H224041   0.787   5.619  11.256  1.0991  1.2124  1.4834
  876TIP3   OH224042   0.824   0.418   3.405  0.0841 -0.7114 -0.1327
  876TIP3    H124043   0.766   0.440   3.333  0.6024 -0.3062 -0.4286
  876TIP3    H224044   0.878   0.346   3.371  0.7048 -0.1535 -0.3514
  877TIP3   OH224045   3.931   6.570   0.045 -0.2588  0.0738 -0.0595
  877TIP3    H124046   3.845   6.529   0.037 -0.0676 -0.0083 -2.0677
  877TIP3    H224047   3.923   6.654   0.001  0.4939  0.3950  0.3821
  878TIP3   OH224048   5.566   6.862   1.976 -0.2838 -0.3474  0.6631
  878TIP3    H124049   5.551   6.928   1.908  1.3597  1.4291  1.9137
  878TIP3    H224050   5.478   6.837   2.004 -0.9734  0.6798 -0.4345
  879TIP3   OH224051   5.649   1.098  10.987  0.1658  0.3126 -0.8645
  879TIP3    H124052   5.709   1.067  10.919  0.8303 -2.4334  0.8048
  879TIP3    H224053   5.562   1.078  10.954  0.4208  0.0470 -1.3792
  880TIP3   OH224054   2.803   5.985   0.654 -0.1179 -0.0657  0.1879
  880TIP3    H124055   2.737   5.948   0.594 -0.1435  0.3936 -0.0764
  880TIP3    H224056   2.842   6.057   0.604  1.5694 -1.1779 -0.1920
  881TIP3   OH224057   2.378   3.075   4.647 -0.4880  0.0080 -0.2020
  881TIP3    H124058   2.342   3.146   4.594  1.6216  2.5183  1.4263
  881TIP3    H224059   2.314   3.063   4.718 -0.0315  1.7080  0.5538
  882TIP3   OH224060   0.324   3.351   1.508 -0.2049  0.0784  0.0792
  882TIP3    H124061   0.419   3.353   1.520 -0.2707 -0.4381  0.7450
  882TIP3    H224062   0.307   3.267   1.466 -0.4402 -0.1886  0.6982
  883TIP3   OH224063   0.584   2.176  14.077 -0.3241  0.1724 -0.0081
  883TIP3    H124064   0.653   2.238  14.052  0.1932 -1.0327 -1.7695
  883TIP3    H224065   0.620   2.128  14.151  0.2578  0.3423 -0.1784
  884TIP3   OH224066   4.340   3.355   0.005 -0.4358  0.3982 -0.5417
  884TIP3    H124067   4.402   3.341   0.077  0.4809  0.5262 -1.2949
  884TIP3    H224068   4.338   3.271  -0.041 -0.2968  0.6083 -0.9302
  885TIP3   OH224069   6.678   4.745  14.416 -0.8994  0.3700 -0.2761
  885TIP3    H124070   6.612   4.730  14.484 -0.0892 -1.8827  0.1364
  885TIP3    H224071   6.758   4.707  14.453 -0.0636  0.4802 -1.8815
  886TIP3   OH224072   2.041   4.353  12.054  0.1287  0.1920  0.3592
  886TIP3    H124073   2.030   4.407  11.975  2.7081  2.1530  1.2181
  886TIP3    H224074   1.983   4.394  12.118  0.0398  0.2410  0.2487
  887TIP3   OH224075   1.308   2.080   3.739  0.2651 -0.1714 -0.1872
  887TIP3    H124076   1.231   2.026   3.754  0.7010 -1.1251 -1.2480
  887TIP3    H224077   1.331   2.115   3.826 -1.5193  0.3864  0.0981
  888TIP3   OH224078   0.323   0.514   3.321 -0.4025  0.6115  0.1622
  888TIP3    H124079   0.379   0.554   3.255 -0.7829 -0.8335 -1.0989
  888TIP3    H224080   0.376   0.512   3.400  0.9445  0.2758 -0.7130
  889TIP3   OH224081   2.837   3.004   5.337  0.4001 -0.2913  0.2114
  889TIP3    H124082   2.830   3.032   5.428 -4.3016 -0.9018  0.2556
  889TIP3    H224083   2.823   3.084   5.286 -0.7984 -0.5213  0.1489
  890TIP3   OH224084   3.506   1.845   3.042 -0.2583 -0.0494 -0.2298
  890TIP3    H124085   3.519   1.750   3.047 -1.0798 -0.1507  0.0411
  890TIP3    H224086   3.411   1.857   3.049 -0.2882  0.7098 -1.5860
  891TIP3   OH224087   6.509   5.112   3.604 -0.1070 -0.0550 -0.5905
  891TIP3    H124088   6.533   5.166   3.679 -0.1455 -2.7266  1.5283
  891TIP3    H224089   6.417   5.133   3.588  0.7782  3.1137 -2.3558
  892TIP3   OH224090   3.398   0.237  13.179  0.5704 -0.5166 -1.0066
  892TIP3    H124091   3.350   0.155  13.192 -0.8838  0.5214  0.7238
  892TIP3    H224092   3.420   0.265  13.268 -0.6682  1.9314 -1.4175
  893TIP3   OH224093   1.359   0.163  16.481  0.1686  0.7419  0.3618
  893TIP3    H124094   1.426   0.146  16.414  0.6545  0.5269  0.8934
  893TIP3    H224095   1.300   0.088  16.476 -0.1821  1.0459 -0.2705
  894TIP3   OH224096   1.953   3.018  14.114 -0.1724  0.0136  0.6066
  894TIP3    H124097   1.926   3.106  14.142 -0.1590  0.6767 -1.3085
  894TIP3    H224098   2.033   3.033  14.064 -0.0646 -1.1278  0.4211
  895TIP3   OH224099   2.139   3.390   5.447  0.1160 -0.5210 -0.3123
  895TIP3    H124100   2.082   3.320   5.415 -0.2797 -0.3445 -0.0075
  895TIP3    H224101   2.084   3.439   5.509  0.3145  0.1970 -0.6931
  896TIP3   OH224102   4.407   0.594  16.476 -0.3334 -0.6642  0.3795
  896TIP3    H124103   4.480   0.633  16.524 -0.0001  0.3007 -0.8524
  896TIP3    H224104   4.341   0.575  16.543 -0.4607  1.9091  1.0728
  897TIP3   OH224105   5.314   2.984   3.569 -0.0605 -0.3939 -0.3790
  897TIP3    H124106   5.326   2.984   3.474 -0.4939 -1.5054 -0.4509
  897TIP3    H224107   5.242   2.922   3.584 -0.7869  0.6395  0.5866
  898TIP3   OH224108   4.214   4.145  11.063 -0.2319  0.1889 -0.1461
  898TIP3    H124109   4.179   4.058  11.082 -1.0005  0.0759 -1.9513
  898TIP3    H224110   4.157   4.205  11.112 -0.7707 -0.2214 -0.2613
  899TIP3   OH224111   6.845   6.663  11.272  0.2602  0.0761  0.0150
  899TIP3    H124112   6.871   6.622  11.355 -0.4169 -2.7729 -1.0479
  899TIP3    H224113   6.749   6.665  11.276  0.1803 -0.8914 -1.0045
  900TIP3   OH224114   5.387   4.646  11.346  0.1060  0.5229 -0.1812
  900TIP3    H124115   5.322   4.634  11.277  0.3929  0.7890 -0.5018
  900TIP3    H224116   5.355   4.592  11.419 -0.6066  0.8579 -0.2383
  901TIP3   OH224117   3.637   2.532  16.489 -0.2054  0.3465  0.0950
  901TIP3    H124118   3.620   2.618  16.527 -0.1623  0.9158 -1.1425
  901TIP3    H224119   3.716   2.502  16.533 -1.1086  0.2012  1.7170
  902TIP3   OH224120   2.637   6.859  15.842  0.2594  0.5234  0.3407
  902TIP3    H124121   2.649   6.793  15.910 -2.0991 -0.7984 -0.4053
  902TIP3    H224122   2.711   6.846  15.783 -1.1056 -2.9934 -0.8948
  903TIP3   OH224123   6.897   1.880   2.091 -0.0770 -0.5661 -0.1986
  903TIP3    H124124   6.865   1.927   2.169 -1.3498 -0.3656 -0.8057
  903TIP3    H224125   6.971   1.829   2.122 -0.4341 -0.3275  1.1078
  904TIP3   OH224126   1.252   2.667  11.540 -0.7513 -0.8987 -0.3713
  904TIP3    H124127   1.255   2.710  11.455  1.3581  1.3756  0.7362
  904TIP3    H224128   1.173   2.702  11.582  0.5893  1.6034  0.2590
  905TIP3   OH224129   5.226   5.370   2.172  0.7877  0.1236 -0.4793
  905TIP3    H124130   5.202   5.289   2.216  0.2718  0.7059  0.3345
  905TIP3    H224131   5.320   5.361   2.155  0.7140 -0.6731 -0.4667
  906TIP3   OH224132   6.102   1.243   3.420  0.2473  0.0858  0.2821
  906TIP3    H124133   6.186   1.267   3.381  1.1913 -2.3684  0.6631
  906TIP3    H224134   6.110   1.268   3.512 -0.1852  1.5351 -0.0476
  907TIP3   OH224135   0.594   4.375  14.932 -0.1821 -0.4353  0.1374
  907TIP3    H124136   0.548   4.372  14.849  1.3821 -1.4167 -0.7365
  907TIP3    H224137   0.661   4.442  14.920 -1.2316  0.9164  1.3640
  908TIP3   OH224138   5.040   4.584   0.911 -0.2119  0.0803  0.0637
  908TIP3    H124139   5.031   4.494   0.879 -0.0769  0.0447  0.1271
  908TIP3    H224140   5.106   4.579   0.980  1.3638  0.5727 -1.3357
  909TIP3   OH224141   5.525   4.751  11.887 -0.0710 -0.2175 -0.3038
  909TIP3    H124142   5.509   4.664  11.923 -2.2712  0.4748  0.5189
  909TIP3    H224143   5.619   4.752  11.869  0.6322 -1.6702  2.6610
  910TIP3   OH224144   4.400   1.074  11.992 -0.1241  0.0949  0.2863
  910TIP3    H124145   4.396   0.997  11.934  0.0432 -0.1843  0.6406
  910TIP3    H224146   4.333   1.133  11.959 -0.2669 -0.2134  0.0220
  911TIP3   OH224147   2.723   5.077   2.813  0.0688  0.6711 -0.2595
  911TIP3    H124148   2.689   4.990   2.831 -0.0687  0.7194 -0.2777
  911TIP3    H224149   2.777   5.099   2.889  1.3172 -0.0186 -0.9157
  912TIP3   OH224150   2.543   4.652  15.384  0.1516  0.2218 -0.2442
  912TIP3    H124151   2.483   4.593  15.339 -0.6540 -0.3124  1.4571
  912TIP3    H224152   2.518   4.739  15.353 -2.0817  0.0873  0.9836
  913TIP3   OH224153   0.009   5.742   3.598 -0.8748 -0.0554 -0.1976
  913TIP3    H124154  -0.048   5.815   3.621 -0.1590  0.3863  0.1928
  913TIP3    H224155   0.050   5.716   3.680 -1.6792 -1.3971 -0.1919
  914TIP3   OH224156   4.694   5.178  14.751 -0.0549  0.1483  0.2379
  914TIP3    H124157   4.772   5.129  14.729  0.0105  0.8631 -1.2821
  914TIP3    H224158   4.710   5.266  14.715 -0.7010  0.9041  1.7152
  915TIP3   OH224159   1.119   1.894   5.529 -0.1435  0.5940  0.2658
  915TIP3    H124160   1.212   1.898   5.509  0.2979 -0.7459  1.8299
  915TIP3    H224161   1.111   1.930   5.617 -0.9831  0.0284  0.4440
  916TIP3   OH224162   4.441   6.081  12.579  0.0449  0.4947 -0.3220
  916TIP3    H124163   4.475   6.171  12.574 -2.0774  1.2798 -1.7785
  916TIP3    H224164   4.396   6.067  12.496 -2.8830 -0.5272  1.2659
  917TIP3   OH224165   1.818   3.243   2.113 -0.7363  0.2495 -0.4268
  917TIP3    H124166   1.840   3.332   2.141 -0.1853  0.1034 -0.3781
  917TIP3    H224167   1.816   3.192   2.195  2.9914 -0.6378 -0.7279
  918TIP3   OH224168   2.382   6.337   2.714 -0.3036 -0.5422  0.2308
  918TIP3    H124169   2.303   6.332   2.767 -0.4186 -1.7731 -0.0324
  918TIP3    H224170   2.391   6.251   2.675  1.1367 -0.4172  0.2021
  919TIP3   OH224171   5.771   1.471  14.142 -0.1434 -0.0220  0.0335
  919TIP3    H124172   5.847   1.521  14.112 -0.0506 -0.3988 -0.3638
  919TIP3    H224173   5.701   1.536  14.147  0.1948  0.3233  0.3858
  920TIP3   OH224174   3.879   3.755  11.688 -0.1334 -0.2152  0.2840
  920TIP3    H124175   3.815   3.695  11.649 -1.3092 -0.2050  2.1125
  920TIP3    H224176   3.963   3.728  11.650 -0.8057 -2.1562  0.0676
  921TIP3   OH224177   5.532   4.100  14.953  0.5031  0.1275  0.5005
  921TIP3    H124178   5.486   4.153  14.888  0.1140 -1.7675 -0.8752
  921TIP3    H224179   5.623   4.097  14.921  0.5662  0.1424  0.6813
  922TIP3   OH224180   3.961   5.108   2.243  0.2359  0.0614 -0.0803
  922TIP3    H124181   3.925   5.153   2.166 -1.0290 -0.3427  0.2451
  922TIP3    H224182   3.914   5.147   2.317  1.7758  0.7926  0.5697
  923TIP3   OH224183   5.935   1.816   4.516 -0.4445 -0.1126  0.1489
  923TIP3    H124184   5.901   1.733   4.480  2.2997 -0.2842 -2.4494
  923TIP3    H224185   6.008   1.839   4.458  1.1224  2.3605  2.8319
  924TIP3   OH224186   5.179   4.145   0.525 -0.2794  0.0853  0.1366
  924TIP3    H124187   5.219   4.204   0.461  1.2547 -2.4981 -1.4599
  924TIP3    H224188   5.252   4.092   0.558 -1.6339 -1.2263  1.1751
  925TIP3   OH224189   1.063   6.696   1.384 -0.5816  0.0270  0.4789
  925TIP3    H124190   0.987   6.656   1.425 -0.9833  0.4183  0.1228
  925TIP3    H224191   1.068   6.656   1.297 -0.4412  0.0780  0.4620
  926TIP3   OH224192   1.805   2.820  16.413 -0.5471 -0.1975  0.0858
  926TIP3    H124193   1.790   2.804  16.507  1.6297  0.2395  0.5606
  926TIP3    H224194   1.834   2.911  16.408 -1.7473  0.1517 -1.1930
  927TIP3   OH224195   0.101   0.363   3.251  0.7988  0.3108 -0.2677
  927TIP3    H124196   0.178   0.418   3.264  1.1137 -0.1174 -0.3057
  927TIP3    H224197   0.117   0.317   3.169  1.1693 -0.8546  0.4245
  928TIP3   OH224198   0.424   4.369   2.133  0.5034 -0.1427  0.1448
  928TIP3    H124199   0.395   4.413   2.213  0.4875 -0.7715  0.4968
  928TIP3    H224200   0.468   4.437   2.082 -1.2416  0.7626 -0.2381
  929TIP3   OH224201   4.887   3.943   5.909  0.8056 -0.3568 -0.5076
  929TIP3    H124202   4.815   4.006   5.905 -0.6047 -1.5794  2.5539
  929TIP3    H224203   4.951   3.984   5.968 -1.3721 -2.6104  3.9069
  930TIP3   OH224204   6.449   5.685   1.107  0.6126  0.4559  0.2450
  930TIP3    H124205   6.380   5.686   1.173  0.4587 -0.0892  0.0978
  930TIP3    H224206   6.438   5.766   1.059 -0.4498  0.0006 -0.3076
  931TIP3   OH224207   6.025   1.613  14.375  0.4867 -0.1512  0.4936
  931TIP3    H124208   5.949   1.563  14.405  0.2806 -0.4206 -0.4511
  931TIP3    H224209   6.097   1.580  14.429  0.6427 -2.5024 -1.0229
  932TIP3   OH224210   6.430   0.931  13.411 -0.1112  0.2081  0.3285
  932TIP3    H124211   6.380   0.850  13.403 -0.4698  0.4726 -0.1445
  932TIP3    H224212   6.521   0.905  13.396 -0.4281  0.2023 -1.9249
  933TIP3   OH224213   5.621   5.584  12.682 -0.5507 -0.1995 -0.1824
  933TIP3    H124214   5.671   5.584  12.764  0.7144  0.3249 -0.9402
  933TIP3    H224215   5.593   5.493  12.672 -0.7685 -0.2610  0.8553
  934TIP3   OH224216   3.385   0.576   3.292 -0.3710 -0.0952  0.1920
  934TIP3    H124217   3.471   0.606   3.321 -0.0955 -0.5062 -0.1968
  934TIP3    H224218   3.363   0.635   3.219 -0.3087 -0.1477  0.1306
  935TIP3   OH224219   6.068   5.302  10.609 -0.8629  0.1423 -0.1073
  935TIP3    H124220   6.163   5.298  10.601 -0.9575 -0.7816 -0.8227
  935TIP3    H224221   6.047   5.394  10.592 -0.0153  0.6060  1.1894
  936TIP3   OH224222   1.163   4.884   2.434 -0.0893 -0.0721  0.5360
  936TIP3    H124223   1.246   4.885   2.481  0.9702  1.4752 -1.2627
  936TIP3    H224224   1.100   4.919   2.497  1.4426  2.7513  0.6294
  937TIP3   OH224225   3.275   0.377   1.134 -0.3000  0.1770  0.7532
  937TIP3    H124226   3.270   0.398   1.040  0.4194  1.9858  1.0798
  937TIP3    H224227   3.320   0.293   1.137 -0.8770 -0.2153 -0.5397
  938TIP3   OH224228   0.738   0.909  13.935  0.8820  0.3782 -0.2751
  938TIP3    H124229   0.717   0.907  14.028 -0.1540 -3.0158 -0.4539
  938TIP3    H224230   0.670   0.964  13.896 -1.6160 -1.9857  0.4820
  939TIP3   OH224231   3.774   2.169   4.256  0.2768  0.1117 -0.1278
  939TIP3    H124232   3.837   2.161   4.327  2.0489 -1.4965 -1.7485
  939TIP3    H224233   3.826   2.203   4.182 -1.1329  0.3191 -1.0641
  940TIP3   OH224234   2.488   6.479  15.063 -0.0496  0.1005  0.1010
  940TIP3    H124235   2.440   6.398  15.081 -2.1583  1.2749  0.1538
  940TIP3    H224236   2.419   6.546  15.054  1.6700  2.3280  2.2017
  941TIP3   OH224237   5.716   5.265   5.060  0.3572  0.0868 -0.0410
  941TIP3    H124238   5.666   5.347   5.059  0.1119 -0.0352  1.1282
  941TIP3    H224239   5.747   5.255   4.970  0.4573  1.5047 -0.1858
  942TIP3   OH224240   2.087   2.175  11.972  0.4188 -0.3699  0.1917
  942TIP3    H124241   2.023   2.135  11.913  0.6006 -0.2501 -0.0858
  942TIP3    H224242   2.149   2.220  11.915  0.2474  0.2691  0.4943
  943TIP3   OH224243   0.287   6.859  12.368 -0.9363  0.0535 -0.9114
  943TIP3    H124244   0.367   6.890  12.325 -0.2908  0.7954  0.7603
  943TIP3    H224245   0.278   6.768  12.339  1.1060 -0.3795 -0.3353
  944TIP3   OH224246   0.731   5.093  11.147 -0.3964  0.1614  0.3708
  944TIP3    H124247   0.782   5.105  11.227  0.7282 -1.2580 -0.1019
  944TIP3    H224248   0.795   5.074  11.079 -1.4988 -1.3330 -0.3111
  945TIP3   OH224249   1.608   2.261  10.961 -0.0901  0.5245  0.4597
  945TIP3    H124250   1.661   2.289  10.886  0.0146 -0.7066  0.0476
  945TIP3    H224251   1.519   2.258  10.927 -0.1383  0.6065  0.5784
  946TIP3   OH224252   1.909   3.531  10.402  0.1868  0.2697 -0.6322
  946TIP3    H124253   1.985   3.542  10.459 -1.8666  0.3179  2.2849
  946TIP3    H224254   1.920   3.598  10.334  2.0454  1.1573  0.4769
  947TIP3   OH224255   2.875   4.834  10.608  0.4150  0.0720 -0.0183
  947TIP3    H124256   2.879   4.748  10.651  0.2054  0.8007  1.5338
  947TIP3    H224257   2.866   4.896  10.680 -2.3712  1.1988 -1.2064
  948TIP3   OH224258   1.294   2.840   2.502 -0.3327 -0.0790 -0.1344
  948TIP3    H124259   1.257   2.910   2.555  0.4626  0.1120  0.1840
  948TIP3    H224260   1.341   2.886   2.432  0.0755 -0.2908 -0.0019
  949TIP3   OH224261   1.091   1.011  13.632 -0.0947  0.0958  0.8018
  949TIP3    H124262   1.173   1.058  13.649  0.6590 -0.2147 -1.6361
  949TIP3    H224263   1.119   0.924  13.603 -1.3319 -0.3221  0.8133
  950TIP3   OH224264   5.426   2.062   5.600  0.1089  0.0210 -0.6715
  950TIP3    H124265   5.415   1.968   5.589 -1.1237 -0.1052  1.1230
  950TIP3    H224266   5.494   2.070   5.667  1.3109  0.4905 -1.8933
  951TIP3   OH224267   4.846   2.691   0.678  0.9028  0.0217 -0.2771
  951TIP3    H124268   4.774   2.628   0.669 -0.1997  1.0719  0.7535
  951TIP3    H224269   4.887   2.668   0.761  1.5671 -0.3671 -0.7054
  952TIP3   OH224270   3.321   3.819   1.575  0.1244 -0.1202 -0.3075
  952TIP3    H124271   3.308   3.911   1.550  0.5183 -0.3980 -1.5915
  952TIP3    H224272   3.334   3.822   1.670  0.3258  1.1779 -0.3546
  953TIP3   OH224273   6.519   2.318  13.539 -0.2214  0.5195 -0.1653
  953TIP3    H124274   6.472   2.236  13.556  2.5493 -1.6069 -1.8665
  953TIP3    H224275   6.454   2.375  13.499 -2.0926 -1.0881  0.3942
  954TIP3   OH224276   3.734   5.034  15.213 -1.0357  0.6242  0.3724
  954TIP3    H124277   3.649   4.990  15.214 -1.9605  2.2435 -1.0695
  954TIP3    H224278   3.746   5.061  15.122  1.7788 -0.8854  0.1703
  955TIP3   OH224279   6.854   2.480   2.375  0.3661 -0.2637 -0.0612
  955TIP3    H124280   6.890   2.546   2.315 -0.6022 -1.3648 -1.9640
  955TIP3    H224281   6.875   2.513   2.462 -1.3764  3.3736 -0.8182
  956TIP3   OH224282   5.842   6.140  15.163  0.0598  0.0735 -0.1253
  956TIP3    H124283   5.924   6.104  15.127 -0.2716 -0.1032 -0.7188
  956TIP3    H224284   5.859   6.234  15.170  0.2818  0.0540 -0.3483
  957TIP3   OH224285   6.420   5.019  12.689  0.5339 -0.3588  0.3924
  957TIP3    H124286   6.387   5.048  12.774 -1.2517  0.3389 -0.4792
  957TIP3    H224287   6.415   4.924  12.692  1.3471 -0.3750  1.3819
  958TIP3   OH224288   3.317   5.499  12.032  0.1991  0.0181  0.5472
  958TIP3    H124289   3.329   5.574  11.973 -2.4575  0.2512  0.1738
  958TIP3    H224290   3.269   5.435  11.979 -0.5593 -0.5509  1.8862
  959TIP3   OH224291   5.383   6.291  13.472  0.0822 -0.3866 -0.0033
  959TIP3    H124292   5.315   6.308  13.538  0.4609  1.2341  0.0286
  959TIP3    H224293   5.341   6.235  13.407 -0.6385 -1.1120  1.0621
  960TIP3   OH224294   5.080   1.610  10.342  0.4488 -0.2118  0.2552
  960TIP3    H124295   5.106   1.533  10.392  0.0941 -0.0163  0.7477
  960TIP3    H224296   5.121   1.683  10.387  2.0625 -0.2230 -1.0940
  961TIP3   OH224297   3.690   1.799  11.091 -0.0060  0.0579  0.9809
  961TIP3    H124298   3.744   1.738  11.041  0.4221 -0.1097  1.6265
  961TIP3    H224299   3.728   1.797  11.179 -0.6133  0.4966  1.2588
  962TIP3   OH224300   1.077   5.021   3.438  0.1141 -0.1981 -0.4660
  962TIP3    H124301   1.005   4.961   3.419  0.4219  0.1807 -3.2455
  962TIP3    H224302   1.055   5.059   3.524 -1.6133 -1.9952 -0.0446
  963TIP3   OH224303   5.859   1.108   4.147 -0.5097 -0.3688  0.0458
  963TIP3    H124304   5.897   1.102   4.060  0.8615  1.4832  0.4500
  963TIP3    H224305   5.781   1.162   4.136  0.1627  0.6415  0.0593
  964TIP3   OH224306   4.592   6.517   4.151 -0.2424 -0.1848 -0.7200
  964TIP3    H124307   4.624   6.534   4.063  1.6794 -0.8212 -0.1909
  964TIP3    H224308   4.545   6.597   4.176  2.8851  1.8314 -0.7339
  965TIP3   OH224309   1.584   6.186  14.035 -0.0887 -0.2387  0.3562
  965TIP3    H124310   1.634   6.131  13.975 -1.1626 -1.0041  0.1390
  965TIP3    H224311   1.629   6.271  14.032 -0.7590  0.1190 -2.4347
  966TIP3   OH224312   1.311   4.823   3.512  0.0427  0.0019  1.0188
  966TIP3    H124313   1.238   4.885   3.506 -0.9079 -1.2459 -1.8813
  966TIP3    H224314   1.386   4.870   3.476  0.2334  0.6358  2.2035
  967TIP3   OH224315   3.399   5.301   2.145  0.1066  0.2507 -0.6912
  967TIP3    H124316   3.359   5.365   2.204  0.3281  0.4387 -0.7435
  967TIP3    H224317   3.493   5.319   2.149  0.0760  0.7015 -1.5857
  968TIP3   OH224318   4.272   4.016   1.609  0.5292  0.2550  0.0378
  968TIP3    H124319   4.179   4.035   1.597  0.5517  1.3392  1.3207
  968TIP3    H224320   4.317   4.092   1.572  0.8564  0.1959  0.3125
  969TIP3   OH224321   3.908   0.345  10.592 -0.1817  0.4945  0.5709
  969TIP3    H124322   3.964   0.356  10.668 -0.1723 -0.8283  0.7815
  969TIP3    H224323   3.840   0.413  10.602  0.4635  1.0683  1.1409
  970TIP3   OH224324   6.151   3.322   1.603  0.0308  0.3637 -0.3598
  970TIP3    H124325   6.071   3.271   1.614 -1.2094  1.9713 -1.3965
  970TIP3    H224326   6.159   3.373   1.684  0.2232 -0.0796 -0.0987
  971TIP3   OH224327   0.151   2.811   1.406 -0.0035  0.0239 -0.8592
  971TIP3    H124328   0.115   2.833   1.491  3.4522 -0.5887  0.9425
  971TIP3    H224329   0.169   2.717   1.410  3.0049  0.4780 -0.9390
  972TIP3   OH224330   6.170   6.384   3.708  0.1673 -0.5804  0.0318
  972TIP3    H124331   6.120   6.373   3.627  0.1450  0.3854 -0.0919
  972TIP3    H224332   6.237   6.449   3.687  2.2447 -2.6311 -0.1346
  973TIP3   OH224333   3.094   5.915  12.258  0.1190  0.4469  0.1305
  973TIP3    H124334   3.051   5.904  12.174 -0.6599  1.1177  0.4319
  973TIP3    H224335   3.123   5.826  12.282 -0.0166  0.1902 -0.6403
  974TIP3   OH224336   0.580   6.020  13.702  0.2420  0.1409 -0.1505
  974TIP3    H124337   0.619   6.034  13.789  1.5201  1.4424 -0.9041
  974TIP3    H224338   0.603   5.929  13.681 -1.6131 -0.8274  1.5714
  975TIP3   OH224339   6.195   1.492   1.038 -0.8142 -0.0345  0.4683
  975TIP3    H124340   6.205   1.507   1.133 -1.8596  0.9670  0.4445
  975TIP3    H224341   6.200   1.397   1.028  1.9688 -0.0438  1.1790
  976TIP3   OH224342   3.133   0.174   1.913  0.3680 -0.3114 -0.3206
  976TIP3    H124343   3.198   0.217   1.858  0.8438 -0.0217  0.4632
  976TIP3    H224344   3.115   0.237   1.983  0.9903 -1.3314  0.7793
  977TIP3   OH224345   1.912   1.051   3.593 -0.2837  0.4395  0.2750
  977TIP3    H124346   1.934   1.022   3.682  0.0927  2.2515  0.8017
  977TIP3    H224347   1.996   1.064   3.551 -0.4451 -1.6893 -0.8430
  978TIP3   OH224348   5.073   3.922   2.050  0.1511  0.5405  0.0113
  978TIP3    H124349   5.137   3.851   2.056 -0.5726 -0.6331 -3.5587
  978TIP3    H224350   5.126   3.999   2.031  0.6910 -0.0861 -1.1686
  979TIP3   OH224351   2.397   5.320  13.825 -0.5951  0.0784  0.4794
  979TIP3    H124352   2.459   5.274  13.768 -1.0322  0.5589 -0.3996
  979TIP3    H224353   2.346   5.375  13.766 -2.6855 -1.1910  1.0176
  980TIP3   OH224354   2.169   0.642  13.755  0.7972  0.0089  0.2107
  980TIP3    H124355   2.169   0.710  13.688 -2.2897 -0.6299 -0.5870
  980TIP3    H224356   2.130   0.684  13.832  0.5411 -0.3579  0.2859
  981TIP3   OH224357   5.525   4.569  11.622 -0.1748 -0.0973 -0.4828
  981TIP3    H124358   5.497   4.643  11.676 -2.3977  0.1644 -1.8682
  981TIP3    H224359   5.449   4.511  11.620  0.5560 -1.0622 -1.6789
  982TIP3   OH224360   3.353   2.234  10.870  0.2600 -0.3210 -0.1100
  982TIP3    H124361   3.430   2.284  10.897 -0.4006  1.0045 -0.5839
  982TIP3    H224362   3.329   2.184  10.948  2.3100 -1.7614 -0.3180
  983TIP3   OH224363   0.901   6.759  10.315 -0.3180 -0.6518 -0.2211
  983TIP3    H124364   0.826   6.818  10.324 -0.1052 -0.5639  1.1841
  983TIP3    H224365   0.862   6.671  10.317 -0.4046 -0.6057  0.4445
  984TIP3   OH224366   2.331   0.853  10.233 -0.3234  0.1658 -0.5959
  984TIP3    H124367   2.294   0.929  10.277  1.9485  0.6143  0.6997
  984TIP3    H224368   2.298   0.858  10.143 -2.5029  1.0287  0.1846
  985TIP3   OH224369   1.458   4.619   3.151  0.2973  0.0380 -0.1044
  985TIP3    H124370   1.400   4.563   3.100 -0.0384 -0.0958  0.4233
  985TIP3    H224371   1.546   4.595   3.122  0.0624  1.2802 -1.9934
  986TIP3   OH224372   5.847   2.615  13.117  0.2115  0.2579 -0.5646
  986TIP3    H124373   5.830   2.707  13.097 -0.1849 -0.0915 -1.9164
  986TIP3    H224374   5.830   2.608  13.211  0.5548  1.6222 -0.3792
  987TIP3   OH224375   3.720   1.327   4.288 -0.3814 -0.7084  0.4818
  987TIP3    H124376   3.717   1.255   4.350 -1.6815 -1.3933 -0.3416
  987TIP3    H224377   3.631   1.363   4.288 -0.4402 -0.7893 -1.0496
  988TIP3   OH224378   6.271   2.222  16.030  0.2951  0.4159 -0.2004
  988TIP3    H124379   6.318   2.304  16.042 -0.5668  0.7264  1.3632
  988TIP3    H224380   6.264   2.185  16.118 -1.8138  0.0963 -0.4505
  989TIP3   OH224381   1.841   4.867  13.103 -0.1170 -0.0550 -0.0119
  989TIP3    H124382   1.854   4.793  13.044 -0.8073 -0.7943  0.7211
  989TIP3    H224383   1.928   4.887  13.137  0.4493  1.0003 -1.9437
  990TIP3   OH224384   0.700   2.339  15.600  0.0410  0.0276  0.7472
  990TIP3    H124385   0.612   2.303  15.609  0.4757 -1.3908 -0.2954
  990TIP3    H224386   0.718   2.336  15.506  1.7445 -1.1992  1.0516
  991TIP3   OH224387   0.855   6.827  13.700 -0.1053  0.1974 -0.0461
  991TIP3    H124388   0.773   6.790  13.730 -0.0979  0.2232  0.0055
  991TIP3    H224389   0.854   6.814  13.605 -0.6821  1.2105 -0.1899
  992TIP3   OH224390   1.793   2.932  12.476  0.4934  0.4788 -0.4348
  992TIP3    H124391   1.743   2.953  12.396 -0.4657  1.6102  0.4226
  992TIP3    H224392   1.857   3.003  12.483  2.1063 -0.8170 -1.3741
  993TIP3   OH224393   1.437   1.098  16.112  0.8160 -0.2369 -0.1279
  993TIP3    H124394   1.501   1.137  16.052 -1.8614  0.6868 -2.6234
  993TIP3    H224395   1.391   1.173  16.149 -2.4645 -0.7122 -2.7570
  994TIP3   OH224396   1.112   2.911  12.552  0.0451  0.3349 -0.6139
  994TIP3    H124397   1.129   2.860  12.631  0.3043 -1.3555 -1.7051
  994TIP3    H224398   1.199   2.939  12.523  0.1227 -0.5107 -1.2188
  995TIP3   OH224399   6.140   1.491   4.592 -0.3506  0.5131 -0.5857
  995TIP3    H124400   6.176   1.543   4.664  2.3535 -0.9195 -0.7885
  995TIP3    H224401   6.202   1.504   4.520 -0.1874 -2.0333 -0.9914
  996TIP3   OH224402   1.264   4.904  10.530  0.1028  0.0073 -0.1876
  996TIP3    H124403   1.184   4.946  10.500  1.5837  0.8402 -3.4647
  996TIP3    H224404   1.254   4.812  10.504  0.7677  0.4294 -2.0979
  997TIP3   OH224405   4.978   4.371   2.793  0.4726 -0.5912 -0.0033
  997TIP3    H124406   4.980   4.466   2.786  1.0321 -0.5432  0.6461
  997TIP3    H224407   4.973   4.340   2.703  2.3169  0.0389 -0.3760
  998TIP3   OH224408   5.238   2.059  12.258  0.0391  0.0178  0.1333
  998TIP3    H124409   5.149   2.061  12.293  0.1258  0.5981  0.3342
  998TIP3    H224410   5.233   2.111  12.178 -0.2370 -1.5873 -0.9577
  999TIP3   OH224411   5.443   4.702  14.396  0.1526  0.4718  0.6838
  999TIP3    H124412   5.506   4.650  14.345 -1.4231  0.8143 -1.7694
  999TIP3    H224413   5.468   4.793  14.380 -1.0640  0.6214 -0.5447
 1000TIP3   OH224414   5.845   3.209  12.790 -0.9747 -0.0756  0.3012
 1000TIP3    H124415   5.887   3.164  12.863  1.3584  0.4835 -0.6182
 1000TIP3    H224416   5.815   3.292  12.827  0.7823  0.4955  0.5364
 1001TIP3   OH224417   0.176   0.028  12.768  0.1333  0.2703  0.0184
 1001TIP3    H124418   0.203  -0.060  12.744  0.4760  0.4128 -0.1417
 1001TIP3    H224419   0.201   0.037  12.860 -0.7770 -0.1254  0.3134
 1002TIP3   OH224420   3.816   0.933   1.158  0.0123  0.4399 -0.1998
 1002TIP3    H124421   3.731   0.921   1.115  0.3971  1.0257 -1.1818
 1002TIP3    H224422   3.872   0.866   1.119 -0.3668 -0.9979  1.6032
 1003TIP3   OH224423   6.659   1.742  13.873  0.5147 -0.7702 -0.1996
 1003TIP3    H124424   6.577   1.741  13.824  0.5032  1.6090 -0.3195
 1003TIP3    H224425   6.653   1.665  13.930 -1.2938 -1.2557 -0.9492
 1004TIP3   OH224426   6.464   4.998  15.139 -0.3689  0.3292  0.6411
 1004TIP3    H124427   6.461   5.062  15.068 -0.0019 -1.6454 -1.2293
 1004TIP3    H224428   6.531   5.032  15.199  0.4254  1.2621 -0.7217
 1005TIP3   OH224429   4.631   4.272   4.121 -0.0063  0.2832 -0.5649
 1005TIP3    H124430   4.723   4.289   4.099 -0.4173  0.5256 -2.2207
 1005TIP3    H224431   4.635   4.212   4.195  1.5158 -0.6148 -1.3111
 1006TIP3   OH224432   2.279   1.865  13.363 -0.6994 -0.4509 -0.7234
 1006TIP3    H124433   2.223   1.815  13.423 -0.7511  0.6728  0.2046
 1006TIP3    H224434   2.285   1.810  13.285 -2.7103 -0.8166 -0.6786
 1007TIP3   OH224435   0.869   5.735  14.002  0.4266  0.1956 -0.0474
 1007TIP3    H124436   0.879   5.736  13.907  1.7855 -0.7944  0.0543
 1007TIP3    H224437   0.793   5.680  14.017  0.2093  0.3471 -0.5485
 1008TIP3   OH224438   4.686   6.076  11.952 -0.0330 -0.0164 -0.0338
 1008TIP3    H124439   4.684   6.000  12.010 -0.1999  0.1401  0.1650
 1008TIP3    H224440   4.750   6.052  11.885  0.0046 -0.2842  0.0947
 1009TIP3   OH224441   1.778   1.929   3.732 -0.3078  0.0247  1.1027
 1009TIP3    H124442   1.828   2.010   3.721 -0.6601  0.2656  1.2578
 1009TIP3    H224443   1.691   1.950   3.697 -0.3202 -0.3703  0.8937
 1010TIP3   OH224444   1.225   4.253   4.871  0.8491  0.2148  0.8631
 1010TIP3    H124445   1.215   4.205   4.953 -1.9348  0.7913  0.9938
 1010TIP3    H224446   1.184   4.338   4.889 -1.3536 -0.2124 -1.4932
 1011TIP3   OH224447   5.004   3.332   1.360 -0.3225  0.0882 -0.3117
 1011TIP3    H124448   4.965   3.417   1.344 -0.3633 -0.0325 -0.8782
 1011TIP3    H224449   4.994   3.284   1.277  1.4991  0.2403 -0.6740
 1012TIP3   OH224450   4.573   1.355   1.046  0.0299  0.3172 -0.3369
 1012TIP3    H124451   4.621   1.354   1.129  0.0549 -1.7779 -0.3246
 1012TIP3    H224452   4.633   1.398   0.985  1.3600 -0.9270  0.0230
 1013TIP3   OH224453   6.455   6.363   3.259 -0.1614  0.1808  0.0573
 1013TIP3    H124454   6.487   6.356   3.349 -0.3988  0.4534  0.1672
 1013TIP3    H224455   6.401   6.285   3.247 -0.1716  0.1704  0.1686
 1014TIP3   OH224456   3.250   5.512   2.986  0.2030  0.2239 -0.1981
 1014TIP3    H124457   3.208   5.592   2.955  2.5383  2.8687  2.7325
 1014TIP3    H224458   3.182   5.466   3.035 -0.4946  2.1445  0.7610
 1015TIP3   OH224459   2.587   5.362   3.145 -0.1794 -0.3529 -0.0159
 1015TIP3    H124460   2.608   5.380   3.053 -0.3171 -2.3650 -0.5081
 1015TIP3    H224461   2.590   5.266   3.151 -0.3464 -0.2680  2.0512
 1016TIP3   OH224462   5.152   3.344   0.239  0.2307  0.6077  0.0127
 1016TIP3    H124463   5.114   3.408   0.180 -0.7863  0.3977  0.4266
 1016TIP3    H224464   5.120   3.259   0.208  1.4109  0.2954 -0.4176
 1017TIP3   OH224465   1.607   0.938  12.181  0.6214 -0.3126 -0.3812
 1017TIP3    H124466   1.550   0.862  12.173 -0.6575  0.5552  0.1632
 1017TIP3    H224467   1.550   1.013  12.163  1.3106  0.6539  1.2787
 1018TIP3   OH224468   4.318   6.716  13.058 -0.0930 -0.2480  0.1518
 1018TIP3    H124469   4.355   6.639  13.016 -0.1706  0.2141 -0.7911
 1018TIP3    H224470   4.355   6.715  13.147  2.3005  0.2405 -0.7691
 1019TIP3   OH224471   4.105   3.682   5.134  0.3288 -0.0303  0.2487
 1019TIP3    H124472   4.059   3.651   5.212  0.9366 -1.3362  0.1090
 1019TIP3    H224473   4.192   3.644   5.140  0.7669  0.8217 -0.4778
 1020TIP3   OH224474   0.802   2.961  10.318 -0.0765 -0.0149 -0.3866
 1020TIP3    H124475   0.824   3.045  10.358  0.1037 -0.4727  0.4943
 1020TIP3    H224476   0.860   2.955  10.242  1.0278 -0.0395  0.4333
 1021TIP3   OH224477   6.787   0.085   1.859 -0.1632  0.2097 -0.1982
 1021TIP3    H124478   6.859   0.142   1.832 -0.8012  0.8445 -0.5674
 1021TIP3    H224479   6.765   0.115   1.948 -0.3051  0.3406 -0.2784
 1022TIP3   OH224480   4.437   1.184   5.240 -0.3068 -0.1115 -0.4834
 1022TIP3    H124481   4.365   1.130   5.272 -1.0366  0.1317 -1.6649
 1022TIP3    H224482   4.487   1.127   5.182  0.2827 -0.1860  0.0844
 1023TIP3   OH224483   6.315   5.140   3.301  0.1760  0.0283  0.3926
 1023TIP3    H124484   6.349   5.053   3.323  2.1122  0.9542  1.3146
 1023TIP3    H224485   6.378   5.200   3.339 -1.9003  1.8984  1.0408
 1024TIP3   OH224486   3.389   4.983  14.251  0.2296  0.5185  0.1601
 1024TIP3    H124487   3.396   4.887  14.252 -1.3219  0.3810  0.2313
 1024TIP3    H224488   3.402   5.007  14.160  1.7394  0.3553  0.3125
 1025TIP3   OH224489   6.465   6.775   5.123  0.0084  0.0680  0.6890
 1025TIP3    H124490   6.403   6.702   5.123 -0.4102  0.3893  2.3351
 1025TIP3    H224491   6.432   6.835   5.190  2.3473  0.0163  1.9978
 1026TIP3   OH224492   0.403   2.057  16.169 -0.1681  0.5355  0.1929
 1026TIP3    H124493   0.368   2.036  16.082 -0.5391 -2.1212  0.8930
 1026TIP3    H224494   0.483   2.005  16.176  0.4262  1.5266  1.0654
 1027TIP3   OH224495   6.674   0.125   3.290 -0.3278 -0.4208 -0.3875
 1027TIP3    H124496   6.694   0.217   3.269 -3.0559  0.3808  0.1196
 1027TIP3    H224497   6.581   0.125   3.311  0.3663 -2.6194  3.5906
 1028TIP3   OH224498   4.216   4.554  12.435 -0.4278 -0.3423  0.0949
 1028TIP3    H124499   4.262   4.544  12.519  0.8393 -0.3070 -0.5740
 1028TIP3    H224500   4.204   4.648  12.425 -1.7273 -0.4115  0.8173
 1029TIP3   OH224501   1.331   6.855  13.774 -0.3680  0.3119 -0.1537
 1029TIP3    H124502   1.256   6.809  13.735 -1.6279  0.9679  1.3646
 1029TIP3    H224503   1.381   6.786  13.817 -0.7427  0.0005 -0.2072
 1030TIP3   OH224504   0.491   1.721  13.858  0.6339  0.1953  0.9998
 1030TIP3    H124505   0.499   1.814  13.881  1.8254  0.4485 -0.2872
 1030TIP3    H224506   0.486   1.676  13.942  2.5120  1.2532  1.7576
 1031TIP3   OH224507   3.883   5.744   2.700 -0.4389 -0.8196 -0.6437
 1031TIP3    H124508   3.904   5.825   2.747 -1.4956 -1.2846  0.6688
 1031TIP3    H224509   3.961   5.689   2.711 -0.3191 -0.5717 -0.2305
 1032TIP3   OH224510   2.766   1.885  16.238  0.8218 -0.3906 -0.5550
 1032TIP3    H124511   2.837   1.948  16.227 -0.2322  0.6087 -2.1431
 1032TIP3    H224512   2.687   1.939  16.245  0.1650 -1.4801  0.8874
 1033TIP3   OH224513   2.176   4.599   2.787 -0.2488  0.6192  0.4278
 1033TIP3    H124514   2.090   4.616   2.748  0.1580 -0.5313 -1.0778
 1033TIP3    H224515   2.238   4.635   2.724  0.4460 -1.6664 -0.2833
 1034TIP3   OH224516   5.469   0.533   3.963 -0.0729 -0.5211 -0.2476
 1034TIP3    H124517   5.492   0.447   3.997 -0.5252 -0.0693  1.2974
 1034TIP3    H224518   5.551   0.583   3.966  0.3286 -1.0437 -1.7164
 1035TIP3   OH224519   3.340   0.308  13.674  0.6421 -1.1712  0.7235
 1035TIP3    H124520   3.430   0.305  13.705  0.9407  0.1927  0.0399
 1035TIP3    H224521   3.303   0.386  13.716  0.3233 -0.7147 -0.3781
 1036TIP3   OH224522   4.761   3.631  13.413  0.5937  0.9379 -0.0114
 1036TIP3    H124523   4.679   3.627  13.462  0.7826  0.3317  0.2630
 1036TIP3    H224524   4.818   3.687  13.467  0.7485  0.4001  0.4028
 1037TIP3   OH224525   1.976   5.921  14.862  0.0297 -0.5197 -0.0027
 1037TIP3    H124526   1.985   6.009  14.826  1.0654 -0.7247 -0.2944
 1037TIP3    H224527   1.917   5.931  14.936  0.1330  0.4194 -0.0375
 1038TIP3   OH224528   4.054   3.551  15.038 -0.9263 -0.3044  0.0558
 1038TIP3    H124529   4.022   3.566  14.949 -1.2202 -0.4326  0.1388
 1038TIP3    H224530   4.069   3.638  15.074  2.4995 -0.1702 -1.2791
 1039TIP3   OH224531   0.982   6.376  12.307 -0.0910 -0.1260 -0.3703
 1039TIP3    H124532   0.986   6.304  12.370  1.2763 -1.1177 -1.5230
 1039TIP3    H224533   1.072   6.406  12.299 -0.7138  2.1935  0.5538
 1040TIP3   OH224534   3.573   6.462   2.539  0.2954 -0.1399 -0.0770
 1040TIP3    H124535   3.577   6.407   2.460  0.4898 -0.6117  0.2615
 1040TIP3    H224536   3.481   6.485   2.546  0.2856 -0.0404 -0.4829
 1041TIP3   OH224537   0.178   4.735  12.265 -0.0599 -0.2753  0.4061
 1041TIP3    H124538   0.124   4.756  12.341 -2.1762 -0.2873 -0.9904
 1041TIP3    H224539   0.194   4.641  12.271 -2.8309 -0.9217 -0.6171
 1042TIP3   OH224540   6.126   2.828  12.906  0.0239  0.4584  0.1386
 1042TIP3    H124541   6.182   2.763  12.949  0.7573  0.3778 -0.9079
 1042TIP3    H224542   6.037   2.799  12.925  0.3431 -0.7993 -0.2242
 1043TIP3   OH224543   1.110   0.286  15.616  0.0349  0.1505 -0.2225
 1043TIP3    H124544   1.046   0.263  15.549 -0.0572  0.5205 -0.2622
 1043TIP3    H224545   1.134   0.202  15.657  0.5733 -0.1587 -1.1420
 1044TIP3   OH224546   3.512   0.998  12.049 -0.2837 -0.1799  0.4853
 1044TIP3    H124547   3.490   1.091  12.046 -1.6877 -0.4583  1.3584
 1044TIP3    H224548   3.587   0.994  12.109  1.0887  0.5665 -1.0857
 1045TIP3   OH224549   5.068   2.505  11.408  0.1357  0.0286 -0.3272
 1045TIP3    H124550   5.122   2.518  11.330  0.3796  1.9884  0.1138
 1045TIP3    H224551   5.131   2.482  11.477  0.3151  1.2737 -0.0529
 1046TIP3   OH224552   4.691   1.092   5.089  0.5794  0.3670  0.1979
 1046TIP3    H124553   4.741   1.023   5.046  1.3090  0.6197  0.6159
 1046TIP3    H224554   4.618   1.111   5.029  0.4458 -0.6628  0.0252
 1047TIP3   OH224555   6.410   6.428  13.077 -0.1562 -0.0134 -0.0074
 1047TIP3    H124556   6.363   6.491  13.023  0.1151  1.4214  1.3500
 1047TIP3    H224557   6.500   6.430  13.044 -0.2143  0.0773 -0.1609
 1048TIP3   OH224558   4.414   2.565  16.457 -1.0099  0.5117 -0.5508
 1048TIP3    H124559   4.336   2.603  16.417 -0.0240  3.0640 -0.2202
 1048TIP3    H224560   4.457   2.638  16.501  0.0036 -1.3888  1.9068
 1049TIP3   OH224561   4.673   2.918   3.400  0.2409 -0.1091 -0.0518
 1049TIP3    H124562   4.762   2.909   3.434  0.5863  0.2912 -0.7986
 1049TIP3    H224563   4.680   2.892   3.308 -0.4720 -0.3375 -0.0444
 1050TIP3   OH224564   2.929   3.161   0.810 -0.0352 -0.0544  0.0629
 1050TIP3    H124565   2.902   3.245   0.848 -1.1230  0.2117 -1.2232
 1050TIP3    H224566   2.976   3.117   0.880 -1.2731  0.7381  1.4455
 1051TIP3   OH224567   3.192   0.647  14.814  0.4085 -0.2870 -0.2196
 1051TIP3    H124568   3.157   0.564  14.845 -0.1300 -0.3760 -1.0364
 1051TIP3    H224569   3.117   0.706  14.810  0.4518 -0.2762 -1.3027
 1052TIP3   OH224570   3.229   2.712  10.944  0.2118  0.1872 -0.6668
 1052TIP3    H124571   3.248   2.799  10.979  2.1947 -0.0166 -1.1713
 1052TIP3    H224572   3.216   2.726  10.850 -1.3204  0.1702 -0.4888
 1053TIP3   OH224573   1.777   6.017  13.027  0.5655 -0.1915 -0.0006
 1053TIP3    H124574   1.797   6.056  12.942  0.1905 -1.6348 -0.7821
 1053TIP3    H224575   1.751   5.928  13.007 -2.2431  0.2056  1.3790
 1054TIP3   OH224576   5.838   4.783   1.143 -0.2970 -0.0188  0.1401
 1054TIP3    H124577   5.758   4.769   1.093  0.5468 -1.7379 -0.8527
 1054TIP3    H224578   5.814   4.845   1.212 -2.0502  0.7439 -1.0874
 1055TIP3   OH224579   4.043   1.748   1.483 -0.7176 -0.4216 -0.7075
 1055TIP3    H124580   4.080   1.764   1.396  1.9561  1.3829  0.6521
 1055TIP3    H224581   4.070   1.658   1.504  2.4646  0.5376 -0.1191
 1056TIP3   OH224582   5.914   4.812  15.794 -0.5924  0.2157  0.5390
 1056TIP3    H124583   5.874   4.745  15.739 -0.1049 -1.6207  2.3103
 1056TIP3    H224584   6.008   4.798  15.785 -0.4551  1.3032  0.1875
 1057TIP3   OH224585   4.453   3.769  14.469 -0.0252  0.2019 -0.8618
 1057TIP3    H124586   4.391   3.700  14.447  1.6312 -1.4199 -0.7241
 1057TIP3    H224587   4.523   3.724  14.517  1.0441  2.0146 -0.6072
 1058TIP3   OH224588   3.213   5.181   3.206 -0.2405 -0.1339  0.5773
 1058TIP3    H124589   3.248   5.149   3.123 -0.4732 -1.6154  1.0295
 1058TIP3    H224590   3.285   5.169   3.269 -0.8564 -1.3068  1.0854
 1059TIP3   OH224591   5.838   6.318  12.233 -0.2018  0.3762  0.0793
 1059TIP3    H124592   5.834   6.319  12.329  0.5894 -1.9591  0.2050
 1059TIP3    H224593   5.750   6.295  12.205 -0.1922  0.0949  0.2845
 1060TIP3   OH224594   1.646   6.718   3.549  0.1960  0.0077  0.4615
 1060TIP3    H124595   1.691   6.748   3.470 -0.9969  0.8386  0.0827
 1060TIP3    H224596   1.640   6.796   3.604 -0.6249 -0.1278  0.5762
 1061TIP3   OH224597   5.432   4.898   4.363 -0.4886 -0.1517 -0.2288
 1061TIP3    H124598   5.389   4.946   4.434  0.9276 -0.5107  0.9043
 1061TIP3    H224599   5.381   4.922   4.285 -1.5713  0.9130  0.7487
 1062TIP3   OH224600   3.641   3.376   4.375 -0.2361  0.2943  0.4818
 1062TIP3    H124601   3.615   3.337   4.458 -0.4932  1.5903  1.0336
 1062TIP3    H224602   3.601   3.463   4.376  2.1019  1.4403  0.2882
 1063TIP3   OH224603   5.026   5.003  16.572 -0.1279 -0.2536 -0.2517
 1063TIP3    H124604   5.020   4.940  16.645 -0.1307 -0.4542 -0.4227
 1063TIP3    H224605   5.104   5.055  16.592  0.6935 -1.2310 -0.8201
 1064TIP3   OH224606   3.307   2.828   3.170  0.3413  0.4330  0.2793
 1064TIP3    H124607   3.402   2.815   3.173 -0.0114 -3.2986 -0.2120
 1064TIP3    H224608   3.273   2.749   3.129 -2.8917  2.6765 -1.8536
 1065TIP3   OH224609   6.091   5.299  10.338  0.3339  0.2175  0.4878
 1065TIP3    H124610   6.003   5.291  10.301  0.1631  1.1158  0.6705
 1065TIP3    H224611   6.079   5.281  10.431  0.4504 -0.2636  0.4101
 1066TIP3   OH224612   0.803   6.069   3.480 -0.0220 -0.3700 -0.5503
 1066TIP3    H124613   0.712   6.066   3.452  0.3693  0.9273 -2.1002
 1066TIP3    H224614   0.830   6.160   3.466  1.2172 -0.4818  0.8761
 1067TIP3   OH224615   0.605   1.381   3.470 -0.0608  0.4163  0.1837
 1067TIP3    H124616   0.677   1.329   3.505  0.5429  1.7034  0.9222
 1067TIP3    H224617   0.526   1.339   3.505  0.4549  0.4870  1.4805
 1068TIP3   OH224618   6.235   5.401   3.905  0.8856 -0.4306 -0.5760
 1068TIP3    H124619   6.216   5.453   3.983 -1.0619 -1.1159 -0.5323
 1068TIP3    H224620   6.256   5.466   3.837 -2.1064  0.5558 -0.6992
 1069TIP3   OH224621   3.912   1.185  12.806  0.6033  0.8053 -0.2145
 1069TIP3    H124622   3.994   1.209  12.764  0.4167  0.4193 -0.8239
 1069TIP3    H224623   3.892   1.098  12.771  1.0469 -0.0699  1.6075
 1070TIP3   OH224624   4.977   0.344   1.688 -0.2873  0.1860  0.7271
 1070TIP3    H124625   5.019   0.262   1.714  0.5894  0.0670 -0.9497
 1070TIP3    H224626   4.923   0.368   1.763  0.5933 -1.1448  1.8323
 1071TIP3   OH224627   0.014   0.382  10.469 -0.5140 -0.1800  0.5651
 1071TIP3    H124628  -0.080   0.397  10.460 -0.3086  0.9157 -0.0197
 1071TIP3    H224629   0.033   0.309  10.410 -0.7131  0.8149 -0.7750
 1072TIP3   OH224630   3.704   6.843   5.421 -0.7218  0.4449  0.0870
 1072TIP3    H124631   3.790   6.849   5.464 -1.3508  0.2540  1.4319
 1072TIP3    H224632   3.670   6.758   5.451 -1.8724  1.0542  0.5476
 1073TIP3   OH224633   4.045   4.584  13.348 -0.1465  0.1907  0.4072
 1073TIP3    H124634   4.008   4.638  13.418  0.9787  1.2388  0.2336
 1073TIP3    H224635   4.012   4.623  13.267  1.1326  1.0443  0.2574
 1074TIP3   OH224636   4.353   6.236  15.187 -0.3483  0.1576 -0.3650
 1074TIP3    H124637   4.376   6.148  15.158  0.1294  0.4159 -0.7976
 1074TIP3    H224638   4.259   6.244  15.170 -0.5639 -0.5439  0.4286
 1075TIP3   OH224639   5.290   2.981  12.310 -0.6888  0.2130 -0.0614
 1075TIP3    H124640   5.217   2.964  12.251 -1.6269 -0.2640  1.2046
 1075TIP3    H224641   5.263   3.056  12.362  0.6494  1.4346 -1.0220
 1076TIP3   OH224642   1.567   2.654   4.945  0.0821  0.3696  0.4175
 1076TIP3    H124643   1.511   2.718   4.902  0.1291 -0.1094 -0.3956
 1076TIP3    H224644   1.509   2.580   4.964  0.4144 -0.1378 -0.4518
 1077TIP3   OH224645   3.058   1.083   0.567 -0.1685 -0.2299 -0.5632
 1077TIP3    H124646   2.981   1.137   0.582 -1.8243 -2.3082 -1.1005
 1077TIP3    H224647   3.125   1.120   0.624 -1.7951  1.1373  0.5694
 1078TIP3   OH224648   1.284   0.922   1.441 -0.2820 -0.0970  0.2551
 1078TIP3    H124649   1.225   0.967   1.502 -0.4572  0.9505 -0.6479
 1078TIP3    H224650   1.316   0.992   1.384  0.6662 -0.8973 -0.2166
 1079TIP3   OH224651   3.887   1.173   0.565 -0.1134  0.0618  0.3182
 1079TIP3    H124652   3.921   1.088   0.593 -0.1471  0.6283  2.2369
 1079TIP3    H224653   3.867   1.218   0.647 -0.9359  1.5858 -0.6847
 1080TIP3   OH224654   3.909   0.823  12.025  0.7202  0.8403 -0.2607
 1080TIP3    H124655   3.866   0.845  11.942  1.2088  0.9987 -0.4748
 1080TIP3    H224656   3.967   0.897  12.042  1.8446  0.0640 -0.6139
 1081TIP3   OH224657   2.713   0.959  16.117 -0.5111  0.2099 -0.3239
 1081TIP3    H124658   2.778   0.892  16.097 -2.3536 -1.9760  0.5335
 1081TIP3    H224659   2.754   1.013  16.185  1.5040  0.8163 -1.9348
 1082TIP3   OH224660   6.382   4.810  12.212 -0.1464 -0.1813 -0.2999
 1082TIP3    H124661   6.439   4.734  12.221 -0.2898 -0.3713 -0.9153
 1082TIP3    H224662   6.304   4.776  12.167 -0.7787  0.0564  0.5958
 1083TIP3   OH224663   3.762   6.159   0.436  0.2422  0.1904 -0.0070
 1083TIP3    H124664   3.674   6.148   0.398 -0.0186  1.6562  0.1264
 1083TIP3    H224665   3.795   6.069   0.445 -1.2638 -0.3978 -0.0059
 1084TIP3   OH224666   6.474   2.597  13.164 -0.1497  0.1266  0.2548
 1084TIP3    H124667   6.415   2.557  13.227 -1.2947 -2.1867 -2.0905
 1084TIP3    H224668   6.416   2.638  13.099  0.9688  2.3542  0.5763
 1085TIP3   OH224669   3.726   1.197  11.540 -0.2932 -0.1433 -0.4577
 1085TIP3    H124670   3.769   1.144  11.473 -1.1130  0.2479 -1.3222
 1085TIP3    H224671   3.639   1.159  11.548 -0.4499  0.2756 -0.1501
 1086TIP3   OH224672   5.235   2.199   4.752 -0.1011  0.4102 -0.5501
 1086TIP3    H124673   5.324   2.165   4.749 -0.3741 -0.2488 -1.7535
 1086TIP3    H224674   5.246   2.294   4.759  0.6672  0.2186  1.3975
 1087TIP3   OH224675   1.920   4.167  11.333 -0.2718  0.2074 -0.2048
 1087TIP3    H124676   1.855   4.098  11.342 -0.5924  0.3631 -1.3037
 1087TIP3    H224677   1.875   4.238  11.287  0.3668  0.7295 -0.0475
 1088TIP3   OH224678   4.713   1.743  10.952 -0.8460 -0.1859  0.5199
 1088TIP3    H124679   4.788   1.687  10.971  0.7568  2.2775  1.9450
 1088TIP3    H224680   4.675   1.763  11.038 -0.9166  1.4689  0.1394
 1089TIP3   OH224681   6.819   5.298  11.914 -0.4118 -0.8851 -0.1301
 1089TIP3    H124682   6.785   5.298  12.003  3.4875  0.8790  1.5832
 1089TIP3    H224683   6.851   5.387  11.900  1.9629 -1.9100 -2.0295
 1090TIP3   OH224684   5.002   1.033   2.748 -0.5897 -0.1162  0.3557
 1090TIP3    H124685   4.941   1.001   2.814 -0.6239  0.0726  0.4143
 1090TIP3    H224686   5.073   1.073   2.799  0.0968 -1.2406  0.3314
 1091TIP3   OH224687   6.742   0.995  11.774  0.2760 -0.3030 -0.1177
 1091TIP3    H124688   6.816   1.029  11.825  0.4021 -0.0117 -0.4928
 1091TIP3    H224689   6.782   0.939  11.708  0.2319  0.4404 -0.7982
 1092TIP3   OH224690   5.717   6.852  14.224 -0.8195 -0.4474  0.6258
 1092TIP3    H124691   5.677   6.933  14.255  1.4337  0.5386  1.1069
 1092TIP3    H224692   5.719   6.861  14.129 -1.8513 -0.6039  0.5714
 1093TIP3   OH224693   6.214   5.634   5.014 -0.5314  0.4226 -0.0541
 1093TIP3    H124694   6.253   5.609   4.931 -0.5928  0.5938 -0.1354
 1093TIP3    H224695   6.168   5.556   5.044 -0.0927  0.2045  0.0646
 1094TIP3   OH224696   6.321   1.989   4.452  0.2100 -0.0781 -0.3108
 1094TIP3    H124697   6.365   1.964   4.533 -1.4962 -1.8369  0.1640
 1094TIP3    H224698   6.267   2.064   4.476 -0.8589 -1.0435  0.4465
 1095TIP3   OH224699   0.513   6.385   1.333 -0.1477 -0.5801 -0.3222
 1095TIP3    H124700   0.437   6.440   1.353 -0.7182 -1.7596  0.9063
 1095TIP3    H224701   0.563   6.383   1.415  2.2179  1.6063 -1.5646
 1096TIP3   OH224702   3.749   0.911  10.962 -0.1340 -0.2885  0.3102
 1096TIP3    H124703   3.656   0.930  10.974  0.0607  2.5438 -1.7120
 1096TIP3    H224704   3.775   0.964  10.886  3.0243 -1.4214  0.4495
 1097TIP3   OH224705   1.836   2.383  15.209 -0.3803 -0.1111 -0.4828
 1097TIP3    H124706   1.819   2.344  15.123 -2.3030 -2.5730  0.8719
 1097TIP3    H224707   1.754   2.424  15.233  0.5543  1.7462 -0.3180
 1098TIP3   OH224708   0.678   6.008   5.605 -0.1904  0.3214 -0.2074
 1098TIP3    H124709   0.767   6.005   5.639 -0.0108  1.8385 -0.4750
 1098TIP3    H224710   0.630   5.945   5.658  0.7086  0.6047  0.9849
 1099TIP3   OH224711   6.169   1.381   2.038  0.4185 -0.1131  0.3269
 1099TIP3    H124712   6.244   1.438   2.022 -0.3085  0.8627  0.2840
 1099TIP3    H224713   6.126   1.420   2.114  0.6007 -1.3387  1.0695
 1100TIP3   OH224714   5.169   5.501  13.484  0.2927  0.0657  0.2739
 1100TIP3    H124715   5.173   5.560  13.560  0.3193  2.0301 -1.1682
 1100TIP3    H224716   5.257   5.502  13.448  0.3161 -0.9632  0.2704
 1101TIP3   OH224717   3.799   6.705  12.019  0.6613 -0.1730  0.2243
 1101TIP3    H124718   3.715   6.717  11.974  1.0902  2.8911  0.0337
 1101TIP3    H224719   3.855   6.663  11.954 -0.2965 -0.9858 -0.1123
 1102TIP3   OH224720   2.287   4.538  15.277 -0.0691 -0.4210  0.4167
 1102TIP3    H124721   2.249   4.626  15.281  1.5151  0.2616  1.1473
 1102TIP3    H224722   2.228   4.485  15.331  0.1454  0.6929  1.8239
 1103TIP3   OH224723   1.112   1.147   5.217 -0.6516 -0.2038  0.0489
 1103TIP3    H124724   1.157   1.085   5.274  0.5308 -0.3689 -1.0286
 1103TIP3    H224725   1.019   1.132   5.235 -0.7412 -4.8092 -2.5461
 1104TIP3   OH224726   3.464   0.689  13.080 -0.3572  0.6323 -0.0740
 1104TIP3    H124727   3.407   0.612  13.070  1.8560 -1.0478 -0.5665
 1104TIP3    H224728   3.530   0.679  13.011  1.2599  1.8095  1.2061
 1105TIP3   OH224729   6.884   5.558   0.112 -0.4169 -0.4680 -0.7321
 1105TIP3    H124730   6.812   5.505   0.145 -0.0293 -0.2942  0.4516
 1105TIP3    H224731   6.883   5.545   0.017 -3.0220  0.8015 -0.9460
 1106TIP3   OH224732   6.083   2.075  13.249 -0.0120 -0.1950  0.4398
 1106TIP3    H124733   6.027   2.125  13.307 -2.1083 -1.1269 -0.6671
 1106TIP3    H224734   6.171   2.082  13.287  0.3970  5.8732 -0.5948
 1107TIP3   OH224735   0.466   4.948  15.118  0.7708  0.1753  0.1748
 1107TIP3    H124736   0.438   4.997  15.041  0.1437 -0.1936  0.1619
 1107TIP3    H224737   0.543   4.899  15.088  0.8822  0.4801 -0.0488
 1108TIP3   OH224738   0.431   1.997  14.771  0.3055  0.1745  0.1275
 1108TIP3    H124739   0.416   1.917  14.821  3.2363  0.7444  2.2460
 1108TIP3    H224740   0.408   2.067  14.832 -1.4059  1.0211 -1.3976
 1109TIP3   OH224741   3.398   4.642   3.587 -0.3249  0.2253 -0.7960
 1109TIP3    H124742   3.386   4.717   3.528 -0.8436  0.6747 -0.1335
 1109TIP3    H224743   3.405   4.567   3.528  1.9424  0.9689 -1.5452
 1110TIP3   OH224744   5.301   0.219   4.950 -0.3741 -0.0963  0.2090
 1110TIP3    H124745   5.346   0.285   5.003 -1.5661 -0.4152  1.7127
 1110TIP3    H224746   5.219   0.203   4.998 -0.5027 -2.0129 -0.5856
 1111TIP3   OH224747   5.490   6.063   5.305 -0.5856 -0.5956 -0.0720
 1111TIP3    H124748   5.508   6.157   5.312 -0.5933 -0.6734  1.1758
 1111TIP3    H224749   5.577   6.023   5.297 -0.3960 -0.6570  1.9040
 1112TIP3   OH224750   3.709   5.158  16.113  0.1991  0.7263 -0.2309
 1112TIP3    H124751   3.685   5.087  16.054  0.2512  1.4840 -1.1991
 1112TIP3    H224752   3.800   5.179  16.089  0.7142  0.1235  1.0904
 1113TIP3   OH224753   3.095   6.882   4.719  0.6896  0.6100  0.2498
 1113TIP3    H124754   3.180   6.921   4.739  0.7760  1.2160 -1.1953
 1113TIP3    H224755   3.116   6.794   4.688  0.5617 -0.2964  2.5185
 1114TIP3   OH224756   5.863   1.372   4.935  0.4669 -0.2990 -0.6328
 1114TIP3    H124757   5.891   1.332   5.017 -0.0750 -0.1317 -0.3631
 1114TIP3    H224758   5.934   1.352   4.873  1.8107  1.2098  0.3434
 1115TIP3   OH224759   1.525   3.380   2.068 -0.4660 -0.2962  0.2460
 1115TIP3    H124760   1.599   3.325   2.044 -0.5046 -1.1702  2.0037
 1115TIP3    H224761   1.556   3.469   2.050  0.2924 -0.7519 -0.8432
 1116TIP3   OH224762   4.035   3.278   1.961 -0.2686 -0.2612  0.3481
 1116TIP3    H124763   3.943   3.254   1.949  0.2301 -1.8633 -0.5647
 1116TIP3    H224764   4.053   3.342   1.892 -0.6122 -0.1875  0.3279
 1117TIP3   OH224765   2.940   5.026  13.894 -0.1044 -0.3080  0.8321
 1117TIP3    H124766   2.943   4.937  13.929 -3.1691 -0.4923  0.9620
 1117TIP3    H224767   2.856   5.060  13.925 -0.7889  1.2460 -2.2902
 1118TIP3   OH224768   5.600   1.686  11.145  0.1192  0.1761 -0.0438
 1118TIP3    H124769   5.618   1.663  11.054 -0.5586  0.6644 -0.3074
 1118TIP3    H224770   5.579   1.602  11.186 -0.3578  0.0464 -0.5301
 1119TIP3   OH224771   4.411   5.724   1.064 -0.2927  0.6064 -0.1810
 1119TIP3    H124772   4.373   5.698   1.148  1.8684  1.4523  1.1801
 1119TIP3    H224773   4.470   5.653   1.041 -0.8301  0.4065 -0.9750
 1120TIP3   OH224774   4.747   1.514  10.331 -0.0757  0.3515  0.7300
 1120TIP3    H124775   4.808   1.489  10.261 -0.1354  1.6319  0.1856
 1120TIP3    H224776   4.799   1.566  10.391 -0.6100  1.4894  0.2389
 1121TIP3   OH224777   1.564   5.384  16.617  0.0916  0.1444  0.2065
 1121TIP3    H124778   1.601   5.306  16.575 -0.4135 -0.2478  0.4859
 1121TIP3    H224779   1.557   5.448  16.546 -0.6076 -0.4589 -0.2901
 1122TIP3   OH224780   1.907   3.718  13.373 -0.2617 -0.0767 -0.0179
 1122TIP3    H124781   1.958   3.668  13.437 -1.0833 -1.3548 -0.3314
 1122TIP3    H224782   1.970   3.779  13.336  0.6700 -0.5509  0.7185
 1123TIP3   OH224783   0.299   1.795   0.889  0.7783  1.0860  0.1719
 1123TIP3    H124784   0.280   1.889   0.892 -0.4049  0.8901 -0.6747
 1123TIP3    H224785   0.259   1.759   0.968  1.1910  1.2832  0.4726
 1124TIP3   OH224786   5.156   3.694  11.463  0.6464  0.1100  0.4171
 1124TIP3    H124787   5.173   3.753  11.537 -0.5357 -1.0301  1.6696
 1124TIP3    H224788   5.075   3.726  11.424  0.6538  0.0350  0.3398
 1125TIP3   OH224789   1.918   4.561   5.098  0.6447 -0.2804 -0.1651
 1125TIP3    H124790   1.925   4.540   5.005 -1.9854 -2.5169  0.0170
 1125TIP3    H224791   1.989   4.512   5.139  1.3580  0.1224 -0.8887
 1126TIP3   OH224792   5.748   2.186   1.181 -0.5315 -0.4105  0.6597
 1126TIP3    H124793   5.662   2.186   1.223  0.0919 -0.0004  1.9963
 1126TIP3    H224794   5.778   2.096   1.188 -0.0049 -0.1447  2.0423
 1127TIP3   OH224795   6.480   1.939  15.369  1.0098  0.3929 -0.2134
 1127TIP3    H124796   6.519   2.020  15.337  1.4538  0.4723  0.5098
 1127TIP3    H224797   6.390   1.941  15.334  0.8877  1.3890  0.1107
 1128TIP3   OH224798   2.615   3.188  11.035 -0.2311 -0.3696 -0.5805
 1128TIP3    H124799   2.636   3.277  11.062 -3.2624  0.1941  0.3586
 1128TIP3    H224800   2.666   3.132  11.093 -0.6120  0.8067  0.9473
 1129TIP3   OH224801   2.437   6.896  11.632 -0.5413  0.0496 -0.1873
 1129TIP3    H124802   2.503   6.955  11.667 -0.1139  0.1919 -1.2037
 1129TIP3    H224803   2.483   6.812  11.622 -1.0648 -0.3882  0.9776
 1130TIP3   OH224804   5.313   3.358   9.808  0.2771  0.2361  0.0540
 1130TIP3    H124805   5.332   3.278   9.760  0.5026 -0.4561  1.2519
 1130TIP3    H224806   5.387   3.416   9.790  0.7931 -0.3541  0.2678
 1131TIP3   OH224807   4.846   0.783   1.514 -1.0366 -0.2987 -0.6106
 1131TIP3    H124808   4.898   0.780   1.433  0.7521  1.9342  0.3413
 1131TIP3    H224809   4.908   0.761   1.583 -2.2797 -1.1030  0.2945
 1132TIP3   OH224810   5.125   0.811   6.180 -0.0425  0.4987  0.4203
 1132TIP3    H124811   5.130   0.719   6.207  1.4509  0.1274 -0.9327
 1132TIP3    H224812   5.202   0.852   6.220  0.5606  0.6004 -0.7928
 1133TIP3   OH224813   1.093   4.416   1.378  0.3095 -0.2091  0.2782
 1133TIP3    H124814   1.053   4.474   1.315  0.5615 -0.2871  0.0453
 1133TIP3    H224815   1.136   4.474   1.441 -0.0742 -0.1282  0.4707
 1134TIP3   OH224816   5.570   6.792   3.995 -0.1845 -0.1511 -0.2221
 1134TIP3    H124817   5.639   6.843   4.037  0.2103  0.6766 -1.7786
 1134TIP3    H224818   5.526   6.747   4.067 -0.9052  2.7810  1.3544
 1135TIP3   OH224819   1.523   5.082   2.965  0.4209  0.0771  0.1500
 1135TIP3    H124820   1.460   5.012   2.982  1.4993 -0.6066  1.6413
 1135TIP3    H224821   1.509   5.145   3.036 -1.9692  2.5897 -2.2817
 1136TIP3   OH224822   3.924   4.436   6.351  0.1072  0.2429  0.2326
 1136TIP3    H124823   3.829   4.430   6.340 -0.1645 -0.1438  2.4154
 1136TIP3    H224824   3.949   4.513   6.299 -1.2388 -0.1696 -1.1045
 1137TIP3   OH224825   6.674   0.829   5.367 -0.2465 -0.1631  0.0486
 1137TIP3    H124826   6.598   0.774   5.387 -0.5068 -0.3643 -1.4201
 1137TIP3    H224827   6.637   0.914   5.341  0.0963  0.1972  0.7004
 1138TIP3   OH224828   0.103   2.819   5.774 -0.3007 -0.2981  0.4321
 1138TIP3    H124829   0.105   2.810   5.679 -0.6026  1.1264  0.2772
 1138TIP3    H224830   0.190   2.851   5.797 -0.3354 -0.3304  0.6070
 1139TIP3   OH224831   2.938   5.572  16.162  0.3093 -0.3799  0.3005
 1139TIP3    H124832   2.998   5.626  16.111  0.3987  0.3072  1.1124
 1139TIP3    H224833   2.871   5.633  16.193  0.7415 -0.6097  1.7389
 1140TIP3   OH224834   6.276   6.519  11.673  0.0691  0.3934 -0.5285
 1140TIP3    H124835   6.293   6.555  11.586  1.4653  1.1650  0.0218
 1140TIP3    H224836   6.225   6.588  11.717  2.4550  1.7028  0.4117
 1141TIP3   OH224837   3.000   1.586   0.129  0.1029  0.1359  0.0399
 1141TIP3    H124838   2.997   1.656   0.195  1.4134  1.2421 -1.0198
 1141TIP3    H224839   2.933   1.611   0.065  0.6275  0.4999 -0.3810
 1142TIP3   OH224840   3.779   0.413   4.954  0.2712 -0.3996 -0.0232
 1142TIP3    H124841   3.835   0.336   4.959 -0.2664 -0.8087 -0.2743
 1142TIP3    H224842   3.692   0.381   4.974 -0.0616  0.0312 -0.7519
 1143TIP3   OH224843   0.687   2.758   3.497  0.7575  0.8136  0.1485
 1143TIP3    H124844   0.628   2.831   3.513  0.1813  0.7682 -1.6048
 1143TIP3    H224845   0.631   2.688   3.463  1.4932 -0.0295  0.6099
 1144TIP3   OH224846   3.078   3.505  12.973  0.2151  0.0526 -0.5994
 1144TIP3    H124847   3.096   3.455  12.894 -1.3702 -3.7062  1.1795
 1144TIP3    H224848   2.985   3.491  12.990 -0.1658  3.1111  0.4875
 1145TIP3   OH224849   3.753   0.703   0.830  0.1212 -0.4525 -0.6945
 1145TIP3    H124850   3.699   0.628   0.857  0.4505 -0.2006  0.7119
 1145TIP3    H224851   3.820   0.709   0.897  0.1127  1.0934 -0.8085
 1146TIP3   OH224852   3.497   4.798  12.013 -0.0643  0.8370 -0.4991
 1146TIP3    H124853   3.503   4.820  12.106 -0.5107  1.2284 -0.5542
 1146TIP3    H224854   3.429   4.731  12.008 -0.2498  1.0298 -0.5755
 1147TIP3   OH224855   4.103   1.402   4.512 -0.8452 -0.1249 -0.0291
 1147TIP3    H124856   4.011   1.425   4.504 -0.9234 -0.0378  0.9737
 1147TIP3    H224857   4.103   1.313   4.550 -0.5214 -0.7769 -1.4849
 1148TIP3   OH224858   4.623   6.237  13.338  0.1556  0.7109  0.0789
 1148TIP3    H124859   4.708   6.282  13.338  0.2451  0.5443  0.0665
 1148TIP3    H224860   4.606   6.218  13.246  1.0735 -1.0433  0.2126
 1149TIP3   OH224861   0.631   4.055  11.803 -0.1507 -0.2695 -0.1811
 1149TIP3    H124862   0.705   4.079  11.858 -0.5725 -0.3909  0.4488
 1149TIP3    H224863   0.649   3.966  11.775 -0.9585 -1.0003  1.5240
 1150TIP3   OH224864   2.425   6.881  13.045 -0.6253  0.3229  0.2731
 1150TIP3    H124865   2.384   6.795  13.035 -1.1967  0.4339  1.4638
 1150TIP3    H224866   2.460   6.902  12.958 -2.3922 -0.1431 -0.5918
 1151TIP3   OH224867   1.223   6.364  13.326  0.3633 -0.6203  0.8359
 1151TIP3    H124868   1.200   6.325  13.411 -0.1721  0.3482  1.1608
 1151TIP3    H224869   1.315   6.388  13.335  0.2125 -0.1862  1.2924
 1152TIP3   OH224870   4.203   3.433  12.155  0.0101 -0.1157 -0.3436
 1152TIP3    H124871   4.236   3.457  12.241 -2.1746 -0.6299  0.7340
 1152TIP3    H224872   4.273   3.381  12.116  1.0718  0.1543  1.1010
 1153TIP3   OH224873   0.398   3.637   4.360  0.0200 -0.3195  0.5047
 1153TIP3    H124874   0.463   3.582   4.405 -0.1014  0.5649  1.8325
 1153TIP3    H224875   0.409   3.724   4.400 -2.7441 -0.3843  1.6590
 1154TIP3   OH224876   1.259   1.490  11.571 -0.0403  0.0564  0.0315
 1154TIP3    H124877   1.255   1.533  11.656  0.1539  0.5069 -0.1839
 1154TIP3    H224878   1.241   1.560  11.508 -0.0093 -0.2387 -0.3076
 1155TIP3   OH224879   2.391   6.408  12.169 -0.4377  0.0749 -0.2916
 1155TIP3    H124880   2.454   6.337  12.177  0.5300  0.6443 -2.3199
 1155TIP3    H224881   2.325   6.375  12.108 -1.8528 -0.2817  1.3299
 1156TIP3   OH224882   5.645   6.400   4.595  0.1245 -0.3441  1.1508
 1156TIP3    H124883   5.675   6.485   4.627 -1.4728 -0.0507  2.0049
 1156TIP3    H224884   5.575   6.375   4.656  0.8224 -2.4867  1.1765
 1157TIP3   OH224885   5.550   0.752  15.834 -0.2338 -0.1575  0.2813
 1157TIP3    H124886   5.473   0.708  15.871 -0.3215  0.3991  0.7880
 1157TIP3    H224887   5.524   0.776  15.745 -0.3808 -0.6217  0.1950
 1158TIP3   OH224888   6.424   4.041   2.975  0.4969  0.3161 -0.2664
 1158TIP3    H124889   6.511   4.058   3.009  0.1868 -0.2060  0.8088
 1158TIP3    H224890   6.366   4.049   3.051 -0.1100 -1.7642 -0.4648
 1159TIP3   OH224891   4.777   4.373   4.988 -0.0839 -0.0026 -0.2585
 1159TIP3    H124892   4.772   4.436   4.916 -0.6687  0.5122  0.2210
 1159TIP3    H224893   4.793   4.426   5.065 -0.5812 -0.4422  0.1529
 1160TIP3   OH224894   6.396   1.066  11.441  0.0906 -0.4109 -0.6672
 1160TIP3    H124895   6.467   1.090  11.501  1.5616 -1.8051 -1.7603
 1160TIP3    H224896   6.441   1.026  11.366 -1.8098 -0.4918 -1.8223
 1161TIP3   OH224897   1.784   3.604   0.880 -0.0131  0.3097 -0.1325
 1161TIP3    H124898   1.780   3.573   0.971  3.1377  1.0808  0.3732
 1161TIP3    H224899   1.821   3.531   0.831  1.1388  0.9009 -0.1818
 1162TIP3   OH224900   4.972   6.884   0.536 -0.0090  0.0257  0.4466
 1162TIP3    H124901   4.882   6.901   0.562  0.4075  2.2446  0.6253
 1162TIP3    H224902   4.975   6.907   0.443  0.1108 -1.2166  0.1273
 1163TIP3   OH224903   0.807   3.066  10.693 -0.5531  1.3470 -0.4441
 1163TIP3    H124904   0.826   3.141  10.749  0.0503  1.2820 -0.5549
 1163TIP3    H224905   0.865   3.077  10.618 -1.7074  1.7090 -1.3271
 1164TIP3   OH224906   2.886   2.473  11.134 -0.3107  0.2755  0.1395
 1164TIP3    H124907   2.822   2.415  11.173  0.3966  0.0924  1.0616
 1164TIP3    H224908   2.958   2.415  11.107 -0.2250  0.5554 -0.2422
 1165TIP3   OH224909   3.257   5.137  11.670  0.2077 -0.3492  0.3562
 1165TIP3    H124910   3.330   5.136  11.732  0.1733  0.1862  0.4118
 1165TIP3    H224911   3.180   5.124  11.725  0.3937 -3.4891  0.0447
 1166TIP3   OH224912   2.368   2.858   0.498 -0.2345 -0.2635  0.0856
 1166TIP3    H124913   2.301   2.845   0.565  0.4690 -3.3768  0.3275
 1166TIP3    H224914   2.319   2.879   0.418 -1.1529  1.9694  1.1507
 1167TIP3   OH224915   4.319   0.619  14.392  1.1348 -0.1585  0.1305
 1167TIP3    H124916   4.366   0.552  14.342  1.2899 -0.9340  1.2894
 1167TIP3    H224917   4.295   0.577  14.474 -0.2020  0.7216  0.2311
 1168TIP3   OH224918   0.312   6.033  11.849  0.3129 -0.5096  0.4069
 1168TIP3    H124919   0.279   6.108  11.900 -0.5718  0.1949 -1.1311
 1168TIP3    H224920   0.395   6.011  11.891 -0.2350  0.2118  1.9720
 1169TIP3   OH224921   1.929   0.330  14.980 -0.4007 -0.2653 -0.2037
 1169TIP3    H124922   1.855   0.380  14.945  0.1630  1.7445  1.2899
 1169TIP3    H224923   1.998   0.338  14.914 -0.4801  0.5665 -0.1923
 1170TIP3   OH224924   4.103   5.991  13.918  0.1164  0.0489  0.0056
 1170TIP3    H124925   4.174   5.971  13.857  0.1200 -0.5345  0.1999
 1170TIP3    H224926   4.145   5.994  14.004 -0.1052 -0.3840  0.1332
 1171TIP3   OH224927   0.626   1.514  12.382  0.0531 -0.1473  0.1321
 1171TIP3    H124928   0.626   1.430  12.337 -0.5788  0.0703 -0.2905
 1171TIP3    H224929   0.533   1.538  12.387  0.3176  1.9625 -2.5282
 1172TIP3   OH224930   5.097   4.164  14.626 -0.5852 -0.1067  0.2046
 1172TIP3    H124931   5.172   4.193  14.575 -1.4306  0.2300 -0.9065
 1172TIP3    H224932   5.122   4.078  14.661 -0.1383 -0.5689 -1.1903
 1173TIP3   OH224933   3.838   2.942   5.605  0.4981 -0.2790  0.1413
 1173TIP3    H124934   3.901   2.946   5.534  1.1381  0.2525  0.7211
 1173TIP3    H224935   3.887   2.906   5.679  0.3591  0.8561  0.8206
 1174TIP3   OH224936   4.180   6.678  11.258  0.1758 -0.5258  0.4711
 1174TIP3    H124937   4.088   6.691  11.233 -0.0121  0.3081  1.5156
 1174TIP3    H224938   4.229   6.735  11.199 -0.1572  0.5070  1.1639
 1175TIP3   OH224939   2.109   1.318   0.673  0.2167 -0.0022  0.2494
 1175TIP3    H124940   2.147   1.239   0.636 -0.2016  0.2259 -0.6916
 1175TIP3    H224941   2.023   1.290   0.706  0.7341 -0.2830  1.4004
 1176TIP3   OH224942   0.719   2.273  15.335 -0.2422  0.3748  0.1678
 1176TIP3    H124943   0.752   2.316  15.256  0.2688  1.7514  1.0974
 1176TIP3    H224944   0.630   2.245  15.312  0.4840 -0.7818 -1.4340
 1177TIP3   OH224945   4.409   4.961   0.792  0.4973 -0.0725 -0.9056
 1177TIP3    H124946   4.419   4.956   0.697  0.5631 -0.8443 -0.8604
 1177TIP3    H224947   4.474   5.027   0.819  0.0830  0.5706 -1.4466
 1178TIP3   OH224948   6.161   2.541  16.045 -0.0994  0.2324 -0.0746
 1178TIP3    H124949   6.222   2.522  15.974  0.7047  1.5984  0.2108
 1178TIP3    H224950   6.196   2.620  16.086 -0.7507 -0.3076  1.6120
 1179TIP3   OH224951   4.200   3.704   2.155  0.5234  0.1836  0.1526
 1179TIP3    H124952   4.225   3.659   2.236 -0.2345 -1.7752 -0.6398
 1179TIP3    H224953   4.260   3.778   2.149  1.3640 -0.3074  1.9007
 1180TIP3   OH224954   1.414   6.526   0.613  0.3909  0.5856 -0.0194
 1180TIP3    H124955   1.365   6.517   0.531  0.2548 -1.7625  0.2396
 1180TIP3    H224956   1.417   6.620   0.629 -0.9752  1.0080 -1.8779
 1181TIP3   OH224957   3.885   2.806  16.558 -0.0114  0.2346 -0.1246
 1181TIP3    H124958   3.801   2.844  16.582  0.4993  0.0229  2.2785
 1181TIP3    H224959   3.871   2.712  16.559  0.2592  0.1967  0.3260
 1182TIP3   OH224960   4.453   0.405  15.747  0.0632  0.8228  0.5747
 1182TIP3    H124961   4.525   0.427  15.806  0.7113 -1.6880  0.8484
 1182TIP3    H224962   4.495   0.385  15.664 -0.2908 -0.4169  0.6653
 1183TIP3   OH224963   1.887   1.525   4.101 -0.4800 -0.0879  0.5914
 1183TIP3    H124964   1.891   1.472   4.021 -2.1882 -0.3659  0.6476
 1183TIP3    H224965   1.860   1.611   4.071  1.8012  0.6819  0.5641
 1184TIP3   OH224966   2.838   6.145   2.015 -0.2260 -0.2959  0.6743
 1184TIP3    H124967   2.846   6.119   2.107  0.1810 -1.7921  0.2602
 1184TIP3    H224968   2.928   6.167   1.988  0.1651 -2.4655 -0.0243
 1185TIP3   OH224969   3.409   4.990   5.820 -0.4960 -0.0669 -0.4522
 1185TIP3    H124970   3.438   5.056   5.757  2.1404 -1.8960 -1.3675
 1185TIP3    H224971   3.481   4.983   5.883 -0.9046 -1.6441 -0.1023
 1186TIP3   OH224972   4.792   3.833   1.064  0.5478 -0.0479  0.3368
 1186TIP3    H124973   4.727   3.764   1.075  1.4562 -0.7703  1.3331
 1186TIP3    H224974   4.745   3.914   1.082 -0.1558 -0.5288  0.6870
 1187TIP3   OH224975   0.064   3.502   9.936  0.3163  0.5954  0.1482
 1187TIP3    H124976  -0.032   3.492   9.936  0.3967 -0.3174  0.1116
 1187TIP3    H224977   0.079   3.591   9.967 -0.5626  0.9555 -0.4015
 1188TIP3   OH224978   0.277   1.908   1.343  0.0042  0.4538 -0.0466
 1188TIP3    H124979   0.252   1.953   1.262  0.1121 -0.0814 -0.3821
 1188TIP3    H224980   0.196   1.868   1.375 -0.5792  2.6144  1.3988
 1189TIP3   OH224981   0.258   6.048   0.733 -0.7036  0.5116  0.2401
 1189TIP3    H124982   0.334   6.100   0.759 -0.5825  1.7073 -2.1793
 1189TIP3    H224983   0.209   6.035   0.814  2.3612 -0.9263  2.0387
 1190TIP3   OH224984   3.448   6.689   4.801 -0.4083 -0.1793 -0.2024
 1190TIP3    H124985   3.454   6.739   4.883  0.5602 -0.2620 -0.2145
 1190TIP3    H224986   3.538   6.659   4.784 -0.5955 -0.1613 -1.2994
 1191TIP3   OH224987   2.912   6.132   4.321  0.3187  0.3633  0.0784
 1191TIP3    H124988   2.978   6.108   4.255 -0.0349 -0.4663  0.0144
 1191TIP3    H224989   2.963   6.166   4.394  0.8520 -0.5185  0.1355
 1192TIP3   OH224990   4.224   2.507  10.702 -0.0494  0.1596 -0.0035
 1192TIP3    H124991   4.215   2.469  10.615 -1.0150  0.8327 -0.2088
 1192TIP3    H224992   4.210   2.433  10.762 -3.4361  0.3465 -0.3618
 1193TIP3   OH224993   5.448   0.393   0.558  0.0864  0.0884  0.0212
 1193TIP3    H124994   5.451   0.469   0.617  0.8876  0.4218 -0.4226
 1193TIP3    H224995   5.387   0.419   0.490 -0.6017 -0.1716  0.5325
 1194TIP3   OH224996   6.634   3.100  15.876 -0.1648 -0.3760 -0.4052
 1194TIP3    H124997   6.715   3.059  15.843  1.0120  2.0436 -0.7417
 1194TIP3    H224998   6.650   3.194  15.869 -3.3521  0.2180 -1.2438
 1195TIP3   OH224999   1.087   1.107   3.439 -0.0283  0.4443  0.2208
 1195TIP3    H125000   1.108   1.067   3.354 -0.2770  1.4505 -0.3315
 1195TIP3    H225001   1.098   1.036   3.502  0.2848 -0.2930 -0.6365
 1196TIP3   OH225002   5.912   1.492  13.383  0.3020 -0.1096  0.2038
 1196TIP3    H125003   5.954   1.491  13.469 -0.7521 -1.0091  0.7310
 1196TIP3    H225004   5.864   1.575  13.381 -0.9057 -0.7606  1.1230
 1197TIP3   OH225005   1.525   0.846   5.982  0.0174 -0.7997  0.2521
 1197TIP3    H125006   1.448   0.891   6.017 -0.5386 -1.9758  0.5944
 1197TIP3    H225007   1.500   0.822   5.893 -0.6473 -2.5292  0.8506
 1198TIP3   OH225008   2.726   4.602   0.972  0.0210  0.3231 -0.0642
 1198TIP3    H125009   2.662   4.586   0.903 -1.2278  2.0711  0.6287
 1198TIP3    H225010   2.762   4.688   0.952 -0.1797  0.7409  1.3084
 1199TIP3   OH225011   4.012   3.038  14.945  0.1921  0.0478 -0.1707
 1199TIP3    H125012   4.019   3.035  14.850  0.5777  0.5813 -0.1608
 1199TIP3    H225013   4.096   3.006  14.977  0.0548 -0.1521 -0.0071
 1200TIP3   OH225014   0.181   2.828  11.073 -0.1525  0.8718 -0.6067
 1200TIP3    H125015   0.253   2.891  11.081 -0.7328  1.4690  0.0813
 1200TIP3    H225016   0.189   2.793  10.985  1.8357 -0.1408 -0.0637
 1201TIP3   OH225017   3.699   2.525   3.228  0.0422  0.3329  0.1399
 1201TIP3    H125018   3.624   2.525   3.289  0.6930 -0.0308  0.9604
 1201TIP3    H225019   3.715   2.432   3.210 -0.2427  0.4453 -0.7243
 1202TIP3   OH225020   3.019   0.417   2.898 -0.3841 -0.0935 -0.2169
 1202TIP3    H125021   2.961   0.367   2.840  1.8061 -1.9786 -0.9271
 1202TIP3    H225022   3.089   0.447   2.841 -0.4067  1.7984  0.6927
 1203TIP3   OH225023   2.621   4.792  11.745  0.1714 -0.4565 -0.6219
 1203TIP3    H125024   2.625   4.696  11.746 -1.9103 -0.6151  1.0040
 1203TIP3    H225025   2.674   4.818  11.820  1.6982 -0.2259 -1.7475
 1204TIP3   OH225026   0.516   0.152   5.013  0.0569 -0.1141 -0.1803
 1204TIP3    H125027   0.528   0.245   4.994 -1.2497  0.2788  0.7719
 1204TIP3    H225028   0.421   0.142   5.024  0.3626 -0.9628  2.4851
 1205TIP3   OH225029   1.766   4.660  12.006 -0.4102  0.0600  0.2908
 1205TIP3    H125030   1.706   4.586  12.007 -1.4861  0.9055  1.6074
 1205TIP3    H225031   1.754   4.700  11.920 -0.1172 -1.0368 -0.2690
 1206TIP3   OH225032   4.542   2.117   1.014 -0.5469  0.0222 -0.3096
 1206TIP3    H125033   4.575   2.077   0.934 -0.2270 -0.9846  0.3098
 1206TIP3    H225034   4.551   2.211   1.000 -0.8743 -0.1256 -1.6105
 1207TIP3   OH225035   0.836   5.300   3.790  0.7072 -0.2203  0.8133
 1207TIP3    H125036   0.817   5.342   3.874  1.6482 -1.6607  1.7890
 1207TIP3    H225037   0.781   5.221   3.790  2.0516 -1.1838  0.9180
 1208TIP3   OH225038   0.094   3.452   5.060  0.5351  0.4838 -1.0081
 1208TIP3    H125039   0.162   3.420   5.120  0.0096 -0.0370 -0.6821
 1208TIP3    H225040   0.091   3.546   5.077 -0.4497  0.1877  0.6942
 1209TIP3   OH225041   1.982   1.031   2.328 -0.3601 -0.2549 -0.9531
 1209TIP3    H125042   2.002   1.094   2.396 -2.6145  1.3328 -1.6592
 1209TIP3    H225043   1.980   0.946   2.374 -0.9789  0.6525  0.7729
 1210TIP3   OH225044   3.130   0.051   1.646 -0.0051  0.0160  0.3511
 1210TIP3    H125045   3.157  -0.031   1.688  0.8270  0.9864  1.7937
 1210TIP3    H225046   3.098   0.105   1.719  2.1446  2.0357 -0.0858
 1211TIP3   OH225047   6.698   0.572   3.570  0.7828  0.1139 -0.3127
 1211TIP3    H125048   6.621   0.559   3.514  1.1876  0.3578 -0.9349
 1211TIP3    H225049   6.764   0.513   3.535  1.0065  0.1804 -0.0102
 1212TIP3   OH225050   0.064   0.682   2.727 -0.8944 -0.3629  0.4924
 1212TIP3    H125051  -0.022   0.646   2.705 -0.2832 -1.9514  0.5713
 1212TIP3    H225052   0.124   0.609   2.713  0.5617  0.9318 -0.3383
 1213TIP3   OH225053   1.421   6.796  13.341  0.4699  0.2393 -0.2506
 1213TIP3    H125054   1.333   6.832  13.356  0.6893  0.8138 -0.3178
 1213TIP3    H225055   1.414   6.704  13.367 -0.3893  0.0427 -1.1170
 1214TIP3   OH225056   0.804   5.202   2.824  0.1074  0.6890  0.0086
 1214TIP3    H125057   0.835   5.150   2.898  0.6937 -0.9144 -1.3008
 1214TIP3    H225058   0.878   5.257   2.800 -0.0830  1.2105  0.5898
 1215TIP3   OH225059   5.931   6.844   2.555  0.2690  0.8430 -0.4433
 1215TIP3    H125060   5.880   6.822   2.634  0.7029  0.8732 -0.1523
 1215TIP3    H225061   5.979   6.763   2.535 -0.1645  0.7004 -0.9292
 1216TIP3   OH225062   2.690   6.775  13.342  0.5711  0.1425  0.5720
 1216TIP3    H125063   2.771   6.737  13.310  0.0112 -0.2163 -0.4755
 1216TIP3    H225064   2.664   6.718  13.415 -0.6276 -2.0278 -1.4225
 1217TIP3   OH225065   2.207   4.272  16.516 -0.1586  0.0782 -0.5181
 1217TIP3    H125066   2.223   4.204  16.582 -1.9679  0.9975  0.9360
 1217TIP3    H225067   2.197   4.223  16.434  2.7231 -1.0518 -0.3206
 1218TIP3   OH225068   6.194   0.067  14.007 -0.0862  1.1250 -0.1474
 1218TIP3    H125069   6.229   0.018  14.082 -1.6087 -0.5083 -0.4427
 1218TIP3    H225070   6.194   0.158  14.037  1.0635  0.7452  1.1394
 1219TIP3   OH225071   2.224   6.143  15.258  0.5399 -0.6096 -0.4281
 1219TIP3    H125072   2.148   6.201  15.267 -0.1465 -1.0454 -2.8553
 1219TIP3    H225073   2.199   6.063  15.305  0.5509  0.1622  0.9288
 1220TIP3   OH225074   1.157   1.063   1.949  0.4984 -0.2952 -0.2130
 1220TIP3    H125075   1.110   0.991   1.906  0.4313 -0.4462  0.1099
 1220TIP3    H225076   1.147   1.046   2.043  0.3681  0.2054 -0.1309
 1221TIP3   OH225077   2.883   4.194  12.245 -0.0741 -0.3925 -0.4454
 1221TIP3    H125078   2.875   4.216  12.338 -0.7740  0.5714 -0.7147
 1221TIP3    H225079   2.815   4.246  12.202  0.2810 -0.7752 -1.5082
 1222TIP3   OH225080   3.545   5.243  12.712 -0.3578  0.5693 -0.3855
 1222TIP3    H125081   3.610   5.312  12.702  1.2027 -0.4771  1.6380
 1222TIP3    H225082   3.521   5.246  12.805 -2.3540  0.1508 -0.8352
 1223TIP3   OH225083   4.727   0.349  12.367 -0.3705  0.4295 -0.5389
 1223TIP3    H125084   4.762   0.284  12.427  1.5231  2.9278  1.3113
 1223TIP3    H225085   4.749   0.316  12.280 -0.1455 -1.7095  0.2873
 1224TIP3   OH225086   5.627   3.486   3.223  0.1058 -0.0029  0.1670
 1224TIP3    H125087   5.677   3.429   3.165  0.1442 -0.2358  0.4256
 1224TIP3    H225088   5.586   3.426   3.286 -0.0997  0.2287  0.2538
 1225TIP3   OH225089   3.832   6.829   1.768  0.1894 -0.3444  0.0756
 1225TIP3    H125090   3.875   6.899   1.817 -1.0293  0.2380  0.3338
 1225TIP3    H225091   3.749   6.816   1.812 -0.7586 -0.1034 -1.5603
 1226TIP3   OH225092   1.274   5.241   3.655  0.0919 -0.1140 -0.1713
 1226TIP3    H125093   1.334   5.179   3.613 -1.0573 -0.8445 -0.7739
 1226TIP3    H225094   1.187   5.205   3.640 -0.4861  0.6388  1.1660
 1227TIP3   OH225095   2.740   5.343  12.804 -0.3138 -0.6064 -1.0271
 1227TIP3    H125096   2.649   5.330  12.778  0.2329 -1.8953 -2.4389
 1227TIP3    H225097   2.779   5.256  12.799  0.8593 -0.1859  0.1985
 1228TIP3   OH225098   1.465   3.882  14.276 -0.0970 -0.4469 -0.1640
 1228TIP3    H125099   1.445   3.962  14.324 -1.1924 -0.4657 -0.5668
 1228TIP3    H225100   1.417   3.814  14.322 -1.0776 -0.4826 -1.1904
 1229TIP3   OH225101   2.746   3.037  11.235 -0.5037  0.5643  0.2633
 1229TIP3    H125102   2.837   3.005  11.231 -0.3088  1.1657 -2.0183
 1229TIP3    H225103   2.739   3.078  11.321  1.0497 -0.4047  0.9112
 1230TIP3   OH225104   4.714   6.402   1.954 -0.0455  0.0818  0.2383
 1230TIP3    H125105   4.722   6.488   1.912 -3.3242  0.6064  0.3991
 1230TIP3    H225106   4.744   6.417   2.044 -0.7581  1.1569  0.3224
 1231TIP3   OH225107   6.676   0.779  11.915 -0.0112 -0.0374 -0.6975
 1231TIP3    H125108   6.755   0.750  11.960 -0.5405 -2.0401 -0.9825
 1231TIP3    H225109   6.705   0.851  11.859  1.1067  0.9145  1.0154
 1232TIP3   OH225110   2.854   3.487  10.525 -0.5486  0.3127  0.0701
 1232TIP3    H125111   2.900   3.467  10.444 -0.5541 -0.9987  0.3686
 1232TIP3    H225112   2.914   3.543  10.574 -0.3179  0.6564 -0.5963
 1233TIP3   OH225113   3.086   3.425  15.601  0.0038  0.7555  0.4174
 1233TIP3    H125114   3.125   3.346  15.639 -0.5325  1.2975  2.1930
 1233TIP3    H225115   3.156   3.491  15.608  0.4967  0.4298 -1.1844
 1234TIP3   OH225116   3.056   6.239  15.815 -0.6305 -0.1497  0.4369
 1234TIP3    H125117   3.087   6.232  15.725 -0.0971  1.1668  0.4918
 1234TIP3    H225118   3.127   6.283  15.861 -1.7239  1.0300  1.0395
 1235TIP3   OH225119   4.540   1.972   1.998  0.3511  0.5048 -0.1918
 1235TIP3    H125120   4.474   2.022   1.950  1.0978 -0.2093 -2.0499
 1235TIP3    H225121   4.516   1.881   1.984  0.3659  0.2697  1.1683
 1236TIP3   OH225122   1.763   4.441  15.325  0.3594 -0.0739  0.0609
 1236TIP3    H125123   1.815   4.436  15.405  0.7628 -0.6984 -0.2355
 1236TIP3    H225124   1.707   4.364  15.327 -0.8137  0.7537  0.5330
 1237TIP3   OH225125   3.773   3.699   5.612 -0.2375 -0.4734 -0.0376
 1237TIP3    H125126   3.779   3.701   5.708 -0.9955  0.4655  0.0074
 1237TIP3    H225127   3.792   3.608   5.589 -0.3391 -0.7824  1.0215
 1238TIP3   OH225128   5.897   4.439  14.962  0.0667 -0.4930  0.2537
 1238TIP3    H125129   5.956   4.498  14.917 -1.1701  0.4999 -0.1250
 1238TIP3    H225130   5.834   4.412  14.895 -0.3778 -0.9081  0.8276
 1239TIP3   OH225131   4.589   4.952  12.357  0.6029 -0.0281  0.3462
 1239TIP3    H125132   4.679   4.945  12.390  0.4563  0.6047  0.9057
 1239TIP3    H225133   4.538   4.893  12.413  0.6413 -0.2401  0.1558
 1240TIP3   OH225134   3.734   2.115  16.485  0.0335 -0.0451 -0.4104
 1240TIP3    H125135   3.801   2.047  16.488  0.6998  0.5105 -1.8776
 1240TIP3    H225136   3.695   2.106  16.398 -0.0229  1.2922 -0.5401
 1241TIP3   OH225137   6.396   0.889  10.696  0.0310 -0.5494 -0.5738
 1241TIP3    H125138   6.346   0.882  10.615 -0.1712  0.4354 -0.5469
 1241TIP3    H225139   6.452   0.812  10.697  1.2072  0.2113 -2.4774
 1242TIP3   OH225140   5.939   5.217  15.605  0.2878  0.2398 -0.3813
 1242TIP3    H125141   6.034   5.216  15.619  0.2505  0.7285 -0.0926
 1242TIP3    H225142   5.908   5.294  15.653 -0.1305  0.6480 -1.2683
 1243TIP3   OH225143   2.209   1.892   5.135 -0.2172 -0.4154  0.0941
 1243TIP3    H125144   2.194   1.863   5.225 -1.1215 -0.4053 -0.0448
 1243TIP3    H225145   2.210   1.811   5.084 -0.5502 -0.3651  0.0042
 1244TIP3   OH225146   5.592   5.581   2.121 -0.3668  0.1154  0.1565
 1244TIP3    H125147   5.533   5.589   2.196 -0.5341  0.3893 -0.0004
 1244TIP3    H225148   5.539   5.538   2.054 -0.0945 -0.4813  0.3273
 1245TIP3   OH225149   0.120   3.796   0.778 -0.0796  0.1742  0.2461
 1245TIP3    H125150   0.133   3.833   0.865  1.1349  0.1922  0.0757
 1245TIP3    H225151   0.203   3.811   0.732 -0.2864 -0.8714 -0.5238
 1246TIP3   OH225152   3.804   3.236  13.974  0.3742 -0.0235 -1.0335
 1246TIP3    H125153   3.823   3.168  14.039 -1.8486  0.8899  0.7560
 1246TIP3    H225154   3.718   3.212  13.939 -0.3082  1.6043 -0.5959
 1247TIP3   OH225155   3.941   5.713   0.262  0.7221 -0.5147  0.1020
 1247TIP3    H125156   3.994   5.777   0.309 -0.1442 -0.2681  0.7629
 1247TIP3    H225157   3.968   5.629   0.297  0.8927 -0.4182  0.2045
 1248TIP3   OH225158   1.254   2.042   6.448 -0.2367 -0.0416 -0.5277
 1248TIP3    H125159   1.290   2.084   6.526 -1.0448  0.3276 -0.3413
 1248TIP3    H225160   1.289   2.093   6.375  1.9994 -1.4988 -0.5353
 1249TIP3   OH225161   5.151   4.339  12.380  0.1078  0.2165  0.3790
 1249TIP3    H125162   5.147   4.244  12.392  0.2327  0.0721 -0.6588
 1249TIP3    H225163   5.152   4.352  12.285  0.0442  1.2599  0.5054
 1250TIP3   OH225164   3.787   3.259  10.969  0.3631 -0.0065 -0.2371
 1250TIP3    H125165   3.710   3.297  10.929  1.0539  0.4684 -1.1439
 1250TIP3    H225166   3.858   3.320  10.950  0.5650  0.8205  2.6295
 1251TIP3   OH225167   6.268   6.245  11.611 -0.7461 -0.6544  0.4143
 1251TIP3    H125168   6.266   6.253  11.515  0.9534 -0.7183  0.3421
 1251TIP3    H225169   6.270   6.335  11.643  0.7393 -0.6006  0.2732
 1252TIP3   OH225170   2.089   5.402  16.379  0.0582 -0.6435 -0.8654
 1252TIP3    H125171   2.060   5.471  16.320 -1.4739 -1.6685 -1.3645
 1252TIP3    H225172   2.138   5.342  16.324  0.3702 -0.5634 -0.6767
 1253TIP3   OH225173   1.180   5.675  11.966  0.4768  0.1158  0.0177
 1253TIP3    H125174   1.222   5.645  12.047 -0.7179  0.2748  0.7192
 1253TIP3    H225175   1.238   5.645  11.896  2.1945  1.0518  0.9698
 1254TIP3   OH225176   5.836   1.885  15.529 -0.6342 -0.8284 -0.1873
 1254TIP3    H125177   5.888   1.966  15.532 -0.9987 -0.5950 -0.0711
 1254TIP3    H225178   5.893   1.819  15.567 -1.3337 -0.0460  2.4676
 1255TIP3   OH225179   3.473   3.901  11.418 -0.3289  0.5797  0.1056
 1255TIP3    H125180   3.435   3.813  11.417  0.0759  0.4017  0.3294
 1255TIP3    H225181   3.434   3.945  11.342  1.6451 -0.7132 -1.7881
 1256TIP3   OH225182   0.701   4.914   0.222  0.4489  0.4323 -0.5066
 1256TIP3    H125183   0.681   4.964   0.301  0.8241  0.9203 -0.7198
 1256TIP3    H225184   0.772   4.856   0.247 -0.3937 -0.4561 -0.0840
 1257TIP3   OH225185   1.859   1.673   0.833 -0.1186 -0.0507 -0.0980
 1257TIP3    H125186   1.860   1.641   0.743 -0.8280 -2.0053  0.5417
 1257TIP3    H225187   1.773   1.649   0.867  0.0710  0.8062  1.0626
 1258TIP3   OH225188   5.635   6.399   0.053  0.1734  0.4637  0.2117
 1258TIP3    H125189   5.593   6.351   0.124  1.1307  1.4654  1.5113
 1258TIP3    H225190   5.591   6.368  -0.027 -3.0094  1.4182  1.4484
 1259TIP3   OH225191   2.621   1.509  14.490 -0.2784  0.2048  0.0668
 1259TIP3    H125192   2.703   1.473  14.457  0.1796  0.3118  1.0724
 1259TIP3    H225193   2.581   1.436  14.538 -0.3623  0.4141  0.3141
 1260TIP3   OH225194   1.632   2.791  12.924 -0.2951 -0.3886  0.1380
 1260TIP3    H125195   1.561   2.728  12.924 -0.8357  0.1753 -1.3915
 1260TIP3    H225196   1.639   2.819  12.833  0.7522  0.8319  0.5671
 1261TIP3   OH225197   1.871   1.914  12.785  0.0204  0.1734  0.3572
 1261TIP3    H125198   1.850   1.882  12.697 -0.5691 -0.5661  0.7465
 1261TIP3    H225199   1.904   1.837  12.831  1.5181  0.8286  0.4328
 1262TIP3   OH225200   4.601   3.588   3.081 -0.5699 -0.8180 -0.1880
 1262TIP3    H125201   4.538   3.659   3.068 -0.5455 -1.0263 -1.5828
 1262TIP3    H225202   4.547   3.513   3.106 -0.7644 -0.7004 -0.2530
 1263TIP3   OH225203   2.099   1.272  11.476 -0.0014  0.0165 -0.1586
 1263TIP3    H125204   2.142   1.253  11.392  0.2950 -0.6812  0.1463
 1263TIP3    H225205   2.007   1.251  11.460  0.2885 -1.6493  0.1255
 1264TIP3   OH225206   3.348   1.269  14.877 -0.5601  0.4714  0.1835
 1264TIP3    H125207   3.388   1.339  14.825 -2.2217  0.6336 -0.9396
 1264TIP3    H225208   3.346   1.303  14.966 -0.6236  1.5304 -0.2082
 1265TIP3   OH225209   5.847   6.346  13.853 -0.2694 -0.1121  0.2546
 1265TIP3    H125210   5.810   6.432  13.874 -1.0404 -0.6866  1.3107
 1265TIP3    H225211   5.857   6.302  13.937  0.1323 -1.0581 -0.2709
 1266TIP3   OH225212   1.147   3.575  14.148 -0.5492  0.4053  0.2392
 1266TIP3    H125213   1.147   3.479  14.148  0.0855  0.3954  0.6646
 1266TIP3    H225214   1.090   3.598  14.222  0.3935  0.3278  1.0108
 1267TIP3   OH225215   0.797   1.836   3.302  0.1401 -0.2022 -0.0127
 1267TIP3    H125216   0.708   1.870   3.314  0.3396  0.3118  0.0513
 1267TIP3    H225217   0.854   1.907   3.334  0.5749 -0.4613 -0.2062
 1268TIP3   OH225218   2.690   0.525   0.443 -0.5318  1.0117  0.2118
 1268TIP3    H125219   2.597   0.549   0.450 -0.9765 -0.5299 -0.0387
 1268TIP3    H225220   2.724   0.582   0.374 -1.7531  0.3966 -0.9428
 1269TIP3   OH225221   4.538   1.435  11.281 -0.1049  0.2907  0.0720
 1269TIP3    H125222   4.596   1.385  11.338  1.0084 -0.2568 -1.4417
 1269TIP3    H225223   4.472   1.372  11.253 -1.6762  0.9843  2.0121
 1270TIP3   OH225224   6.591   3.412  16.098 -0.5969 -0.0632 -0.4471
 1270TIP3    H125225   6.679   3.450  16.099 -0.1566 -1.0468  0.7145
 1270TIP3    H225226   6.548   3.452  16.022  0.6937  0.7723 -0.7657
 1271TIP3   OH225227   5.435   2.262   0.644 -0.2526  0.6528 -0.2893
 1271TIP3    H125228   5.522   2.255   0.684  0.0826  0.7099 -0.9940
 1271TIP3    H225229   5.436   2.347   0.600 -0.8549  0.8849  0.1408
 1272TIP3   OH225230   6.600   0.392  10.143 -0.7080  0.2467 -0.4052
 1272TIP3    H125231   6.507   0.413  10.129 -0.5470 -0.2654 -2.7778
 1272TIP3    H225232   6.644   0.477  10.141 -1.0855  0.4618  0.3398
 1273TIP3   OH225233   4.526   0.280   3.773  0.8463  0.0871 -0.0309
 1273TIP3    H125234   4.469   0.354   3.749  1.1680  1.1922  2.3872
 1273TIP3    H225235   4.602   0.289   3.716 -0.3740 -0.1706 -1.8198
 1274TIP3   OH225236   6.818   2.866  15.864 -0.5109  0.1814 -0.1480
 1274TIP3    H125237   6.822   2.890  15.956 -1.1328  0.5801 -0.2158
 1274TIP3    H225238   6.751   2.797  15.860 -0.0469 -0.2671 -0.2153
 1275TIP3   OH225239   5.890   0.724   3.699 -0.2760 -0.1557 -0.3831
 1275TIP3    H125240   5.963   0.783   3.680  0.9324 -1.4203  0.1370
 1275TIP3    H225241   5.870   0.682   3.616 -1.6701  1.4882 -0.9381
 1276TIP3   OH225242   1.130   3.190   3.442 -0.4883  0.7105  0.5617
 1276TIP3    H125243   1.127   3.276   3.485 -0.9389  1.1190 -0.2715
 1276TIP3    H225244   1.075   3.134   3.497 -0.7012  1.1146  0.7676
 1277TIP3   OH225245   2.864   0.841   4.460  0.3092 -0.5196 -0.4363
 1277TIP3    H125246   2.924   0.773   4.428  1.4812  0.4013 -0.2736
 1277TIP3    H225247   2.922   0.911   4.491 -0.8628  0.3852 -0.2216
 1278TIP3   OH225248   3.069   6.698   0.057 -0.0035 -0.5003 -0.1832
 1278TIP3    H125249   3.051   6.685   0.150 -0.3823  1.2234  0.0069
 1278TIP3    H225250   3.135   6.766   0.054  0.5675 -1.0707 -1.1774
 1279TIP3   OH225251   3.022   5.790  14.678 -0.1671 -0.1077  0.1132
 1279TIP3    H125252   2.964   5.866  14.668 -0.4770 -0.3277  0.2194
 1279TIP3    H225253   3.055   5.797  14.767  1.2611  0.9157 -0.4517
 1280TIP3   OH225254   4.283   4.420   1.057 -0.1340  0.1538 -0.2877
 1280TIP3    H125255   4.271   4.515   1.062 -0.8652  0.0197  0.6101
 1280TIP3    H225256   4.378   4.409   1.048 -0.0266  0.9562 -0.2343
 1281TIP3   OH225257   4.908   2.121   0.479 -0.4376  0.5802 -0.7182
 1281TIP3    H125258   4.842   2.083   0.422  1.1258  0.4577 -2.5839
 1281TIP3    H225259   4.876   2.210   0.497 -2.8397 -0.6297  1.5154
 1282TIP3   OH225260   2.436   5.358  15.747  0.0836  0.0036  0.0927
 1282TIP3    H125261   2.347   5.393  15.742 -0.2244 -0.8799 -0.9949
 1282TIP3    H225262   2.425   5.266  15.771  0.5887 -0.4800 -1.3815
 1283TIP3   OH225263   0.909   0.434   5.119  0.4888 -0.4710 -0.5659
 1283TIP3    H125264   0.990   0.385   5.134  0.7950 -0.3936 -1.8583
 1283TIP3    H225265   0.920   0.473   5.032 -0.7577 -0.1153 -0.5846
 1284TIP3   OH225266   1.224   2.861  14.614  0.1398  0.1589 -0.1863
 1284TIP3    H125267   1.166   2.921  14.568  2.7158  2.1679 -1.0447
 1284TIP3    H225268   1.219   2.779  14.565 -0.3361  0.9825 -1.5435
 1285TIP3   OH225269   3.513   4.883   4.750  0.2955 -0.1664  0.2045
 1285TIP3    H125270   3.435   4.857   4.798  0.5013  0.9142  1.1628
 1285TIP3    H225271   3.498   4.849   4.661 -1.5274  0.4727  0.2044
 1286TIP3   OH225272   5.191   0.903  11.600 -0.5135  0.1670  0.6747
 1286TIP3    H125273   5.237   0.987  11.604  0.8034 -0.5400  0.7976
 1286TIP3    H225274   5.207   0.871  11.511  1.8263 -1.4697  1.5976
 1287TIP3   OH225275   3.575   3.242   0.898  0.0725  0.4191 -0.4287
 1287TIP3    H125276   3.632   3.252   0.974 -0.7400  1.4982  0.0623
 1287TIP3    H225277   3.522   3.165   0.918  0.7344 -0.0657 -0.4966
 1288TIP3   OH225278   5.756   6.679   5.052  0.3766  0.6853 -0.1241
 1288TIP3    H125279   5.818   6.727   5.108 -0.3206 -0.0610  1.3350
 1288TIP3    H225280   5.670   6.709   5.082 -0.0498 -0.9613  0.3747
 1289TIP3   OH225281   4.589   1.703  14.851  0.1952  0.6347 -0.0836
 1289TIP3    H125282   4.684   1.712  14.845  0.2095  1.0297  0.6414
 1289TIP3    H225283   4.558   1.791  14.870 -0.4086  0.6913 -1.2759
 1290TIP3   OH225284   0.042   0.762   0.257 -0.0300  0.0504 -0.0894
 1290TIP3    H125285   0.025   0.679   0.211  0.1791 -0.4643  0.7350
 1290TIP3    H225286  -0.016   0.759   0.333  0.5994  0.2654  0.4081
 1291TIP3   OH225287   3.291   1.659  10.080  0.5208  0.9105  0.3286
 1291TIP3    H125288   3.366   1.627  10.130  1.0195  2.5156  0.6604
 1291TIP3    H225289   3.327   1.726  10.022 -0.4232  0.6506 -0.5994
 1292TIP3   OH225290   0.442   5.392  10.612  0.0140 -0.3532  0.4285
 1292TIP3    H125291   0.427   5.337  10.535  0.8048 -1.3569  0.9746
 1292TIP3    H225292   0.436   5.482  10.578  1.4876 -0.7519 -1.0621
 1293TIP3   OH225293   1.289   3.073   3.259 -0.7000 -0.1658  0.1754
 1293TIP3    H125294   1.352   3.142   3.237 -1.7901  0.6181 -0.6134
 1293TIP3    H225295   1.248   3.103   3.340  0.6638 -1.2057  1.2886
 1294TIP3   OH225296   5.296   0.785  16.681  0.6390 -0.2320 -0.1908
 1294TIP3    H125297   5.379   0.764  16.724  0.0928 -2.9994 -0.2863
 1294TIP3    H225298   5.230   0.774  16.749  0.1017 -0.9809 -0.8132
 1295TIP3   OH225299   1.122   5.505  12.651 -0.2973 -0.1854  0.3405
 1295TIP3    H125300   1.151   5.542  12.735 -0.2628 -1.0766  0.7357
 1295TIP3    H225301   1.154   5.415  12.653  0.5637  0.0588 -1.0657
 1296TIP3   OH225302   6.779   3.658   4.227 -0.1911  0.1612  0.6363
 1296TIP3    H125303   6.786   3.620   4.314  1.4426 -1.3825 -0.0994
 1296TIP3    H225304   6.700   3.618   4.190 -0.8222  0.7306  1.3266
 1297TIP3   OH225305   0.164   3.874   2.002  0.4742  0.6514 -0.3494
 1297TIP3    H125306   0.220   3.810   1.958  0.7624  0.8956 -0.3399
 1297TIP3    H225307   0.211   3.896   2.082 -1.0293 -1.3981  1.2088
 1298TIP3   OH225308   6.098   0.199  10.836 -0.8106  0.2224  0.5236
 1298TIP3    H125309   6.105   0.276  10.892  0.6547  1.4340 -1.1960
 1298TIP3    H225310   6.036   0.142  10.881  0.3880  1.0343  3.4156
 1299TIP3   OH225311   0.297   1.425   4.035 -0.1214  0.0817  0.3358
 1299TIP3    H125312   0.341   1.435   4.120  0.1182 -1.8608  0.4920
 1299TIP3    H225313   0.234   1.497   4.032  2.5082  2.5474  0.4227
 1300TIP3   OH225314   2.609   0.297  13.443 -0.0031  0.1858  0.1671
 1300TIP3    H125315   2.543   0.263  13.382 -0.3054  1.5511 -0.2889
 1300TIP3    H225316   2.682   0.322  13.387 -0.1844  1.2067  0.3660
 1301TIP3   OH225317   5.793   5.329  10.894  0.4480 -0.3385  0.2039
 1301TIP3    H125318   5.783   5.348  10.800  1.4212  1.5775  0.4354
 1301TIP3    H225319   5.848   5.400  10.927  1.6416 -1.9415  1.8895
 1302TIP3   OH225320   2.027   4.684   2.494 -0.2624 -0.0377  0.7290
 1302TIP3    H125321   1.984   4.765   2.520  1.1783  0.6321  1.1045
 1302TIP3    H225322   2.073   4.706   2.414 -2.5632 -1.4161 -1.1089
 1303TIP3   OH225323   5.870   4.613   0.388  0.4618 -0.0660 -0.6659
 1303TIP3    H125324   5.923   4.632   0.311  1.4565  0.6654  0.1745
 1303TIP3    H225325   5.867   4.695   0.437  0.6807 -0.7688  0.5679
 1304TIP3   OH225326   4.933   2.851  15.464  0.6675 -0.0128  0.8065
 1304TIP3    H125327   4.928   2.756  15.470 -2.0354  0.0510  0.8241
 1304TIP3    H225328   4.943   2.868  15.370  0.5218 -0.3002  0.7362
 1305TIP3   OH225329   6.715   4.071  12.407  0.2100  0.2057 -0.0850
 1305TIP3    H125330   6.675   4.146  12.449  0.0329  0.2469 -0.3263
 1305TIP3    H225331   6.807   4.096  12.396  0.8685 -0.7564  2.5190
 1306TIP3   OH225332   5.134   6.821   9.982  0.1125  0.2185 -0.5270
 1306TIP3    H125333   5.082   6.883  10.034  1.3178  0.1192  0.8966
 1306TIP3    H225334   5.183   6.771  10.048 -0.6983 -2.1726 -1.6301
 1307TIP3   OH225335   6.160   2.479  14.808 -0.0492 -0.4618 -0.0913
 1307TIP3    H125336   6.152   2.438  14.894  0.4227  2.0604  1.2736
 1307TIP3    H225337   6.130   2.569  14.822  0.5463  0.1739 -2.4517
 1308TIP3   OH225338   4.472   1.754   5.298  0.9225 -0.0084 -0.3371
 1308TIP3    H125339   4.538   1.823   5.300  0.3934  0.4841  0.8727
 1308TIP3    H225340   4.509   1.687   5.240  2.7230  0.0413  0.6857
 1309TIP3   OH225341   1.390   6.463   1.334  0.0091 -0.1142  0.0344
 1309TIP3    H125342   1.457   6.468   1.402  1.7903  0.5655 -1.6578
 1309TIP3    H225343   1.378   6.553   1.305  0.2383 -0.5116 -1.3787
 1310TIP3   OH225344   0.233   0.970   0.281  0.6438  0.4316  0.0270
 1310TIP3    H125345   0.245   1.005   0.193  0.5691  0.3077 -0.0324
 1310TIP3    H225346   0.165   0.903   0.272 -0.9370  1.9103  0.5719
 1311TIP3   OH225347   3.960   2.460   2.503 -0.1240 -0.0444  0.6878
 1311TIP3    H125348   3.891   2.526   2.510 -0.8890 -0.4745 -1.8062
 1311TIP3    H225349   4.027   2.500   2.448  0.1687 -0.7380  0.5230
 1312TIP3   OH225350   4.912   2.950   1.156  0.8732 -0.0875 -0.1914
 1312TIP3    H125351   4.857   2.913   1.087 -0.4934 -0.9134  1.2672
 1312TIP3    H225352   4.899   2.892   1.231  1.1183  1.5931  1.2166
 1313TIP3   OH225353   3.002   4.246  12.952 -0.1035 -0.4415  0.0777
 1313TIP3    H125354   3.083   4.257  12.903 -0.4880  1.0509 -0.2620
 1313TIP3    H225355   2.961   4.168  12.914  0.8372 -0.8089 -0.2004
 1314TIP3   OH225356   2.642   4.462  16.405  0.7767  0.2840 -0.1330
 1314TIP3    H125357   2.572   4.398  16.392  0.3596  0.7191 -0.0667
 1314TIP3    H225358   2.630   4.526  16.335  2.0098 -0.4120 -1.0084
 1315TIP3   OH225359   6.830   4.460  11.507 -0.1538 -0.4210  0.4502
 1315TIP3    H125360   6.819   4.372  11.472  0.6415 -0.0614 -0.7653
 1315TIP3    H225361   6.896   4.451  11.576  0.1118 -0.7300  0.1568
 1316TIP3   OH225362   5.005   2.995  13.995  0.1675 -0.4321 -0.0540
 1316TIP3    H125363   4.922   3.019  14.036  0.3688  0.0414  0.0861
 1316TIP3    H225364   4.982   2.972  13.905 -0.2068 -0.9724  0.1792
 1317TIP3   OH225365   4.280   1.926   3.661  0.5565  0.1967 -0.4122
 1317TIP3    H125366   4.353   1.918   3.722 -0.5639  2.3233  1.3606
 1317TIP3    H225367   4.254   1.836   3.643  1.7107 -0.5261  1.2927
 1318TIP3   OH225368   4.009   3.946   6.064 -0.4173 -0.1300 -0.6150
 1318TIP3    H125369   4.088   3.978   6.019 -0.2256  0.0528 -0.1556
 1318TIP3    H225370   3.943   3.942   5.995  0.0696 -0.5787 -1.0722
 1319TIP3   OH225371   5.063   0.694  11.800  0.6925 -0.1203 -0.3009
 1319TIP3    H125372   5.146   0.650  11.783  0.6997 -0.2416  0.0345
 1319TIP3    H225373   5.088   0.773  11.848  0.6339 -0.0297 -0.4191
 1320TIP3   OH225374   2.836   2.603   1.882  0.2553 -0.0854  0.4986
 1320TIP3    H125375   2.869   2.672   1.824  0.2231 -0.3052  0.2207
 1320TIP3    H225376   2.884   2.525   1.856 -0.8988 -0.5523 -0.3202
 1321TIP3   OH225377   6.290   2.055   0.573 -0.0231  0.1989 -0.2433
 1321TIP3    H125378   6.309   1.964   0.597  2.1748  0.0772 -2.1073
 1321TIP3    H225379   6.294   2.102   0.657  0.5905 -1.1580  0.5388
 1322TIP3   OH225380   2.715   0.822  13.643  0.0957 -0.0395  0.5362
 1322TIP3    H125381   2.715   0.744  13.698 -0.3247  0.7476  1.6983
 1322TIP3    H225382   2.806   0.849  13.640 -0.0708  0.9621  2.4711
 1323TIP3   OH225383   0.831   2.828  16.547  0.1935 -0.1814  0.3623
 1323TIP3    H125384   0.774   2.855  16.475 -0.2347 -0.9867  0.3905
 1323TIP3    H225385   0.893   2.900  16.556  0.1994 -0.0170 -0.7576
 1324TIP3   OH225386   6.601   1.692   0.291 -0.0735  0.1495  0.4312
 1324TIP3    H125387   6.572   1.746   0.217  0.9803  0.9795  0.6022
 1324TIP3    H225388   6.566   1.605   0.272 -0.6466  0.5749 -0.5470
 1325TIP3   OH225389   5.889   3.016  12.601  0.1172 -0.2547  0.2381
 1325TIP3    H125390   5.878   3.094  12.656  1.9809  0.0334  0.2468
 1325TIP3    H225391   5.878   2.942  12.661 -1.5541 -0.0477  0.2489
 1326TIP3   OH225392   1.801   3.661   5.721 -0.3822 -0.6622  0.0257
 1326TIP3    H125393   1.715   3.674   5.762 -0.5525  0.5337 -0.6699
 1326TIP3    H225394   1.860   3.645   5.795 -0.5825  1.9269  0.8469
 1327TIP3   OH225395   5.438   3.340   1.503 -0.0098  0.4171  0.2657
 1327TIP3    H125396   5.345   3.361   1.494 -0.2645  0.1001  1.9662
 1327TIP3    H225397   5.470   3.400   1.571  0.9722  0.3159 -0.0882
 1328TIP3   OH225398   1.362   3.837  14.800  0.5072  0.1664  0.0968
 1328TIP3    H125399   1.338   3.882  14.720  2.6916  2.0224  0.3799
 1328TIP3    H225400   1.445   3.878  14.827  0.2294 -0.8841  2.9077
 1329TIP3   OH225401   6.275   1.168  16.110  0.4916 -0.3983 -0.0290
 1329TIP3    H125402   6.299   1.250  16.066  0.6510 -0.2602  0.3086
 1329TIP3    H225403   6.198   1.137  16.063 -0.8127  0.9965  1.1002
 1330TIP3   OH225404   3.827   4.165  12.167 -0.3889  0.3231 -0.0468
 1330TIP3    H125405   3.757   4.126  12.115 -0.4514  0.4871 -0.0874
 1330TIP3    H225406   3.907   4.146  12.117 -0.3724 -0.0934  0.1330
 1331TIP3   OH225407   0.490   5.297   5.686  0.1116  0.4567 -0.2072
 1331TIP3    H125408   0.472   5.326   5.775  0.1943  0.1836 -0.0978
 1331TIP3    H225409   0.508   5.377   5.637  0.0587  0.6082  0.0207
 1332TIP3   OH225410   4.067   6.255  15.065 -0.2379 -0.0777  0.1627
 1332TIP3    H125411   3.976   6.277  15.082  0.1431  1.4054  0.3808
 1332TIP3    H225412   4.076   6.260  14.969 -0.5489 -0.9872  0.0717
 1333TIP3   OH225413   6.109   6.010  15.424 -0.2085 -0.2531 -0.4199
 1333TIP3    H125414   6.137   5.999  15.514 -2.1569  0.1389  0.2887
 1333TIP3    H225415   6.018   6.039  15.430 -1.2646 -2.6578 -2.5102
 1334TIP3   OH225416   4.583   3.550  13.609  0.4762 -0.1300 -0.2307
 1334TIP3    H125417   4.646   3.534  13.679  1.5120 -0.3052 -1.1733
 1334TIP3    H225418   4.571   3.465  13.567 -0.7058 -0.1824  0.1691
 1335TIP3   OH225419   5.793   4.450   0.169 -0.3405 -0.2825  0.2921
 1335TIP3    H125420   5.830   4.492   0.247  2.4376 -0.3757 -0.8658
 1335TIP3    H225421   5.763   4.522   0.115 -0.1768 -0.0779  0.4702
 1336TIP3   OH225422   2.117   5.267  15.951 -0.3962  0.6818  0.2691
 1336TIP3    H125423   2.037   5.247  16.000 -1.7379  3.1559 -0.7381
 1336TIP3    H225424   2.170   5.319  16.011  0.7198 -1.2930  1.0782
 1337TIP3   OH225425   2.882   2.054  15.520 -0.3215 -0.1536  0.4239
 1337TIP3    H125426   2.851   2.144  15.514 -2.5254 -0.8103  0.9789
 1337TIP3    H225427   2.951   2.057  15.587  0.4824  1.2704 -0.4078
 1338TIP3   OH225428   6.078   4.951   2.691  0.5042  0.1162  0.2729
 1338TIP3    H125429   6.098   5.034   2.733 -0.8586  0.8364 -0.4139
 1338TIP3    H225430   6.008   4.912   2.744 -0.0544  0.2400 -0.3470
 1339TIP3   OH225431   4.120   2.120   3.445  0.3614  0.4080 -0.4300
 1339TIP3    H125432   4.150   2.196   3.396  0.3844 -0.4087 -1.7477
 1339TIP3    H225433   4.199   2.084   3.486  0.4379  0.7660 -0.2615
 1340TIP3   OH225434   6.053   3.821   5.825 -0.4216  0.3963 -0.1454
 1340TIP3    H125435   5.990   3.780   5.885  0.3871  0.4912  0.7890
 1340TIP3    H225436   6.105   3.748   5.792  1.4270  0.6498  1.9954
 1341TIP3   OH225437   2.860   3.665  12.457 -0.3773  0.1188  0.6598
 1341TIP3    H125438   2.809   3.667  12.376 -0.2083  1.6021  0.5466
 1341TIP3    H225439   2.950   3.653  12.427 -0.2883  0.8872  0.5864
 1342TIP3   OH225440   5.632   2.997   2.236 -0.3768  0.6221  0.1981
 1342TIP3    H125441   5.641   3.006   2.141 -0.0940  1.6165  0.3087
 1342TIP3    H225442   5.625   2.902   2.251  0.5990  0.3908 -0.7215
 1343TIP3   OH225443   5.423   0.124  15.394  0.1348 -0.4118  0.1487
 1343TIP3    H125444   5.484   0.169  15.451  0.9430 -1.3668  0.0687
 1343TIP3    H225445   5.374   0.193  15.350 -0.4313  0.3441  1.9057
 1344TIP3   OH225446   2.772   1.642  15.677  0.1305  0.2373 -0.1545
 1344TIP3    H125447   2.753   1.736  15.685 -0.0485  0.2872 -1.0769
 1344TIP3    H225448   2.830   1.623  15.752 -0.9455  0.7753  0.8488
 1345TIP3   OH225449   4.554   1.797  14.280  0.2184 -0.2464  0.3375
 1345TIP3    H125450   4.505   1.837  14.351  0.4833  0.5943  0.0652
 1345TIP3    H225451   4.488   1.758  14.223  0.0390 -1.4711  1.3430
 1346TIP3   OH225452   2.211   3.303  16.361  0.4786 -0.3672 -0.4652
 1346TIP3    H125453   2.199   3.380  16.306 -0.6496  0.8093  1.3270
 1346TIP3    H225454   2.123   3.268  16.373  0.1454  1.2870  3.0826
 1347TIP3   OH225455   1.075   2.925  16.253  0.2986  0.3443 -0.4651
 1347TIP3    H125456   0.985   2.955  16.265  0.1357 -0.4532  0.3960
 1347TIP3    H225457   1.068   2.830  16.243  1.1220  0.1385  0.6745
 1348TIP3   OH225458   4.330   6.588  15.279  0.4264  0.5172 -0.3232
 1348TIP3    H125459   4.412   6.571  15.232  0.0092  0.6081 -1.0955
 1348TIP3    H225460   4.321   6.684  15.278 -0.8016  0.4370 -2.2253
 1349TIP3   OH225461   4.718   1.933   5.207  0.4773  0.0553 -0.2403
 1349TIP3    H125462   4.708   1.994   5.133 -2.2314  0.3806  0.2983
 1349TIP3    H225463   4.701   1.986   5.284  2.2573 -0.5252  0.6093
 1350TIP3   OH225464   3.735   6.108  13.535 -0.4889  0.4394 -0.4079
 1350TIP3    H125465   3.791   6.064  13.599 -1.8587 -0.6143  0.1070
 1350TIP3    H225466   3.792   6.172  13.493  0.8014  0.1800  0.8903
 1351TIP3   OH225467   0.144   3.879   4.125  0.1541 -0.1432 -0.1856
 1351TIP3    H125468   0.188   3.834   4.052  0.2762 -0.7243  0.2348
 1351TIP3    H225469   0.206   3.872   4.197 -0.1320  0.0849  0.0819
 1352TIP3   OH225470   3.616   6.781  12.930 -0.0388 -0.2917 -0.1495
 1352TIP3    H125471   3.549   6.839  12.894  1.2080  1.6494  0.5397
 1352TIP3    H225472   3.684   6.777  12.863  0.8425  0.7829  0.6519
 1353TIP3   OH225473   0.377   0.144  15.716 -0.1700  0.2290  0.8663
 1353TIP3    H125474   0.406   0.235  15.724  0.6615  0.0538  0.0112
 1353TIP3    H225475   0.451   0.093  15.749 -0.9599 -0.1353  2.1568
 1354TIP3   OH225476   2.147   3.374  11.708 -0.1540  0.1017 -0.1385
 1354TIP3    H125477   2.172   3.451  11.759  0.5338 -0.4765  0.4129
 1354TIP3    H225478   2.220   3.313  11.719 -1.3472 -1.2466  0.6944
 1355TIP3   OH225479   2.729   5.576  14.072  0.5659 -0.0405  0.1196
 1355TIP3    H125480   2.718   5.668  14.097 -2.7060 -0.3968  0.4183
 1355TIP3    H225481   2.710   5.574  13.978  1.0303 -0.3700  0.0291
 1356TIP3   OH225482   3.035   0.274   0.672 -0.1112 -0.0163 -0.4799
 1356TIP3    H125483   2.995   0.323   0.600 -0.7181  3.3470  1.8975
 1356TIP3    H225484   2.961   0.230   0.715 -0.3998  1.1712  0.2945
 1357TIP3   OH225485   5.478   0.651   0.143 -0.3026  0.1245 -0.4472
 1357TIP3    H125486   5.455   0.609   0.227 -0.3076 -0.5677 -0.7838
 1357TIP3    H225487   5.562   0.693   0.159 -0.6449  0.6010  0.1110
 1358TIP3   OH225488   3.134   1.847  11.333  0.0420  0.0671  0.0498
 1358TIP3    H125489   3.054   1.831  11.282  0.3081  3.0450 -1.5136
 1358TIP3    H225490   3.194   1.777  11.306 -0.8320 -0.1235 -1.5235
 1359TIP3   OH225491   6.310   3.503  12.883  0.2583 -0.3849  0.3442
 1359TIP3    H125492   6.349   3.551  12.956  1.0903  2.0406 -1.5608
 1359TIP3    H225493   6.227   3.548  12.866 -0.4264 -1.5699  0.3768
 1360TIP3   OH225494   5.922   6.082  16.621 -0.2586  0.3179  0.5812
 1360TIP3    H125495   5.904   6.092  16.527  2.4017  0.1568 -0.0068
 1360TIP3    H225496   5.842   6.042  16.656 -1.4608  0.7185 -1.5219
 1361TIP3   OH225497   3.224   1.607  12.408  0.1180 -0.0899  0.4343
 1361TIP3    H125498   3.130   1.609  12.422  0.2828 -0.6426  1.7340
 1361TIP3    H225499   3.238   1.660  12.330 -1.4032 -1.2068 -0.6433
 1362TIP3   OH225500   4.427   6.622   4.553  0.2649 -0.5451  0.2275
 1362TIP3    H125501   4.486   6.555   4.520 -1.1443 -0.9557 -1.6588
 1362TIP3    H225502   4.383   6.582   4.627  0.0363 -1.4338 -0.3730
 1363TIP3   OH225503   4.554   4.306   4.501 -0.1570  0.6356 -0.0647
 1363TIP3    H125504   4.624   4.276   4.443 -0.8835 -0.6782 -0.3022
 1363TIP3    H225505   4.488   4.237   4.497 -1.9728  2.3288 -0.6769
 1364TIP3   OH225506   6.657   5.272  12.153  0.0553  0.3080  0.0095
 1364TIP3    H125507   6.675   5.249  12.244  1.6077  0.3782 -0.2667
 1364TIP3    H225508   6.635   5.189  12.112  1.6406 -0.1109 -0.0554
 1365TIP3   OH225509   0.395   0.731  16.711  0.2250 -0.3587 -0.1684
 1365TIP3    H125510   0.395   0.637  16.694  1.5473 -0.7087  1.4725
 1365TIP3    H225511   0.317   0.746  16.763  0.3157 -0.6607  0.0582
 1366TIP3   OH225512   0.545   3.141  12.479 -0.0941  0.4913  0.1903
 1366TIP3    H125513   0.608   3.070  12.469 -1.0542 -0.2413 -0.9902
 1366TIP3    H225514   0.462   3.105  12.446 -0.8947  1.7552  0.7257
 1367TIP3   OH225515   1.871   0.393  15.218 -0.0542  0.1486 -0.1983
 1367TIP3    H125516   1.938   0.355  15.275  0.5040 -0.9481 -1.5457
 1367TIP3    H225517   1.899   0.371  15.129 -2.1173 -0.2063 -0.8125
 1368TIP3   OH225518   3.428   6.255  13.178 -0.2779 -0.1424 -0.3251
 1368TIP3    H125519   3.406   6.349  13.180 -0.6885 -0.2395 -0.0505
 1368TIP3    H225520   3.426   6.232  13.085 -1.9985 -0.2839 -0.2852
 1369TIP3   OH225521   5.329   3.335   4.322 -0.0580  0.7521  0.2692
 1369TIP3    H125522   5.298   3.276   4.391  1.2619 -0.5861 -0.2413
 1369TIP3    H225523   5.367   3.409   4.369 -1.0523  0.8780  0.9219
 1370TIP3   OH225524   1.318   5.732   0.483 -0.0471 -0.1151  0.1485
 1370TIP3    H125525   1.296   5.793   0.554 -0.0515 -0.5911  0.5635
 1370TIP3    H225526   1.365   5.662   0.526  1.1296  0.2342 -0.5368
 1371TIP3   OH225527   0.791   1.380  13.729  0.7755 -0.5048  1.2026
 1371TIP3    H125528   0.808   1.287  13.717 -0.3480 -0.5831  0.0537
 1371TIP3    H225529   0.704   1.394  13.691  0.1257  0.6664  2.9661
 1372TIP3   OH225530   3.961   3.858   6.347 -0.3329  0.3708  0.8992
 1372TIP3    H125531   3.987   3.890   6.261  2.0526  1.1775  1.8385
 1372TIP3    H225532   4.042   3.825   6.386 -1.8115 -2.4008  1.8910
 1373TIP3   OH225533   3.981   1.146   3.942  0.0358  0.7090  0.1968
 1373TIP3    H125534   3.972   1.058   3.906 -1.2528  0.4987  0.9477
 1373TIP3    H225535   3.897   1.162   3.986  0.7231  1.8038  1.1681
 1374TIP3   OH225536   0.925   6.095   0.135 -0.0002 -0.1304 -0.3103
 1374TIP3    H125537   0.947   6.063   0.048 -0.3838 -0.9800 -0.0955
 1374TIP3    H225538   0.830   6.095   0.138 -0.0277  1.1262 -0.3310
 1375TIP3   OH225539   5.487   3.631  10.722 -0.2948  0.3208 -0.2576
 1375TIP3    H125540   5.428   3.678  10.781 -0.6839 -0.8160  0.2967
 1375TIP3    H225541   5.469   3.667  10.636 -2.1831 -0.3176 -0.1820
 1376TIP3   OH225542   0.639   2.239   5.257  0.7902  0.2934  0.5006
 1376TIP3    H125543   0.684   2.154   5.260  0.0619 -0.1386 -0.2442
 1376TIP3    H225544   0.624   2.262   5.349  1.6471 -0.0260  0.7268
 1377TIP3   OH225545   3.362   6.656   5.255 -0.2912 -0.5363 -0.2375
 1377TIP3    H125546   3.401   6.662   5.343 -0.0736  0.0524 -0.3674
 1377TIP3    H225547   3.329   6.567   5.249 -1.3632 -0.2395  0.8938
 1378TIP3   OH225548   0.067   0.707  14.487  0.4144  0.7030 -0.3065
 1378TIP3    H125549  -0.004   0.765  14.458 -2.2284 -1.8290  0.5049
 1378TIP3    H225550   0.049   0.624  14.443  1.9400 -0.4982  1.1971
 1379TIP3   OH225551   6.169   2.728  13.280 -0.4827 -0.1322  0.6161
 1379TIP3    H125552   6.186   2.708  13.188  2.0692  1.1113  0.7295
 1379TIP3    H225553   6.148   2.822  13.280  0.6248  0.1300  1.3769
 1380TIP3   OH225554   1.021   2.121  14.959  0.0011 -0.8324  0.5049
 1380TIP3    H125555   0.971   2.197  14.928  0.6454 -0.3223  0.7036
 1380TIP3    H225556   0.980   2.097  15.042 -1.7984 -2.2595 -0.7199
 1381TIP3   OH225557   0.151   3.718   5.134  0.2705 -0.0416  0.7510
 1381TIP3    H125558   0.172   3.790   5.193 -0.3799  0.1652  0.7379
 1381TIP3    H225559   0.181   3.747   5.048 -0.1324  0.2840  0.7172
 1382TIP3   OH225560   1.815   0.702   1.643 -0.8861  0.0910 -0.6379
 1382TIP3    H125561   1.906   0.706   1.613 -0.4191 -0.0577  0.6975
 1382TIP3    H225562   1.821   0.702   1.738 -2.1905 -2.0262 -0.5000
 1383TIP3   OH225563   5.179   3.291  16.281  0.1127 -0.7038 -0.0732
 1383TIP3    H125564   5.274   3.301  16.281  0.0286  0.2874 -1.0412
 1383TIP3    H225565   5.151   3.329  16.198 -1.1774 -0.4305  0.4639
 1384TIP3   OH225566   2.244   2.121  12.413  0.3846  0.0637  0.5696
 1384TIP3    H125567   2.157   2.107  12.451 -0.0869 -0.1982 -0.5596
 1384TIP3    H225568   2.301   2.138  12.488 -0.4959 -0.5003  1.3841
 1385TIP3   OH225569   0.604   0.985   4.938 -0.0738  0.1053 -0.2508
 1385TIP3    H125570   0.525   0.958   4.986 -0.2460  1.1722  0.1040
 1385TIP3    H225571   0.576   0.993   4.847 -0.4759  0.8056 -0.0743
 1386TIP3   OH225572   6.048   1.416  10.194 -0.0728  0.1246  0.7267
 1386TIP3    H125573   6.129   1.461  10.215 -0.3144  1.4179 -0.8581
 1386TIP3    H225574   6.003   1.476  10.133 -1.4053 -1.3249  0.2223
 1387TIP3   OH225575   6.068   1.919  12.738 -0.4178  0.0551 -0.4985
 1387TIP3    H125576   6.126   1.920  12.661 -1.7514 -0.3348 -1.5443
 1387TIP3    H225577   6.120   1.874  12.805 -0.0167 -1.6382 -1.8604
 1388TIP3   OH225578   2.016   4.113   0.570  0.2767  0.1120 -0.2893
 1388TIP3    H125579   1.949   4.181   0.560 -0.8450 -0.9611 -0.3227
 1388TIP3    H225580   2.031   4.108   0.664 -2.6566 -2.3128  0.2117
 1389TIP3   OH225581   3.034   1.609  15.866 -0.1870  0.1920  0.1735
 1389TIP3    H125582   3.009   1.629  15.957  3.5617 -0.8806  1.6235
 1389TIP3    H225583   3.020   1.514  15.858  0.2922  0.1425 -0.0868
 1390TIP3   OH225584   3.855   4.540   2.398  0.2407  0.1279 -0.0479
 1390TIP3    H125585   3.931   4.486   2.376 -0.1409 -0.3126 -0.3140
 1390TIP3    H225586   3.780   4.484   2.377 -0.1616 -0.2414  2.1115
 1391TIP3   OH225587   2.660   1.016  11.050  0.1978  0.1571  0.0864
 1391TIP3    H125588   2.655   0.947  10.983 -0.3414 -0.9065  1.1865
 1391TIP3    H225589   2.737   0.994  11.102 -0.3776 -0.0308  0.8736
 1392TIP3   OH225590   4.216   5.672   0.128  0.1517 -0.3357  0.4662
 1392TIP3    H125591   4.165   5.722   0.064 -1.1632 -1.6425  0.4426
 1392TIP3    H225592   4.219   5.727   0.206 -0.1914  0.3037  0.0313
 1393TIP3   OH225593   6.033   4.252   3.133 -0.5585  0.7539  0.0290
 1393TIP3    H125594   5.996   4.220   3.216 -0.3313 -0.3704 -0.2820
 1393TIP3    H225595   5.970   4.224   3.067  1.2267 -2.0794 -0.6276
 1394TIP3   OH225596   0.270   4.317   3.697 -0.2952 -0.5936 -0.5226
 1394TIP3    H125597   0.306   4.230   3.679 -0.1316 -0.2942 -1.7689
 1394TIP3    H225598   0.344   4.376   3.684 -0.9339 -0.0680 -2.0790
 1395TIP3   OH225599   2.739   1.043   1.613 -0.5255 -0.0097 -0.2270
 1395TIP3    H125600   2.738   1.027   1.518 -0.8624  0.5759 -0.3295
 1395TIP3    H225601   2.740   0.956   1.652  1.5563 -0.2906 -0.7837
 1396TIP3   OH225602   6.525   6.585   1.035  0.3802 -0.4926  0.4833
 1396TIP3    H125603   6.539   6.550   0.947 -1.0275 -2.0242  0.8192
 1396TIP3    H225604   6.462   6.525   1.075 -0.0042  0.9053  2.0943
 1397TIP3   OH225605   2.703   3.947   4.072  0.0369 -0.3359  0.5987
 1397TIP3    H125606   2.704   4.042   4.079  1.5315 -0.2102 -0.6822
 1397TIP3    H225607   2.787   3.919   4.106  0.1549 -1.0717 -0.2414
 1398TIP3   OH225608   2.279   1.677  15.927 -0.1854 -0.2224 -0.6689
 1398TIP3    H125609   2.334   1.618  15.979 -0.4541  0.5016  0.4743
 1398TIP3    H225610   2.311   1.765  15.950 -1.6680  0.2057 -0.1171
 1399TIP3   OH225611   4.268   1.127   0.580  0.3532  0.3780  0.2886
 1399TIP3    H125612   4.217   1.080   0.514  0.3346 -0.8191  1.1174
 1399TIP3    H225613   4.356   1.131   0.544  0.1684  0.4316 -0.1602
 1400TIP3   OH225614   6.808   0.117  16.514 -0.3358 -0.2230 -0.0037
 1400TIP3    H125615   6.750   0.105  16.439  1.3005  1.9691 -1.7344
 1400TIP3    H225616   6.779   0.199  16.553 -0.0023 -0.4263  0.6800
 1401TIP3   OH225617   0.814   1.195   3.487 -0.8293 -0.4622 -0.1728
 1401TIP3    H125618   0.785   1.199   3.396  1.8709  0.4018 -1.0910
 1401TIP3    H225619   0.904   1.163   3.482 -0.1440  0.9268  2.0716
 1402TIP3   OH225620   3.751   3.369  10.358  0.2384 -0.5277 -0.1362
 1402TIP3    H125621   3.718   3.316  10.286 -2.3858 -0.8461  1.2013
 1402TIP3    H225622   3.827   3.321  10.390  1.2457 -0.5619 -2.3755
 1403TIP3   OH225623   1.689   0.038   1.067  0.1953  0.1846  0.8070
 1403TIP3    H125624   1.642  -0.004   1.140 -2.1917 -1.1428 -1.3204
 1403TIP3    H225625   1.779   0.008   1.076 -0.5883 -2.1243  1.7364
 1404TIP3   OH225626   4.882   5.238   2.453 -0.2518  0.0458 -0.8109
 1404TIP3    H125627   4.949   5.297   2.487  1.2863  0.1543 -3.7463
 1404TIP3    H225628   4.809   5.246   2.515  1.0724  2.6278  0.5654
 1405TIP3   OH225629   2.190   2.362   5.234  0.6643  0.5850 -0.6154
 1405TIP3    H125630   2.125   2.361   5.304 -0.8687 -2.0548 -1.9438
 1405TIP3    H225631   2.270   2.327   5.274 -0.2643 -1.1532 -0.1822
 1406TIP3   OH225632   1.618   2.294   0.486 -0.3489 -0.1326 -0.0653
 1406TIP3    H125633   1.588   2.208   0.456 -1.2464  0.1462 -0.0108
 1406TIP3    H225634   1.625   2.346   0.405  0.3935 -0.3116 -0.1202
 1407TIP3   OH225635   1.678   6.409   1.101  0.3315 -0.2717 -0.1358
 1407TIP3    H125636   1.767   6.443   1.112  0.1441 -0.0080  0.6399
 1407TIP3    H225637   1.647   6.449   1.020  1.1729 -0.9353 -0.8089
 1408TIP3   OH225638   2.926   5.384   4.538  0.1514 -0.9835  0.0881
 1408TIP3    H125639   2.874   5.444   4.485  0.3375 -0.9720 -0.0847
 1408TIP3    H225640   2.912   5.413   4.628  0.7319 -0.2873 -0.0374
 1409TIP3   OH225641   2.533   1.333   3.400  0.1309 -0.3327  0.0367
 1409TIP3    H125642   2.625   1.324   3.427 -0.1494 -0.5869  0.9345
 1409TIP3    H225643   2.497   1.245   3.409 -0.5750  0.0512  1.1344
 1410TIP3   OH225644   6.480   2.299   1.256  0.1110 -0.3376  0.5971
 1410TIP3    H125645   6.517   2.210   1.255  0.5633 -0.1813 -1.7303
 1410TIP3    H225646   6.498   2.331   1.344  1.8239 -1.8021  0.8407
 1411TIP3   OH225647   2.591   5.163  14.645 -0.3079  0.1864 -1.1657
 1411TIP3    H125648   2.686   5.157  14.652 -0.3099  1.5690  0.4513
 1411TIP3    H225649   2.558   5.096  14.705 -0.3476  0.2843 -1.0776
 1412TIP3   OH225650   4.285   0.290   2.740 -0.0739  0.3258 -0.1079
 1412TIP3    H125651   4.231   0.369   2.751 -1.5503 -0.9335  2.7657
 1412TIP3    H225652   4.334   0.284   2.822  1.3408 -0.8508 -1.0023
 1413TIP3   OH225653   1.853   3.733  11.598  0.2628  0.6200  0.0046
 1413TIP3    H125654   1.938   3.768  11.623  0.7263 -0.3762 -0.1409
 1413TIP3    H225655   1.800   3.740  11.677 -0.0807  2.8176 -0.3443
 1414TIP3   OH225656   3.681   1.484   0.561 -0.4119  0.1807 -0.3604
 1414TIP3    H125657   3.640   1.563   0.526 -0.3256  0.9756  1.2230
 1414TIP3    H225658   3.699   1.505   0.653 -1.0167 -1.9420  0.3018
 1415TIP3   OH225659   1.839   3.430  15.041  0.6582 -0.0853 -0.1927
 1415TIP3    H125660   1.921   3.478  15.051 -0.4693  1.6229  1.9061
 1415TIP3    H225661   1.851   3.349  15.091  0.6344  0.8416  1.3841
 1416TIP3   OH225662   4.956   3.088  16.168  0.0889  0.6880 -0.4449
 1416TIP3    H125663   4.867   3.054  16.171  0.3191 -0.0925 -1.6648
 1416TIP3    H225664   4.948   3.175  16.128 -0.1278  0.6176 -0.5538
 1417TIP3   OH225665   5.412   0.651  12.174  0.7123  0.0126 -0.2073
 1417TIP3    H125666   5.469   0.639  12.097  0.5279 -0.1656 -0.3166
 1417TIP3    H225667   5.327   0.617  12.146  0.4733  0.5352 -0.1427
 1418TIP3   OH225668   3.000   5.492  10.601 -0.3927  0.2280  0.4942
 1418TIP3    H125669   2.960   5.473  10.686  0.2641  1.6740  1.1639
 1418TIP3    H225670   2.982   5.585  10.587  0.1258  0.1741 -0.6293
 1419TIP3   OH225671   2.139   3.917   1.358  0.3086 -0.5341  0.0750
 1419TIP3    H125672   2.229   3.910   1.325 -0.1941 -1.0182 -1.2812
 1419TIP3    H225673   2.096   3.839   1.323 -0.5984 -0.3945  0.8667
 1420TIP3   OH225674   2.498   0.402  11.102  0.6979 -0.3339  0.0263
 1420TIP3    H125675   2.429   0.336  11.111  2.0636 -2.0140 -1.1784
 1420TIP3    H225676   2.458   0.471  11.049  0.0177 -1.4540 -0.9825
 1421TIP3   OH225677   4.816   0.686  15.893  0.0371 -0.1837  0.0270
 1421TIP3    H125678   4.866   0.605  15.878  0.0145 -0.6325  2.0815
 1421TIP3    H225679   4.739   0.657  15.941 -0.6716  0.9132 -0.4306
 1422TIP3   OH225680   1.501   1.066   1.613 -0.0074  0.0526 -0.0070
 1422TIP3    H125681   1.528   1.151   1.579  1.8142 -0.8528 -0.9371
 1422TIP3    H225682   1.454   1.086   1.694  0.1169  1.9399 -0.3631
 1423TIP3   OH225683   4.966   3.617  12.263  0.2067  0.0721 -0.6377
 1423TIP3    H125684   4.918   3.582  12.188 -1.1444  0.2316  0.1151
 1423TIP3    H225685   4.925   3.703  12.280  0.7624  0.2205  0.0207
 1424TIP3   OH225686   4.086   1.696  11.982  0.0879 -0.2670  0.0266
 1424TIP3    H125687   4.084   1.774  11.927  0.1998 -1.3325 -1.5510
 1424TIP3    H225688   4.108   1.625  11.922  0.4472 -1.4541  1.5012
 1425TIP3   OH225689   5.676   4.382  14.795  0.5334 -0.0086  0.3887
 1425TIP3    H125690   5.674   4.474  14.767  0.6938 -0.3929 -0.9607
 1425TIP3    H225691   5.595   4.345  14.760 -0.7354  0.1377  2.9651
 1426TIP3   OH225692   1.006   3.496   4.424  0.1739 -0.5670  0.4200
 1426TIP3    H125693   0.990   3.516   4.516  0.6562 -2.0609  0.8545
 1426TIP3    H225694   0.951   3.419   4.406  2.3012 -2.1507  0.3295
 1427TIP3   OH225695   1.999   4.993   3.096  0.1126  0.6269  0.1736
 1427TIP3    H125696   1.996   5.007   3.001  1.4819 -0.9570 -0.1481
 1427TIP3    H225697   1.939   4.920   3.111  0.3239  0.5076  0.4442
 1428TIP3   OH225698   1.485   6.653  16.376  0.5825 -0.1360  0.2244
 1428TIP3    H125699   1.512   6.614  16.293 -0.6213  2.2524 -1.4392
 1428TIP3    H225700   1.406   6.605  16.401 -0.2288  0.4084 -1.1696
 1429TIP3   OH225701   4.526   5.802  11.781 -0.1325  0.2496  0.6761
 1429TIP3    H125702   4.534   5.897  11.784 -0.9739  0.5708 -2.6165
 1429TIP3    H225703   4.592   5.774  11.718 -0.4058 -1.2561  1.0159
 1430TIP3   OH225704   4.606   4.667  14.133 -0.4223 -0.1624 -0.1500
 1430TIP3    H125705   4.537   4.727  14.161 -0.0381 -0.1395  0.8054
 1430TIP3    H225706   4.634   4.623  14.214 -0.0734 -0.9659 -0.6894
 1431TIP3   OH225707   3.400   0.778   3.799 -0.6577  0.5321 -1.1195
 1431TIP3    H125708   3.365   0.700   3.843  1.8501 -1.7867 -2.9421
 1431TIP3    H225709   3.329   0.806   3.741 -1.4942 -0.6001 -0.6755
 1432TIP3   OH225710   4.055   1.936   1.246  0.0602  0.0376 -0.0152
 1432TIP3    H125711   4.015   1.934   1.159  1.7946  3.6830 -1.0948
 1432TIP3    H225712   4.149   1.937   1.229  0.4482  0.1673  1.9287
 1433TIP3   OH225713   2.079   2.871  12.979  0.4326 -0.2847  0.0461
 1433TIP3    H125714   2.013   2.802  12.974  0.5865 -0.3936 -0.5438
 1433TIP3    H225715   2.146   2.845  12.916  0.4865  0.3985 -0.1918
 1434TIP3   OH225716   6.300   2.088   3.363  0.4968 -0.2268 -0.3998
 1434TIP3    H125717   6.275   2.154   3.299 -1.5257 -0.0933  0.4413
 1434TIP3    H225718   6.318   2.137   3.443  0.0100 -0.5881 -0.0569
 1435TIP3   OH225719   5.915   0.374  11.159  0.0193  0.1365 -0.1299
 1435TIP3    H125720   6.007   0.358  11.180  0.3886  0.7313 -1.2264
 1435TIP3    H225721   5.901   0.466  11.183  0.6734  1.0913 -3.0349
 1436TIP3   OH225722   2.126   1.050  13.347 -0.6226  0.5084  0.6870
 1436TIP3    H125723   2.166   1.118  13.402  1.5213 -0.5377  0.5353
 1436TIP3    H225724   2.162   1.066  13.260 -0.1693 -0.7360  0.6366
 1437TIP3   OH225725   6.387   1.373  15.975 -0.3826  0.2191 -0.1677
 1437TIP3    H125726   6.456   1.412  16.030 -1.6826  1.5140  0.6330
 1437TIP3    H225727   6.319   1.440  15.972 -1.5219 -0.9364 -1.1246
 1438TIP3   OH225728   6.376   0.839   0.912  0.0492 -0.0525 -0.1200
 1438TIP3    H125729   6.457   0.824   0.863  0.9839  1.4669  0.8750
 1438TIP3    H225730   6.394   0.807   1.000 -1.2950 -1.8794 -0.4385
 1439TIP3   OH225731   3.671   5.495   1.356  0.2531  0.7113  0.2322
 1439TIP3    H125732   3.606   5.558   1.323 -0.1323  0.0164 -0.3552
 1439TIP3    H225733   3.756   5.536   1.335  0.0163  1.3835  0.5415
 1440TIP3   OH225734   2.548   6.760  10.923  0.2674 -0.5836  0.8309
 1440TIP3    H125735   2.570   6.809  10.844 -0.6933 -0.4480  0.6307
 1440TIP3    H225736   2.463   6.720  10.904  0.2927 -1.0249  1.5817
 1441TIP3   OH225737   1.147   6.590  11.199 -0.3364  0.1177 -0.1993
 1441TIP3    H125738   1.229   6.546  11.222  0.9062  0.3786 -3.5290
 1441TIP3    H225739   1.084   6.519  11.189 -0.0924 -0.2467  0.7196
 1442TIP3   OH225740   1.977   3.159  12.463 -1.1103  0.5115  0.1145
 1442TIP3    H125741   2.071   3.138  12.459 -1.1243  0.4725 -0.0185
 1442TIP3    H225742   1.971   3.228  12.528 -0.5679  2.7607 -2.0663
 1443TIP3   OH225743   2.735   4.466  10.960  0.3306  0.1407 -0.4105
 1443TIP3    H125744   2.694   4.550  10.937 -0.4970 -0.1744 -0.1352
 1443TIP3    H225745   2.676   4.400  10.923  0.0118 -0.3371  0.8942
 1444TIP3   OH225746   3.038   1.899   1.310  0.4347 -0.4996  0.1539
 1444TIP3    H125747   3.015   1.808   1.294  1.3010 -0.4430 -1.6350
 1444TIP3    H225748   3.040   1.907   1.406 -0.6171 -2.0797  0.3439
 1445TIP3   OH225749   5.993   3.644   4.595  0.2781  0.0006 -0.3314
 1445TIP3    H125750   6.088   3.635   4.599  0.3338  0.6928  2.3543
 1445TIP3    H225751   5.978   3.733   4.563  0.7514  1.2647  2.6407
 1446TIP3   OH225752   2.452   2.215  11.824 -0.4732  0.0671 -0.2532
 1446TIP3    H125753   2.539   2.189  11.794 -0.1965  1.5002 -0.7566
 1446TIP3    H225754   2.451   2.192  11.917  0.4894  0.1382 -0.2151
 1447TIP3   OH225755   5.598   1.094   0.439  0.3345 -0.2033 -0.3575
 1447TIP3    H125756   5.625   1.037   0.510  2.2447  0.0785 -0.8099
 1447TIP3    H225757   5.514   1.131   0.468  1.0076 -0.1749  1.6980
 1448TIP3   OH225758   2.880   3.949  16.367 -0.1515  0.4008  0.4294
 1448TIP3    H125759   2.954   4.004  16.393  0.6328 -1.0268  1.3359
 1448TIP3    H225760   2.870   3.887  16.439 -0.5438 -1.0961 -0.8774
 1449TIP3   OH225761   3.256   3.490  16.265  0.4147  0.2322 -0.4508
 1449TIP3    H125762   3.304   3.423  16.217  0.3980  0.4645 -0.7916
 1449TIP3    H225763   3.306   3.500  16.347  2.1139  1.8327 -1.5845
 1450TIP3   OH225764   0.339   2.835   3.072 -0.6044 -0.2018 -0.3560
 1450TIP3    H125765   0.247   2.831   3.098 -0.5253  0.3250  0.0176
 1450TIP3    H225766   0.367   2.924   3.093  0.3049 -0.6830  0.6043
 1451TIP3   OH225767   0.044   3.798  16.093 -0.0850  0.4774 -0.1168
 1451TIP3    H125768  -0.027   3.845  16.050  0.5158  0.7354 -0.8508
 1451TIP3    H225769   0.015   3.707  16.098  0.0184  0.3468 -1.5037
 1452TIP3   OH225770   2.685   2.346  11.313  0.0243 -0.0034  0.2756
 1452TIP3    H125771   2.672   2.367  11.406  1.3176  0.3628  0.3896
 1452TIP3    H225772   2.616   2.395  11.268 -0.3373  0.1785  0.9990
 1453TIP3   OH225773   6.127   1.288  16.442 -0.0513 -0.0673 -0.3912
 1453TIP3    H125774   6.182   1.299  16.520  0.5786 -2.5090 -0.3966
 1453TIP3    H225775   6.047   1.246  16.475 -0.5024  0.4418 -0.8338
 1454TIP3   OH225776   6.127   4.107  15.880 -0.1622 -0.0472 -0.5239
 1454TIP3    H125777   6.083   4.160  15.946  0.4074 -2.2144  1.7582
 1454TIP3    H225778   6.219   4.105  15.908  0.4259  0.2491 -2.3030
 1455TIP3   OH225779   3.443   0.041   0.749 -0.1604  0.3959 -0.5334
 1455TIP3    H125780   3.362   0.062   0.701 -0.0671  0.7053 -0.5586
 1455TIP3    H225781   3.486  -0.024   0.695 -0.8717 -0.5220 -0.0283
 1456TIP3   OH225782   2.186   1.409  12.422 -0.1740 -0.3172  0.0779
 1456TIP3    H125783   2.259   1.376  12.369 -1.6032 -1.5435 -1.2129
 1456TIP3    H225784   2.142   1.330  12.453  0.7354  0.3413  3.4158
 1457TIP3   OH225785   2.752   1.926   1.210  0.2555  0.0778  0.1039
 1457TIP3    H125786   2.808   1.999   1.236 -0.2612  1.0748 -1.4477
 1457TIP3    H225787   2.665   1.948   1.243 -0.7188  2.0179 -3.2661
 1458TIP3   OH225788   5.454   0.967   4.018 -0.2655 -0.1558  0.2065
 1458TIP3    H125789   5.389   0.966   3.949  0.2143 -2.0725 -0.2841
 1458TIP3    H225790   5.520   0.903   3.990  0.7402  0.1755  1.6864
 1459TIP3   OH225791   3.786   1.104   5.004 -0.0772 -0.2916  0.4818
 1459TIP3    H125792   3.726   1.132   5.074  1.4658  1.0428  1.3344
 1459TIP3    H225793   3.867   1.152   5.021  0.0115  1.0322 -2.9129
 1460TIP3   OH225794   0.355   6.417  13.309  0.3266 -0.0638  0.4149
 1460TIP3    H125795   0.410   6.442  13.235  1.3662 -0.3298  1.0822
 1460TIP3    H225796   0.266   6.428  13.277  0.7246 -1.4619 -1.3290
 1461TIP3   OH225797   0.336   4.152  10.265 -0.6509 -0.4080  0.4963
 1461TIP3    H125798   0.360   4.134  10.174 -1.8344 -0.3850  0.1693
 1461TIP3    H225799   0.337   4.248  10.271 -0.0985 -0.4194  0.6471
 1462TIP3   OH225800   6.302   4.151   3.213 -0.2911 -0.4121  0.4862
 1462TIP3    H125801   6.344   4.236   3.200  0.1740 -0.8669 -1.2373
 1462TIP3    H225802   6.224   4.154   3.157  0.7741 -1.7926 -1.1848
 1463TIP3   OH225803   5.278   1.736   1.844  0.3128 -0.2091 -0.7057
 1463TIP3    H125804   5.343   1.696   1.902 -0.8190  1.6719  2.0727
 1463TIP3    H225805   5.211   1.668   1.833  0.6680 -0.6893  0.0129
 1464TIP3   OH225806   1.974   6.507   4.401  0.5648  0.4391 -0.3099
 1464TIP3    H125807   2.034   6.497   4.328 -0.6194  2.0249 -1.5812
 1464TIP3    H225808   2.027   6.543   4.472  1.0786  2.1699 -1.5224
 1465TIP3   OH225809   3.891   4.981  11.922 -0.3118 -0.0818 -0.5173
 1465TIP3    H125810   3.836   4.903  11.913 -0.4277 -0.0546 -0.0508
 1465TIP3    H225811   3.836   5.053  11.893  0.1636 -0.2918 -2.0578
 1466TIP3   OH225812   5.665   1.475   2.580 -1.0532 -0.1582  0.2936
 1466TIP3    H125813   5.759   1.489   2.566 -0.6721 -1.8460  0.9866
 1466TIP3    H225814   5.647   1.391   2.539 -2.8011  1.1810 -1.9304
 1467TIP3   OH225815   4.717   1.704   4.932  0.8226  0.1241  0.1872
 1467TIP3    H125816   4.808   1.732   4.919  0.6437  0.5942 -0.0461
 1467TIP3    H225817   4.672   1.782   4.962 -0.0674  0.5647 -2.1372
 1468TIP3   OH225818   3.759   4.398   2.925  0.0617  0.0601  0.2927
 1468TIP3    H125819   3.714   4.482   2.913 -1.9198 -0.6323  2.2756
 1468TIP3    H225820   3.735   4.347   2.849 -3.6624 -0.6892  1.7864
 1469TIP3   OH225821   6.375   0.469  10.411 -0.2914  0.2246  0.2756
 1469TIP3    H125822   6.353   0.562  10.410 -0.1306  0.2623  0.0833
 1469TIP3    H225823   6.291   0.425  10.399 -0.2942  0.3604 -0.2220
 1470TIP3   OH225824   2.485   5.697   4.716  0.2331  0.6512  0.1780
 1470TIP3    H125825   2.491   5.738   4.630  0.1680  1.7198  0.6539
 1470TIP3    H225826   2.447   5.611   4.700 -2.4437  1.8693 -0.5782
 1471TIP3   OH225827   1.883   2.682  12.982 -0.4717 -0.3452  0.7890
 1471TIP3    H125828   1.795   2.717  12.975  0.2927  1.3118 -1.7062
 1471TIP3    H225829   1.892   2.622  12.908  0.3270 -1.0194  1.3938
 1472TIP3   OH225830   6.738   0.839  11.137  0.1880 -0.0923  0.0398
 1472TIP3    H125831   6.775   0.881  11.214  1.0165 -0.3824 -0.1953
 1472TIP3    H225832   6.812   0.797  11.094 -0.1150  0.7457 -1.3516
 1473TIP3   OH225833   3.624   4.720   6.180  0.2631 -0.0643  0.1535
 1473TIP3    H125834   3.563   4.646   6.173  0.9726 -0.5545 -1.0646
 1473TIP3    H225835   3.661   4.712   6.268 -1.2960  0.1654  0.8783
 1474TIP3   OH225836   6.458   3.208  16.255 -0.1226  0.4570 -0.0645
 1474TIP3    H125837   6.537   3.243  16.215 -0.4311  1.7033  0.3673
 1474TIP3    H225838   6.457   3.116  16.230  2.2640  0.0205  1.1617
 1475TIP3   OH225839   3.709   5.688  11.388  0.3944 -0.0772 -0.7040
 1475TIP3    H125840   3.691   5.596  11.369 -0.3644 -0.5963  2.0848
 1475TIP3    H225841   3.623   5.729  11.391  0.5695  0.2345  0.1882
 1476TIP3   OH225842   1.495   4.182   2.366  0.0400  0.0313 -0.5808
 1476TIP3    H125843   1.401   4.162   2.366 -0.1012  0.6408 -0.9249
 1476TIP3    H225844   1.533   4.120   2.304 -0.3628  0.6749 -1.5071
 1477TIP3   OH225845   1.871   2.992  10.403 -0.1032 -0.0756  0.0084
 1477TIP3    H125846   1.879   3.079  10.365 -0.0021  0.5692  1.4367
 1477TIP3    H225847   1.777   2.978  10.412 -0.1804 -0.7225 -1.4965
 1478TIP3   OH225848   2.240   2.923   5.304  0.8483  0.3905  0.2953
 1478TIP3    H125849   2.188   2.941   5.382 -0.6320  1.7689 -0.9542
 1478TIP3    H225850   2.251   2.828   5.304  1.0534  0.3680  2.2465
 1479TIP3   OH225851   0.041   4.707   0.085 -0.4356 -0.0123  0.5313
 1479TIP3    H125852   0.056   4.801   0.069 -1.5683 -0.4452 -5.3418
 1479TIP3    H225853   0.122   4.664   0.057 -1.3767 -0.8466 -1.0895
 1480TIP3   OH225854   4.065   5.889   4.330 -0.3988 -0.5426 -0.4010
 1480TIP3    H125855   4.038   5.815   4.276 -0.3180 -1.1357  0.3463
 1480TIP3    H225856   3.999   5.894   4.399  1.0059 -1.6280  1.0974
 1481TIP3   OH225857   2.564   3.403   0.072  0.3517  0.0386 -0.3637
 1481TIP3    H125858   2.491   3.399   0.011  0.7449  2.3815 -1.0685
 1481TIP3    H225859   2.631   3.347   0.033 -0.1775 -0.1859 -0.9698
 1482TIP3   OH225860   2.489   5.709   5.206 -0.1210  0.4372 -0.5423
 1482TIP3    H125861   2.579   5.675   5.213 -0.3327  0.0532  0.4724
 1482TIP3    H225862   2.494   5.774   5.136  1.0186  0.6145 -0.3272
 1483TIP3   OH225863   6.456   3.153   5.921  0.3316 -0.4583 -0.2074
 1483TIP3    H125864   6.369   3.189   5.904  0.5203 -0.2891 -0.8527
 1483TIP3    H225865   6.467   3.160   6.015  0.1015  0.5906 -0.2444
 1484TIP3   OH225866   5.291   2.416   5.317 -0.8483 -0.2071 -0.0824
 1484TIP3    H125867   5.333   2.349   5.262  0.1760  1.9351 -2.0945
 1484TIP3    H225868   5.304   2.385   5.407  0.4085 -2.2153 -0.8870
 1485TIP3   OH225869   0.679   6.168   2.891  0.0463  0.4025  0.0003
 1485TIP3    H125870   0.692   6.073   2.888 -2.3609 -0.0044  0.6826
 1485TIP3    H225871   0.729   6.197   2.968  0.0597 -0.4369  0.3175
 1486TIP3   OH225872   1.353   1.239   5.024  0.3024 -0.1909 -0.1227
 1486TIP3    H125873   1.300   1.272   5.096  0.3810  1.7227 -0.8804
 1486TIP3    H225874   1.302   1.165   4.989 -0.8625  0.3098  0.4424
 1487TIP3   OH225875   2.931   3.079  15.673  0.0486 -0.3550 -0.1536
 1487TIP3    H125876   2.848   3.038  15.695 -0.8434  0.6170 -1.5660
 1487TIP3    H225877   2.928   3.165  15.715 -0.0650  0.0389 -0.9477
 1488TIP3   OH225878   6.289   0.987   1.895 -0.3325  0.0272  0.0581
 1488TIP3    H125879   6.266   0.946   1.811  0.6540 -0.1497 -0.1391
 1488TIP3    H225880   6.365   0.937   1.926 -0.6562  0.1241  1.0373
 1489TIP3   OH225881   1.637   2.544  16.536 -0.0969 -0.5097 -0.1750
 1489TIP3    H125882   1.730   2.563  16.531  0.0903 -1.7173 -3.0677
 1489TIP3    H225883   1.631   2.468  16.594  0.6323 -0.0131  0.5654
 1490TIP3   OH225884   2.309   2.746   4.338  0.5030  0.6205  0.1794
 1490TIP3    H125885   2.336   2.767   4.248 -0.2879  2.9152  0.3962
 1490TIP3    H225886   2.220   2.779   4.344 -0.3297 -1.6323  1.1702
 1491TIP3   OH225887   6.010   4.690   5.977 -0.0644 -0.3901 -0.1557
 1491TIP3    H125888   6.092   4.671   6.021  0.2977 -1.8919 -1.3794
 1491TIP3    H225889   5.950   4.717   6.047  1.4155  0.6183  0.7566
 1492TIP3   OH225890   4.877   1.492  15.694 -0.3409 -0.6719  0.1691
 1492TIP3    H125891   4.908   1.559  15.756 -0.6579  1.1735 -1.5612
 1492TIP3    H225892   4.783   1.484  15.712  0.0271 -2.1535  1.6747
 1493TIP3   OH225893   2.676   1.314   0.038  0.3130 -0.0825  0.3372
 1493TIP3    H125894   2.651   1.241  -0.019 -1.7122 -0.7896  1.9734
 1493TIP3    H225895   2.701   1.272   0.120  0.4208  1.0254  0.8812
 1494TIP3   OH225896   3.077   4.352   5.677 -0.6016  0.2051 -0.4293
 1494TIP3    H125897   2.999   4.298   5.659  0.2090 -0.8472 -0.8695
 1494TIP3    H225898   3.050   4.409   5.749 -2.3201  1.0351 -1.6639
 1495TIP3   OH225899   4.915   3.221  13.799  0.0675 -0.1679 -0.1371
 1495TIP3    H125900   4.989   3.217  13.738 -0.1201 -1.9348 -0.2876
 1495TIP3    H225901   4.956   3.233  13.885  0.3634  1.6353 -0.4912
 1496TIP3   OH225902   2.945   2.756   0.208 -0.3372  0.5125  0.1840
 1496TIP3    H125903   2.905   2.675   0.238 -1.2592  1.0466  0.4676
 1496TIP3    H225904   3.013   2.729   0.147  0.7596 -0.5524  1.8094
 1497TIP3   OH225905   0.761   4.264   5.651 -0.5371  0.0318 -0.6477
 1497TIP3    H125906   0.772   4.217   5.734 -1.2995  0.5330 -0.2529
 1497TIP3    H225907   0.787   4.354   5.671 -0.9389  0.2045 -0.8958
 1498TIP3   OH225908   1.372   1.065  13.334 -0.0420  0.1982  0.1952
 1498TIP3    H125909   1.456   1.085  13.294 -0.7737  0.6966 -1.1411
 1498TIP3    H225910   1.314   1.137  13.307 -1.1563 -0.6498  0.2566
 1499TIP3   OH225911   0.525   5.489   5.001 -0.2144 -0.4461  0.6111
 1499TIP3    H125912   0.497   5.579   5.015  1.5201  0.6266 -1.9602
 1499TIP3    H225913   0.456   5.450   4.949 -0.9312 -0.6106  1.6590
 1500TIP3   OH225914   2.930   2.967  13.408 -0.0378 -0.4447  0.1991
 1500TIP3    H125915   2.835   2.960  13.419 -0.2062  1.9034  0.8199
 1500TIP3    H225916   2.966   2.925  13.486 -0.6006 -0.6900  0.3333
 1501TIP3   OH225917   3.453   2.746  13.098  0.0522  0.4236  0.7402
 1501TIP3    H125918   3.434   2.804  13.172  1.4243  1.5932  0.2216
 1501TIP3    H225919   3.432   2.798  13.021 -0.4669 -0.4532  0.2813
 1502TIP3   OH225920   6.456   0.918  11.197  0.1489  0.2030  0.3385
 1502TIP3    H125921   6.541   0.896  11.159  0.2601  0.2226  0.5704
 1502TIP3    H225922   6.394   0.911  11.125  0.1169 -1.2062  0.4733
 1503TIP3   OH225923   5.174   1.701   4.335 -0.7878 -0.4584  0.5125
 1503TIP3    H125924   5.138   1.683   4.422 -0.7417  0.2469  0.6839
 1503TIP3    H225925   5.195   1.795   4.336 -0.2468 -0.5629 -0.0594
 1504TIP3   OH225926   2.492   6.857  12.663 -0.0210 -0.2063 -0.0674
 1504TIP3    H125927   2.489   6.914  12.586 -2.7736 -0.7358 -0.4872
 1504TIP3    H225928   2.546   6.904  12.726  0.2701  1.4236 -1.4674
 1505TIP3   OH225929   0.919   4.222   5.045 -0.6826 -0.0086 -0.7751
 1505TIP3    H125930   0.938   4.128   5.051  1.7991  0.5060  0.9211
 1505TIP3    H225931   0.824   4.228   5.053 -0.6983 -2.2185  2.8025
 1506TIP3   OH225932   0.388   6.160  15.490 -0.0272  0.2424  0.3953
 1506TIP3    H125933   0.334   6.163  15.569  0.2662  0.7178  0.5842
 1506TIP3    H225934   0.326   6.179  15.419 -0.3405 -0.4376  0.4737
 1507TIP3   OH225935   2.864   0.183   3.580  0.7031  0.1808  0.2609
 1507TIP3    H125936   2.883   0.090   3.567  0.9706  0.3435 -0.5849
 1507TIP3    H225937   2.795   0.203   3.517  0.7062  0.5673  0.3750
 1508TIP3   OH225938   5.320   2.101   0.839 -0.3132  0.1803 -0.0602
 1508TIP3    H125939   5.406   2.063   0.825 -0.3837  0.1570 -0.4550
 1508TIP3    H225940   5.317   2.175   0.779 -1.6319 -1.4952 -2.2262
 1509TIP3   OH225941   4.965   6.682   9.812 -0.4110 -0.9896  0.0223
 1509TIP3    H125942   5.024   6.719   9.878  0.4173  0.5169 -1.4786
 1509TIP3    H225943   4.886   6.735   9.817 -0.0835 -0.4264 -0.6313
 1510TIP3   OH225944   0.294   4.402  16.028  0.3284 -0.3001 -0.1819
 1510TIP3    H125945   0.237   4.451  15.970  0.3488  0.0676  0.1066
 1510TIP3    H225946   0.355   4.467  16.064 -0.8144 -0.1634  1.6448
 1511TIP3   OH225947   3.586   6.268   3.888  0.2892 -0.3328  0.4371
 1511TIP3    H125948   3.589   6.362   3.906 -0.6308 -0.3728  0.8574
 1511TIP3    H225949   3.675   6.246   3.861 -0.0708  1.1613 -2.3076
 1512TIP3   OH225950   5.882   5.397   5.874 -0.3435  0.1798  0.1943
 1512TIP3    H125951   5.833   5.329   5.828  1.8313  0.1903 -2.3349
 1512TIP3    H225952   5.905   5.356   5.958 -2.4108 -0.7035  0.4023
 1513TIP3   OH225953   6.629   2.019  12.177  0.4191  0.3050 -0.4695
 1513TIP3    H125954   6.708   1.968  12.162  0.7859 -0.2200  2.5384
 1513TIP3    H225955   6.557   1.958  12.159  0.7198  0.1944 -1.3448
 1514TIP3   OH225956   1.126   1.950  14.728 -0.0391 -0.0602  0.7354
 1514TIP3    H125957   1.214   1.978  14.706 -0.1767 -0.8291 -0.9085
 1514TIP3    H225958   1.093   2.018  14.788  1.2005  0.8896  0.3669
 1515TIP3   OH225959   0.181   4.773  14.410 -0.0500  0.2956  0.5137
 1515TIP3    H125960   0.205   4.857  14.371  0.1957 -0.4513 -1.0078
 1515TIP3    H225961   0.130   4.728  14.342 -4.3134  1.0291  2.8950
 1516TIP3   OH225962   3.397   4.464   2.099 -0.1220 -0.3372  0.1612
 1516TIP3    H125963   3.364   4.504   2.018 -0.5385 -2.5601 -0.8249
 1516TIP3    H225964   3.447   4.388   2.070  2.6474  0.6848  1.8626
 1517TIP3   OH225965   1.203   6.379  13.040  0.2446 -0.7899 -0.1956
 1517TIP3    H125966   1.140   6.320  13.000 -0.6249 -0.8501  1.1998
 1517TIP3    H225967   1.203   6.355  13.133 -0.0156  1.2657  0.3887
 1518TIP3   OH225968   5.549   1.058  13.808  0.4720  0.2288 -0.9735
 1518TIP3    H125969   5.573   1.115  13.735  0.4547  3.6121  1.3931
 1518TIP3    H225970   5.633   1.026  13.841  0.7552  1.2265 -0.6741
 1519TIP3   OH225971   4.374   6.374  13.873  0.1848  0.2360  0.2853
 1519TIP3    H125972   4.282   6.369  13.847 -0.1809 -0.3756  1.5841
 1519TIP3    H225973   4.421   6.324  13.806  0.1722  3.8699 -2.6978
 1520TIP3   OH225974   6.376   0.130   3.361  0.6617 -0.2554 -0.3320
 1520TIP3    H125975   6.379   0.089   3.447 -2.1708  0.4119  0.2127
 1520TIP3    H225976   6.303   0.087   3.317  1.6648 -0.1493 -2.1855
 1521TIP3   OH225977   2.547   1.050  11.913 -0.5115  0.0585  0.3107
 1521TIP3    H125978   2.492   1.116  11.869  0.7944  1.0072  0.0434
 1521TIP3    H225979   2.502   1.033  11.996 -1.4677  0.4466 -0.1155
 1522TIP3   OH225980   4.082   3.780  12.533 -0.0774  0.4632  0.6737
 1522TIP3    H125981   4.160   3.823  12.567  1.2971 -1.0719 -0.3546
 1522TIP3    H225982   4.040   3.742  12.610 -0.1542  1.7935  1.3103
 1523TIP3   OH225983   0.263   5.627   3.335  0.6405  0.1099  0.2457
 1523TIP3    H125984   0.346   5.589   3.364  1.0368  0.4346 -0.4384
 1523TIP3    H225985   0.197   5.561   3.355  1.1287 -0.3331  0.3850
 1524TIP3   OH225986   3.152   6.070  11.269 -0.3728 -0.6450 -0.1612
 1524TIP3    H125987   3.198   6.111  11.342  0.9009  0.1476 -1.3500
 1524TIP3    H225988   3.090   6.137  11.240 -0.0587 -0.4955 -0.5098
 1525TIP3   OH225989   5.922   1.559   1.853 -0.2289 -0.2495 -0.0565
 1525TIP3    H125990   5.863   1.483   1.851  0.3417 -0.6881 -1.5436
 1525TIP3    H225991   6.010   1.521   1.856  0.0361  0.3965  1.1762
 1526TIP3   OH225992   3.143   0.336  11.637 -0.5365  0.3809 -0.4889
 1526TIP3    H125993   3.115   0.318  11.727 -1.3493  1.2080 -0.5584
 1526TIP3    H225994   3.066   0.317  11.583  0.2294 -1.0413 -1.1434
 1527TIP3   OH225995   2.111   3.982   2.753  0.1905 -0.5030 -0.1122
 1527TIP3    H125996   2.116   3.966   2.658 -0.6199 -0.3824 -0.1817
 1527TIP3    H225997   2.139   3.899   2.792 -0.9596 -1.0941 -0.4725
 1528TIP3   OH225998   2.115   5.468   2.581  0.0805  0.6923  0.1313
 1528TIP3    H125999   2.186   5.529   2.603  0.2325  0.4923  0.1992
 1528TIP3    H226000   2.042   5.497   2.635 -0.0124  1.1472 -0.2336
 1529TIP3   OH226001   5.017   4.250  15.995  0.0381 -0.3062 -0.4677
 1529TIP3    H126002   4.924   4.227  15.992 -0.0416  0.0923 -1.5769
 1529TIP3    H226003   5.019   4.341  16.022  0.0316  0.0021 -1.4630
 1530TIP3   OH226004   6.158   4.402   3.734 -0.1137 -0.6604  0.0200
 1530TIP3    H126005   6.234   4.343   3.733  0.0357 -0.4585 -1.1944
 1530TIP3    H226006   6.159   4.440   3.822  0.4903 -1.5557  0.4196
 1531TIP3   OH226007   3.729   4.777  11.821  0.5009 -0.0200  0.0622
 1531TIP3    H126008   3.665   4.817  11.881 -1.5048 -1.1426 -1.1882
 1531TIP3    H226009   3.707   4.684  11.822  0.3822 -0.0806 -2.3571
 1532TIP3   OH226010   2.110   2.859  15.097  0.1458  0.2845 -0.2069
 1532TIP3    H126011   2.177   2.800  15.132 -0.4846  0.2705  1.0048
 1532TIP3    H226012   2.028   2.830  15.137 -0.6066  0.3267 -1.6401
 1533TIP3   OH226013   5.448   2.047  11.194 -0.2355  0.2591  0.1077
 1533TIP3    H126014   5.389   2.036  11.119 -0.5830 -1.3795  0.5708
 1533TIP3    H226015   5.390   2.064  11.268 -0.0784 -0.4458  0.4024
 1534TIP3   OH226016   4.982   5.417  14.699  0.1757  0.2529 -0.2769
 1534TIP3    H126017   4.901   5.463  14.681  0.7876  1.1319 -0.8377
 1534TIP3    H226018   4.973   5.387  14.789 -2.1631 -2.6021 -1.3047
 1535TIP3   OH226019   3.647   1.005   0.419  0.3009  0.3764  0.3764
 1535TIP3    H126020   3.678   0.981   0.331 -1.8446 -0.3907 -0.2272
 1535TIP3    H226021   3.666   1.098   0.426  2.3024  0.0654 -0.0865
 1536TIP3   OH226022   3.468   4.720  15.263 -0.4318  1.0364 -0.4900
 1536TIP3    H126023   3.542   4.667  15.234 -0.8236  0.2660 -0.1209
 1536TIP3    H226024   3.491   4.809  15.237 -0.0162  0.6175 -1.6441
 1537TIP3   OH226025   3.858   4.080  16.523 -0.3843  0.2747  0.1066
 1537TIP3    H126026   3.928   4.088  16.457  0.4534  3.9041  1.1846
 1537TIP3    H226027   3.785   4.130  16.486 -1.4309 -1.0711  0.2579
 1538TIP3   OH226028   4.852   6.311   0.296 -0.3132 -0.2931 -0.0606
 1538TIP3    H126029   4.893   6.397   0.305  0.5721 -0.8292  1.3799
 1538TIP3    H226030   4.776   6.315   0.355 -0.3932 -0.4403 -0.1548
 1539TIP3   OH226031   3.453   2.681   0.536 -0.2505  0.0417  0.1760
 1539TIP3    H126032   3.459   2.776   0.551 -0.2401  0.0388  0.1913
 1539TIP3    H226033   3.540   2.657   0.504 -0.1004 -0.0416  0.6287
 1540TIP3   OH226034   5.182   2.713   0.649  0.4372  0.2752 -0.3350
 1540TIP3    H126035   5.259   2.669   0.684 -0.3589 -1.1404 -0.2450
 1540TIP3    H226036   5.111   2.686   0.707 -0.2223  1.0831 -0.7482
 1541TIP3   OH226037   2.940   3.233  11.085 -0.0733 -0.0253 -0.1431
 1541TIP3    H126038   3.014   3.223  11.145 -0.9550 -0.3840  0.9250
 1541TIP3    H226039   2.962   3.179  11.009  0.6157 -0.3652  0.2926
 1542TIP3   OH226040   5.316   2.539   3.075  0.6860  0.0779  0.0876
 1542TIP3    H126041   5.392   2.564   3.128  1.3677  0.9830 -1.2704
 1542TIP3    H226042   5.331   2.447   3.053  0.5151 -0.2384  1.2316
 1543TIP3   OH226043   5.446   1.553   1.626 -0.7381 -0.0203  0.1296
 1543TIP3    H126044   5.504   1.494   1.578  0.2649  0.8023  0.3105
 1543TIP3    H226045   5.402   1.496   1.690  2.0951 -0.2588  2.0612
 1544TIP3   OH226046   2.255   5.625  15.290  0.9234 -0.0731 -0.5989
 1544TIP3    H126047   2.317   5.607  15.360  0.3154 -2.6791 -0.6140
 1544TIP3    H226048   2.175   5.654  15.335  1.4262  1.1048 -0.4409
 1545TIP3   OH226049   4.702   0.792  11.993 -0.4633  0.1316 -0.0823
 1545TIP3    H126050   4.680   0.813  12.083  0.7143 -0.7642  0.4357
 1545TIP3    H226051   4.691   0.697  11.987  0.6871  0.0096 -0.5237
 1546TIP3   OH226052   4.845   1.287   4.895  0.5065 -0.4985  0.0902
 1546TIP3    H126053   4.759   1.250   4.913  0.2523 -0.6298 -1.2770
 1546TIP3    H226054   4.905   1.236   4.950 -0.0684 -1.7434 -0.3958
 1547TIP3   OH226055   0.815   0.819   4.478  0.2684  0.0871  0.2547
 1547TIP3    H126056   0.747   0.852   4.420 -0.5085  2.0361  2.1440
 1547TIP3    H226057   0.848   0.740   4.435 -1.8140  0.1862 -1.6577
 1548TIP3   OH226058   0.593   3.566  15.454  0.5805  0.5569 -0.3114
 1548TIP3    H126059   0.601   3.542  15.546 -1.7570  2.6403  0.5447
 1548TIP3    H226060   0.590   3.482  15.408  0.7885 -0.5542  1.5967
 1549TIP3   OH226061   6.503   4.585   2.566 -0.0827  0.1173  0.3107
 1549TIP3    H126062   6.445   4.633   2.508  0.3513  1.3975  0.8715
 1549TIP3    H226063   6.504   4.496   2.533 -1.6587  0.2813 -0.2259
 1550TIP3   OH226064   3.101   6.240  14.014 -0.0024  0.5986 -0.3399
 1550TIP3    H126065   3.183   6.191  14.016 -0.3891 -0.1121 -1.4222
 1550TIP3    H226066   3.087   6.261  13.922 -2.3439 -1.5628 -0.5851
 1551TIP3   OH226067   6.432   3.809   2.813  0.1022  0.1622 -0.5585
 1551TIP3    H126068   6.442   3.863   2.891 -0.0056  1.3246 -1.3345
 1551TIP3    H226069   6.450   3.720   2.843 -1.9149  0.2857  1.2315
 1552TIP3   OH226070   6.048   6.352  10.577 -0.1836 -0.1618  0.4667
 1552TIP3    H126071   6.019   6.443  10.587 -0.5421 -0.4013  1.8401
 1552TIP3    H226072   6.143   6.356  10.583  0.0223  0.4007 -2.1103
 1553TIP3   OH226073   3.110   1.830   1.950  0.1508  0.1552  0.8711
 1553TIP3    H126074   3.018   1.808   1.969  0.4021 -1.3427  0.5365
 1553TIP3    H226075   3.106   1.911   1.900 -1.1214 -0.6808 -0.4667
 1554TIP3   OH226076   2.343   2.351  11.622  0.0497  0.1944 -0.2080
 1554TIP3    H126077   2.375   2.308  11.702 -0.8062  1.6025  0.9418
 1554TIP3    H226078   2.299   2.280  11.574  2.0490 -1.0465 -0.2956
 1555TIP3   OH226079   1.330   5.410   5.205 -0.3638  0.0208 -0.2595
 1555TIP3    H126080   1.425   5.414   5.196 -0.4805 -1.4120 -3.3747
 1555TIP3    H226081   1.309   5.317   5.201 -1.8290  0.0594  3.1333
 1556TIP3   OH226082   6.367   3.970  10.105  0.3525 -0.5925  0.1176
 1556TIP3    H126083   6.295   4.030  10.123  0.4139  0.0767 -1.6940
 1556TIP3    H226084   6.446   4.023  10.114  0.4574 -0.6181 -0.6476
 1557TIP3   OH226085   6.156   0.204  16.055 -0.0914 -0.4806  0.3553
 1557TIP3    H126086   6.169   0.118  16.016  2.7687 -0.5623  1.2570
 1557TIP3    H226087   6.136   0.186  16.147  0.4621 -0.1991  0.5340
 1558TIP3   OH226088   5.685   6.894  11.716  0.3057  0.1126 -0.3064
 1558TIP3    H126089   5.616   6.836  11.684 -0.4449  0.7606  0.1077
 1558TIP3    H226090   5.688   6.965  11.653  1.4670 -0.5217 -1.0077
 1559TIP3   OH226091   5.576   1.595  15.866 -0.0497 -0.4524  0.4141
 1559TIP3    H126092   5.554   1.537  15.793  0.7947 -2.6259  1.7977
 1559TIP3    H226093   5.670   1.610  15.857  0.2450 -1.4624  1.4784
 1560TIP3   OH226094   6.885   2.966  11.950 -0.0066 -0.3078  0.3989
 1560TIP3    H126095   6.820   3.016  11.901 -0.2759 -1.3028 -0.3077
 1560TIP3    H226096   6.858   2.874  11.939  2.1869 -0.8704 -1.0103
 1561TIP3   OH226097   6.692   4.019   0.794  0.4250  0.1766  0.4582
 1561TIP3    H126098   6.765   4.079   0.778  0.7144 -0.5530 -1.2502
 1561TIP3    H226099   6.620   4.075   0.823  0.7823  1.3187 -0.7413
 1562TIP3   OH226100   0.353   6.097  10.999  0.1728  0.0138  0.3875
 1562TIP3    H126101   0.430   6.114  11.053  0.6873 -2.4547  0.5774
 1562TIP3    H226102   0.290   6.059  11.059 -0.7122  0.7779 -0.0366
 1563TIP3   OH226103   3.106   6.062   3.669  0.0913  0.2313  0.1100
 1563TIP3    H126104   3.187   6.092   3.710 -0.0197  1.0735 -0.2752
 1563TIP3    H226105   3.126   5.973   3.640  1.4952  1.0206 -1.5705
 1564TIP3   OH226106   3.802   0.646   1.303 -0.0364 -0.5032  0.5990
 1564TIP3    H126107   3.800   0.736   1.336 -1.2927 -0.1044 -0.4759
 1564TIP3    H226108   3.728   0.641   1.242  0.4288 -2.0655  0.1134
 1565TIP3   OH226109   2.246   2.733   2.869  0.2535  0.3567  0.1923
 1565TIP3    H126110   2.241   2.736   2.965  2.9527 -0.7623  0.4687
 1565TIP3    H226111   2.227   2.642   2.848 -0.6196  0.6663 -0.3913
 1566TIP3   OH226112   2.566   4.721  12.817 -0.2368  0.5035 -0.2828
 1566TIP3    H126113   2.567   4.685  12.906  1.8440  0.5704 -0.2435
 1566TIP3    H226114   2.478   4.701  12.785 -1.0822  0.5699  1.8153
 1567TIP3   OH226115   0.185   0.125  14.027 -0.5042 -0.1050  0.6038
 1567TIP3    H126116   0.187   0.175  13.945 -0.5844 -0.3682  0.4428
 1567TIP3    H226117   0.198   0.034  14.000  1.2278 -0.0120  1.0304
 1568TIP3   OH226118   2.293   2.151   0.119  0.0664 -0.0279 -0.6387
 1568TIP3    H126119   2.309   2.092   0.192  0.1634 -1.7628 -1.9862
 1568TIP3    H226120   2.366   2.213   0.121  0.1887 -0.1842  0.5518
 1569TIP3   OH226121   0.557   6.132  10.521  0.2737 -0.5595 -0.2426
 1569TIP3    H126122   0.628   6.119  10.584  0.0890  0.2149  0.1331
 1569TIP3    H226123   0.593   6.193  10.456  0.1997 -0.7529 -0.4688
 1570TIP3   OH226124   6.754   0.426   1.850 -0.4375  0.0093 -0.3456
 1570TIP3    H126125   6.812   0.421   1.774 -1.4474 -0.5676 -1.0925
 1570TIP3    H226126   6.810   0.400   1.924  0.2246 -0.6884 -1.0712
 1571TIP3   OH226127   2.676   3.922  13.297  0.2683 -0.0465 -1.1112
 1571TIP3    H126128   2.696   3.950  13.208 -2.0819  1.0851 -1.3680
 1571TIP3    H226129   2.753   3.873  13.325  1.0932 -0.3905 -3.7320
 1572TIP3   OH226130   1.482   3.797   1.501 -0.3138 -0.3145 -0.7025
 1572TIP3    H126131   1.476   3.861   1.430 -0.1236 -3.7592 -4.1216
 1572TIP3    H226132   1.391   3.779   1.525 -0.4333  0.0274 -0.8928
 1573TIP3   OH226133   6.293   5.447  14.015 -0.2661 -0.3684 -0.3665
 1573TIP3    H126134   6.296   5.359  13.977 -3.3631  0.0723 -1.9778
 1573TIP3    H226135   6.342   5.501  13.953  0.5714 -0.7200 -0.0292
 1574TIP3   OH226136   0.043   2.255  10.849  0.1697  0.6599  0.5951
 1574TIP3    H126137   0.107   2.325  10.843 -0.4150  1.2355  0.9348
 1574TIP3    H226138  -0.009   2.277  10.927  0.3787 -0.4898  1.0862
 1575TIP3   OH226139   5.158   5.736  11.627 -0.0988  0.3203 -0.0784
 1575TIP3    H126140   5.097   5.688  11.683  1.1113 -1.5078 -0.2388
 1575TIP3    H226141   5.213   5.668  11.587  0.9437  1.7750 -1.2512
 1576TIP3   OH226142   1.251   5.218   1.876  0.1474 -1.0024 -0.2158
 1576TIP3    H126143   1.325   5.269   1.909 -0.8278  1.5244 -1.6342
 1576TIP3    H226144   1.274   5.127   1.895  3.9049 -0.4240 -1.1041
 1577TIP3   OH226145   2.522   2.557   1.054  0.3814  0.6846  0.2978
 1577TIP3    H126146   2.539   2.651   1.045 -1.4202  1.1696  1.3722
 1577TIP3    H226147   2.537   2.539   1.147 -1.7130  0.4983  0.6427
 1578TIP3   OH226148   6.650   4.681   1.294  0.1646  0.0548 -0.2451
 1578TIP3    H126149   6.569   4.631   1.286 -0.8979  1.9828 -3.3292
 1578TIP3    H226150   6.686   4.656   1.380 -4.3875  0.1939  1.9921
 1579TIP3   OH226151   3.320   1.551   3.270  0.6519 -0.2884  0.6264
 1579TIP3    H126152   3.372   1.631   3.260  0.0341  0.1025  0.4479
 1579TIP3    H226153   3.230   1.580   3.257  0.5813 -1.4605 -2.2267
 1580TIP3   OH226154   1.891   1.428   5.771 -0.1500 -0.7113 -0.7772
 1580TIP3    H126155   1.957   1.437   5.839  0.6172  0.3798 -1.6243
 1580TIP3    H226156   1.924   1.358   5.714  0.2214 -0.2663 -1.1186
 1581TIP3   OH226157   1.294   0.246  12.901  0.4659 -0.2571  0.1803
 1581TIP3    H126158   1.320   0.161  12.936 -1.3010 -0.5129  0.9852
 1581TIP3    H226159   1.364   0.305  12.928  0.5755 -1.0152  1.6636
 1582TIP3   OH226160   2.729   1.690   1.366  0.1963 -0.1622  0.4629
 1582TIP3    H126161   2.718   1.770   1.315 -0.2982 -0.2728  0.3896
 1582TIP3    H226162   2.820   1.664   1.351  1.1987  1.7858  2.5139
 1583TIP3   OH226163   1.899   5.716  13.750 -0.3457 -0.4451  0.2667
 1583TIP3    H126164   1.944   5.642  13.791 -2.2605 -1.3155  0.9130
 1583TIP3    H226165   1.842   5.677  13.685 -2.5008  0.2463  1.6211
 1584TIP3   OH226166   5.934   5.159  11.067 -0.2252 -0.0212  0.6266
 1584TIP3    H126167   5.969   5.224  11.127  1.1975  0.3348 -0.5374
 1584TIP3    H226168   5.905   5.210  10.991  0.7646 -0.6934 -0.2304
 1585TIP3   OH226169   4.677   0.069  11.361  0.3390  0.3508 -0.1594
 1585TIP3    H126170   4.670   0.154  11.319  0.7524  0.4652 -0.0091
 1585TIP3    H226171   4.699   0.089  11.452 -1.3961  0.1355  0.3349
 1586TIP3   OH226172   3.512   4.724   5.316 -0.0525 -0.2241 -0.7160
 1586TIP3    H126173   3.479   4.803   5.273  1.7298  2.1500  1.9152
 1586TIP3    H226174   3.607   4.733   5.313  0.1855 -2.0682  0.0082
 1587TIP3   OH226175   4.204   5.423  16.552 -0.0608  0.7870 -0.1098
 1587TIP3    H126176   4.252   5.432  16.469  1.6414  0.8868  0.8430
 1587TIP3    H226177   4.257   5.472  16.615 -1.3240  0.6958  1.0501
 1588TIP3   OH226178   6.825   6.848  12.728  0.0139  0.2083 -0.7428
 1588TIP3    H126179   6.897   6.910  12.737 -1.3496  2.0105 -1.4414
 1588TIP3    H226180   6.840   6.805  12.644  0.2742  0.5756 -0.8868
 1589TIP3   OH226181   5.993   6.872  10.469  0.4282  0.3663 -0.0586
 1589TIP3    H126182   6.084   6.889  10.495  0.3689  1.6417 -0.6308
 1589TIP3    H226183   5.996   6.869  10.374  0.3314 -2.4837 -0.0530
 1590TIP3   OH226184   1.817   2.414   5.310 -0.3122  0.9490 -0.0522
 1590TIP3    H126185   1.732   2.450   5.334 -1.5319  0.2365 -2.9044
 1590TIP3    H226186   1.846   2.467   5.236  1.5537  0.8663  0.5591
 1591TIP3   OH226187   1.041   4.430  12.392 -0.3384  0.1109  0.3550
 1591TIP3    H126188   0.976   4.496  12.416 -1.5478 -1.7297  2.5493
 1591TIP3    H226189   1.099   4.424  12.468 -0.0469 -1.1007  0.0655
 1592TIP3   OH226190   4.810   3.457   4.391  0.2305  0.1983 -0.1114
 1592TIP3    H126191   4.834   3.456   4.298 -1.9288  1.5929 -0.7752
 1592TIP3    H226192   4.769   3.543   4.403 -0.4591 -0.3690  1.8933
 1593TIP3   OH226193   6.451   1.831  14.586 -0.3071 -0.3613 -0.7178
 1593TIP3    H126194   6.445   1.741  14.552 -1.0010  0.0479 -1.7105
 1593TIP3    H226195   6.364   1.849  14.620 -0.0748 -0.1683 -0.2178
 1594TIP3   OH226196   1.028   5.309   1.018  0.3967  0.3802 -0.1630
 1594TIP3    H126197   0.959   5.286   0.955 -0.2076  1.1249  0.2083
 1594TIP3    H226198   1.110   5.292   0.971  0.0241  3.1340 -2.0887
 1595TIP3   OH226199   5.924   6.017  13.398  0.6475  0.0012  0.5183
 1595TIP3    H126200   5.891   6.082  13.461 -0.1107 -0.9735  1.1613
 1595TIP3    H226201   5.855   6.013  13.331  1.3731  0.9094 -0.3048
 1596TIP3   OH226202   4.666   6.521  13.055  0.7627  0.3363 -0.4807
 1596TIP3    H126203   4.691   6.524  13.147  2.8491  1.7134 -1.0067
 1596TIP3    H226204   4.595   6.457  13.051  2.0116 -1.3384  1.7695
 1597TIP3   OH226205   4.918   2.078   0.778  0.2788 -0.3145 -0.0706
 1597TIP3    H126206   4.939   2.087   0.685 -1.2485  0.4070 -0.3791
 1597TIP3    H226207   4.830   2.039   0.779  0.3842 -0.5757  1.0838
 1598TIP3   OH226208   4.628   1.181  14.493  0.2115 -0.4173 -0.0837
 1598TIP3    H126209   4.671   1.101  14.523  0.7083  0.3746  1.4209
 1598TIP3    H226210   4.535   1.161  14.497  0.3505 -1.3924 -1.1631
 1599TIP3   OH226211   3.888   1.743   5.537 -0.2745  0.3596  0.0516
 1599TIP3    H126212   3.846   1.669   5.494 -0.1735  0.0846  0.4246
 1599TIP3    H226213   3.827   1.816   5.525 -1.3524 -0.2654  1.4550
 1600TIP3   OH226214   5.183   0.406  10.800  0.2170 -0.3373 -0.0077
 1600TIP3    H126215   5.125   0.481  10.810  1.4153  0.9913 -2.2821
 1600TIP3    H226216   5.271   0.440  10.814  0.6732 -1.6925  0.5991
 1601TIP3   OH226217   4.287   0.719  10.167  0.3790  0.4609  0.3740
 1601TIP3    H126218   4.232   0.684  10.238  0.3915  0.0550  0.1886
 1601TIP3    H226219   4.230   0.782  10.122  0.4214  0.8329  0.8352
 1602TIP3   OH226220   4.209   4.971   3.619 -0.2843 -0.2038 -0.2955
 1602TIP3    H126221   4.304   4.988   3.615 -0.3272  0.5229  1.0886
 1602TIP3    H226222   4.201   4.876   3.611  0.4957 -0.2066 -1.2708
 1603TIP3   OH226223   4.525   6.504  11.021 -0.3118  0.2327  0.4545
 1603TIP3    H126224   4.612   6.545  11.021 -1.1454  2.0839  0.2829
 1603TIP3    H226225   4.506   6.488  11.113  0.5586 -1.0081  0.4392
 1604TIP3   OH226226   0.392   0.563   4.817 -0.1234  0.0827 -0.4896
 1604TIP3    H126227   0.460   0.505   4.851 -1.9335 -3.1001 -1.9133
 1604TIP3    H226228   0.315   0.543   4.870 -1.2106 -0.0004 -2.0556
 1605TIP3   OH226229   1.246   3.142   4.832 -0.2832  0.3122  0.1177
 1605TIP3    H126230   1.267   3.069   4.774 -0.0127 -0.1051  0.7368
 1605TIP3    H226231   1.156   3.126   4.859 -0.3972  0.4877 -0.1457
 1606TIP3   OH226232   5.422   3.448   0.694  0.2111  0.2099  0.2743
 1606TIP3    H126233   5.387   3.454   0.605 -0.6893 -1.0046  0.5312
 1606TIP3    H226234   5.349   3.470   0.751  0.3031 -0.7093  0.7626
 1607TIP3   OH226235   1.868   6.035   4.712  0.0481 -0.2817  0.1136
 1607TIP3    H126236   1.798   6.088   4.751 -0.0359 -0.6456  0.4679
 1607TIP3    H226237   1.854   5.947   4.747 -2.2960 -1.5971 -3.5943
 1608TIP3   OH226238   0.473   4.529   0.253  0.0728 -0.1404 -0.2149
 1608TIP3    H126239   0.395   4.549   0.304  1.5381  0.2523  1.9994
 1608TIP3    H226240   0.501   4.442   0.283  1.0103  0.1306 -0.2576
 1609TIP3   OH226241   6.155   1.490  15.143  0.3039 -0.6750  0.2938
 1609TIP3    H126242   6.197   1.477  15.228  1.0190 -0.9278 -0.0918
 1609TIP3    H226243   6.161   1.405  15.100  0.7879 -0.3053 -0.3798
 1610TIP3   OH226244   5.875   5.999   2.224  0.6070 -0.0212 -0.0122
 1610TIP3    H126245   5.832   6.059   2.286 -0.1923  1.0110 -1.4999
 1610TIP3    H226246   5.858   5.912   2.260 -1.9041  0.4100  0.0376
 1611TIP3   OH226247   1.471   2.670   4.179  0.1189 -0.4228  0.6444
 1611TIP3    H126248   1.460   2.765   4.171  0.6647 -0.4381 -0.4359
 1611TIP3    H226249   1.381   2.636   4.188 -0.2527  0.0404 -0.9687
 1612TIP3   OH226250   0.550   1.128  11.500  0.4134  0.5792  0.0981
 1612TIP3    H126251   0.624   1.138  11.560  1.3091  0.5094 -0.9525
 1612TIP3    H226252   0.549   1.210  11.450 -0.1593  0.5377  0.0360
 1613TIP3   OH226253   2.939   5.836   3.977  0.7035  0.3545 -0.0440
 1613TIP3    H126254   3.030   5.817   3.954  0.4753 -0.0323 -0.6307
 1613TIP3    H226255   2.887   5.777   3.923  0.1109  0.3440  0.5235
 1614TIP3   OH226256   0.927   2.106   1.563 -0.1687 -0.1180 -0.1250
 1614TIP3    H126257   0.957   2.093   1.473 -1.2799 -0.4744 -0.4528
 1614TIP3    H226258   0.989   2.169   1.600  1.6055 -1.5669 -0.4629
 1615TIP3   OH226259   6.122   5.966   3.017  0.2406 -0.2285  0.3295
 1615TIP3    H126260   6.117   5.897   2.950 -2.7353  1.7888 -1.7662
 1615TIP3    H226261   6.052   5.945   3.078  1.3302 -0.6822  1.4570
 1616TIP3   OH226262   3.555   6.892   2.376  0.2394 -0.0608  0.1004
 1616TIP3    H126263   3.479   6.845   2.341  0.5670 -0.3961 -0.1651
 1616TIP3    H226264   3.605   6.825   2.423  2.3735 -0.7568 -2.8900
 1617TIP3   OH226265   3.854   3.658  14.801 -0.2641 -0.4055 -0.3241
 1617TIP3    H126266   3.767   3.691  14.778  0.2147  1.1260 -0.0035
 1617TIP3    H226267   3.885   3.617  14.720 -0.8742 -0.0629 -0.7459
 1618TIP3   OH226268   0.122   1.275  12.256 -0.1063  0.6330  0.2146
 1618TIP3    H126269   0.093   1.362  12.227 -1.0000  0.1181 -0.4851
 1618TIP3    H226270   0.060   1.251  12.325  0.1030  0.5229  0.3646
 1619TIP3   OH226271   1.306   3.997  13.720 -0.4057  0.0686  0.0079
 1619TIP3    H126272   1.227   3.943  13.710 -0.2138 -0.3558  0.7185
 1619TIP3    H226273   1.375   3.945  13.678 -0.1457 -0.4358  1.0233
 1620TIP3   OH226274   5.926   1.243  15.526  0.4283  0.4413  1.0776
 1620TIP3    H126275   5.895   1.241  15.616  0.8369 -0.9580  1.2081
 1620TIP3    H226276   6.021   1.258  15.533  0.1646  2.7329  0.7511
 1621TIP3   OH226277   3.359   2.373   2.710 -0.3202 -0.0107  0.6561
 1621TIP3    H126278   3.396   2.360   2.798  1.6039  1.7106  0.1721
 1621TIP3    H226279   3.343   2.284   2.678  1.0026 -0.7675  1.9372
 1622TIP3   OH226280   1.847   4.452  13.984 -0.1866 -0.3365 -0.1488
 1622TIP3    H126281   1.786   4.378  13.979 -0.9380  0.2767 -0.3610
 1622TIP3    H226282   1.887   4.456  13.897  0.2983 -0.8466  0.0431
 1623TIP3   OH226283   5.568   4.180  13.573  0.0065  0.0404 -0.1205
 1623TIP3    H126284   5.503   4.230  13.523 -0.8369 -0.4670  0.4427
 1623TIP3    H226285   5.636   4.244  13.595 -0.8793  0.8705  0.2741
 1624TIP3   OH226286   4.736   5.980  11.456  0.8003  0.3829  0.6722
 1624TIP3    H126287   4.747   6.055  11.399  1.0671 -0.7797 -0.8663
 1624TIP3    H226288   4.826   5.949  11.471  0.5895 -2.1741 -2.3347
 1625TIP3   OH226289   0.003   4.206   0.767 -0.0419 -0.2167  0.4743
 1625TIP3    H126290   0.098   4.192   0.778  0.3429 -0.6164 -2.5821
 1625TIP3    H226291  -0.005   4.299   0.747  0.3132 -0.8137 -3.1904
 1626TIP3   OH226292   0.594   4.557   1.996  0.1054 -0.2538  0.0007
 1626TIP3    H126293   0.620   4.505   1.920  1.6791  1.1390 -0.4614
 1626TIP3    H226294   0.675   4.596   2.028 -1.0544  2.2896  0.0446
 1627TIP3   OH226295   6.822   5.250  11.027 -0.6498 -0.2639 -0.2700
 1627TIP3    H126296   6.901   5.203  11.000 -0.9990  0.5484 -3.0150
 1627TIP3    H226297   6.752   5.185  11.021 -0.6692 -0.1786 -1.1084
 1628TIP3   OH226298   6.696   0.335  16.637 -0.0246  0.4721 -0.3207
 1628TIP3    H126299   6.614   0.294  16.662 -0.1589  0.9030 -0.0351
 1628TIP3    H226300   6.686   0.427  16.662  0.4419  0.5840 -0.5231
 1629TIP3   OH226301   2.191   5.061  11.888 -0.2987  0.4557  0.0131
 1629TIP3    H126302   2.120   5.026  11.943 -1.4437 -1.0762 -2.3024
 1629TIP3    H226303   2.176   5.156  11.889 -2.0911  0.2210  0.0150
 1630TIP3   OH226304   3.396   4.287   2.540 -0.0268  0.0677  0.2524
 1630TIP3    H126305   3.341   4.253   2.612 -0.3225 -0.8632 -0.3910
 1630TIP3    H226306   3.352   4.258   2.461  0.4416  0.8639 -0.3169
 1631TIP3   OH226307   5.263   2.430  10.669 -0.1568 -0.3268 -0.0214
 1631TIP3    H126308   5.332   2.495  10.678  0.1356 -0.7690  1.1824
 1631TIP3    H226309   5.278   2.390  10.583  0.3575  0.3918 -0.2716
 1632TIP3   OH226310   4.389   3.294   1.868  0.1402 -0.4422 -0.4241
 1632TIP3    H126311   4.390   3.271   1.775 -2.0297 -1.5574 -0.2266
 1632TIP3    H226312   4.380   3.211   1.914 -0.1822  0.1975  0.7152
 1633TIP3   OH226313   4.939   2.490  14.484 -0.1044 -0.0646 -0.6464
 1633TIP3    H126314   5.003   2.422  14.506 -0.0110  0.1148 -0.3491
 1633TIP3    H226315   4.871   2.445  14.434  0.5683 -0.1425 -1.5178
 1634TIP3   OH226316   3.249   5.928   3.097 -0.7314  0.0207 -0.1637
 1634TIP3    H126317   3.221   5.874   3.024  0.6466  0.1519 -0.8312
 1634TIP3    H226318   3.263   6.015   3.060  2.2351 -0.4281 -0.3508
 1635TIP3   OH226319   1.232   2.195   5.291  0.5029 -0.1536  0.0652
 1635TIP3    H126320   1.172   2.145   5.236 -1.3864 -0.2829  2.1015
 1635TIP3    H226321   1.316   2.151   5.280  0.1638 -0.3458 -2.4074
 1636TIP3   OH226322   4.586   0.805   4.809 -0.6373 -0.5428 -0.1682
 1636TIP3    H126323   4.548   0.717   4.799  0.5814 -1.1862  0.6148
 1636TIP3    H226324   4.558   0.833   4.896  2.7363 -2.1867  1.6754
 1637TIP3   OH226325   1.046   5.932   3.514  0.4556 -0.0799  0.0610
 1637TIP3    H126326   0.965   5.954   3.468  0.2330  1.3885  1.0807
 1637TIP3    H226327   1.065   5.843   3.487 -2.5361 -1.2115  1.2399
 1638TIP3   OH226328   0.542   5.710  13.603  0.1696 -0.0785  0.0751
 1638TIP3    H126329   0.505   5.691  13.517 -1.4615 -1.3090  0.9967
 1638TIP3    H226330   0.466   5.709  13.662  1.3277  0.1779  1.6129
 1639TIP3   OH226331   1.085   5.104   4.003 -0.6060 -0.3802  0.1712
 1639TIP3    H126332   1.105   5.183   4.051  1.8578  0.3043 -1.8058
 1639TIP3    H226333   1.020   5.059   4.057  0.5175  1.2513  3.0655
 1640TIP3   OH226334   1.024   6.000   4.915 -0.0709 -0.1564  0.6894
 1640TIP3    H126335   1.073   5.946   4.853  1.0431  1.7902 -0.2289
 1640TIP3    H226336   1.076   5.996   4.995  0.5206  0.2599  0.3396
 1641TIP3   OH226337   4.227   6.441  14.647  0.3192  0.2037  0.2876
 1641TIP3    H126338   4.182   6.439  14.732 -1.4979  0.7386 -0.6279
 1641TIP3    H226339   4.175   6.500  14.593  0.8683 -0.8903 -1.5156
 1642TIP3   OH226340   2.217   5.204   3.682 -0.4757 -0.2971  0.1641
 1642TIP3    H126341   2.162   5.248   3.747 -1.9035 -0.1652 -1.0916
 1642TIP3    H226342   2.219   5.263   3.607  3.8200  1.1096  1.0959
 1643TIP3   OH226343   0.432   4.224   4.226 -0.2791 -0.0895 -0.1118
 1643TIP3    H126344   0.408   4.237   4.134  1.2328 -0.6761 -0.6293
 1643TIP3    H226345   0.370   4.278   4.275  0.9839  3.0412 -1.6486
 1644TIP3   OH226346   4.507   4.107  15.408 -0.0480 -0.2495 -0.3979
 1644TIP3    H126347   4.563   4.139  15.479  0.6267 -0.5877 -0.7681
 1644TIP3    H226348   4.419   4.101  15.447 -0.4395  2.9086 -0.5471
 1645TIP3   OH226349   5.810   1.886   2.827 -0.0587 -0.2123  0.2686
 1645TIP3    H126350   5.879   1.904   2.762 -0.5663  3.1715  0.4619
 1645TIP3    H226351   5.729   1.892   2.777 -0.4107  1.5266  0.9846
 1646TIP3   OH226352   3.279   3.377  12.341  0.0895  0.9729 -0.0061
 1646TIP3    H126353   3.327   3.441  12.288  1.6529 -0.5501 -0.5295
 1646TIP3    H226354   3.339   3.352  12.410 -0.7204  0.5128  0.5527
 1647TIP3   OH226355   4.255   0.696   0.248 -0.4286  0.3179 -0.1171
 1647TIP3    H126356   4.238   0.602   0.253 -1.5369  0.4645 -0.7823
 1647TIP3    H226357   4.334   0.709   0.300  0.3041 -1.1222 -0.8102
 1648TIP3   OH226358   5.319   0.130  13.693  0.5270 -0.5796  0.3077
 1648TIP3    H126359   5.296   0.204  13.749 -0.9622 -0.9286  0.1993
 1648TIP3    H226360   5.386   0.165  13.634 -0.0311  0.6350  0.3692
 1649TIP3   OH226361   6.760   4.968   4.595  0.5314  0.3270 -0.1016
 1649TIP3    H126362   6.716   4.897   4.549 -0.8378 -1.1097  3.0760
 1649TIP3    H226363   6.695   5.038   4.600  0.5811  0.3769 -0.1672
 1650TIP3   OH226364   4.503   6.134  13.763  0.0925 -0.0971 -0.2799
 1650TIP3    H126365   4.505   6.201  13.696 -3.1657  0.1936 -0.2301
 1650TIP3    H226366   4.511   6.051  13.715 -0.3451  0.1717 -0.8181
 1651TIP3   OH226367   6.150   4.297  16.616  0.1367  0.0150  0.6290
 1651TIP3    H126368   6.164   4.337  16.530 -1.9351  1.8319  1.0481
 1651TIP3    H226369   6.146   4.203  16.598  0.2925  0.3081 -1.1562
 1652TIP3   OH226370   1.796   2.232  16.536 -0.4865 -0.3904 -0.0976
 1652TIP3    H126371   1.873   2.258  16.487  1.0065 -2.9005  0.6761
 1652TIP3    H226372   1.811   2.265  16.625 -0.2920 -0.8446  0.0439
 1653TIP3   OH226373   0.934   1.437  13.486  0.5326  0.0010 -0.1916
 1653TIP3    H126374   0.963   1.353  13.521  0.1631 -0.4018 -0.8294
 1653TIP3    H226375   0.838   1.429  13.483  0.5620 -0.0028 -1.3600
 1654TIP3   OH226376   2.702   6.368   0.281 -0.5430  0.6346  0.2552
 1654TIP3    H126377   2.728   6.460   0.282 -1.6970  0.9748  1.0355
 1654TIP3    H226378   2.784   6.320   0.288  0.0328  1.6195  0.4743
 1655TIP3   OH226379   4.596   3.557   5.028  0.7123  0.1665 -0.0398
 1655TIP3    H126380   4.585   3.510   4.945  1.5763 -0.0793 -0.0255
 1655TIP3    H226381   4.689   3.578   5.032  0.7240 -0.0169  0.9741
 1656TIP3   OH226382   3.165   5.054   2.451 -1.0494  0.6433 -0.2105
 1656TIP3    H126383   3.139   5.077   2.362  1.4922 -0.7651 -1.4181
 1656TIP3    H226384   3.209   4.969   2.442  0.9199  1.3219  2.0677
 1657TIP3   OH226385   3.151   6.698  11.603 -0.8067  0.7716 -0.0782
 1657TIP3    H126386   3.157   6.788  11.635  0.0129  0.4258  0.7766
 1657TIP3    H226387   3.109   6.706  11.517  0.4739  2.1088 -0.6189
 1658TIP3   OH226388   3.608   5.433  13.839 -0.4276  0.1615 -0.1841
 1658TIP3    H126389   3.514   5.419  13.846 -0.1251 -1.7084  0.6792
 1658TIP3    H226390   3.644   5.397  13.920  0.9776  1.7092 -0.0507
 1659TIP3   OH226391   0.071   5.588  12.344 -0.0289  0.2059 -0.1978
 1659TIP3    H126392   0.126   5.553  12.275  0.6043  0.3172  0.2456
 1659TIP3    H226393   0.022   5.512  12.377 -0.1414  0.1084 -0.5885
 1660TIP3   OH226394   0.224   2.934  10.628 -0.4299 -0.7920 -0.2544
 1660TIP3    H126395   0.317   2.956  10.617 -0.7003 -0.5561 -2.4106
 1660TIP3    H226396   0.178   3.009  10.590 -1.4829 -1.4605 -0.3036
 1661TIP3   OH226397   5.786   2.991  13.381  0.0445  0.2976  0.7260
 1661TIP3    H126398   5.741   2.915  13.418 -1.1861  1.2499  1.2281
 1661TIP3    H226399   5.725   3.064  13.393  0.4983  1.0621 -1.2634
 1662TIP3   OH226400   2.379   3.174   5.417 -0.3547  0.3564  0.3458
 1662TIP3    H126401   2.315   3.245   5.427 -1.0751 -0.3940  1.1662
 1662TIP3    H226402   2.330   3.105   5.372  0.8788  1.0454 -2.2732
 1663TIP3   OH226403   6.668   6.859   0.338  0.0613  0.5768  0.0966
 1663TIP3    H126404   6.583   6.889   0.368  0.3761  0.8691  0.7219
 1663TIP3    H226405   6.679   6.898   0.251 -0.8810 -0.3106 -0.4300
 1664TIP3   OH226406   4.388   4.330   1.710 -0.3381 -0.3945  0.1916
 1664TIP3    H126407   4.392   4.285   1.625 -1.1619  0.1178 -0.1343
 1664TIP3    H226408   4.369   4.421   1.688  1.4226  0.1677  0.8462
 1665TIP3   OH226409   5.644   3.967   0.425 -0.0911  1.1247 -0.2008
 1665TIP3    H126410   5.640   3.874   0.448 -1.4361  1.4310  0.9007
 1665TIP3    H226411   5.701   3.970   0.348  0.4495 -0.5358  0.0954
 1666TIP3   OH226412   0.884   4.993   1.082  0.0200  0.5136  0.1772
 1666TIP3    H126413   0.855   5.065   1.025 -0.0293 -1.5054 -2.5549
 1666TIP3    H226414   0.956   5.030   1.133 -0.7390  2.7873 -0.2753
 1667TIP3   OH226415   1.529   2.761   6.069 -0.2740 -0.0989  0.2392
 1667TIP3    H126416   1.438   2.791   6.078 -0.1255  0.5589 -0.3990
 1667TIP3    H226417   1.521   2.667   6.051 -1.0631  0.5702 -3.7495
 1668TIP3   OH226418   1.833   2.704  13.439 -0.2545  0.3779  0.1397
 1668TIP3    H126419   1.783   2.632  13.477  0.1664  0.9823  1.9440
 1668TIP3    H226420   1.919   2.666  13.421 -0.4970  0.0510 -0.3425
 1669TIP3   OH226421   0.556   0.601   2.316 -0.4362  0.6851 -0.5621
 1669TIP3    H126422   0.462   0.584   2.308 -0.4952  0.1719  0.9135
 1669TIP3    H226423   0.566   0.691   2.285 -1.3303  0.5816 -1.1991
 1670TIP3   OH226424   0.215   2.944   0.434  0.3617 -0.4826 -0.2069
 1670TIP3    H126425   0.288   2.977   0.487 -0.0144 -0.3777  0.2602
 1670TIP3    H226426   0.256   2.890   0.366  0.8309 -1.0988  0.5414
 1671TIP3   OH226427   0.590   3.458  10.746 -0.4941 -0.0924  0.3845
 1671TIP3    H126428   0.617   3.374  10.783 -2.6483 -0.5706  1.0401
 1671TIP3    H226429   0.665   3.487  10.694  1.8923 -0.3820  3.4244
 1672TIP3   OH226430   2.135   5.714   3.621 -0.2981  0.1338 -0.0624
 1672TIP3    H126431   2.208   5.721   3.683  0.2573 -0.4876 -0.6255
 1672TIP3    H226432   2.062   5.682   3.674  0.2235 -0.5726  0.2596
 1673TIP3   OH226433   5.091   1.834   2.679 -0.3251 -0.0625 -0.0471
 1673TIP3    H126434   5.097   1.788   2.763 -1.7591  1.4793  0.9581
 1673TIP3    H226435   5.046   1.772   2.622  0.9092 -1.2416  0.2040
 1674TIP3   OH226436   3.200   4.035   1.397  0.9955  0.2930 -0.2147
 1674TIP3    H126437   3.272   4.086   1.433 -0.9165  1.6880  1.9051
 1674TIP3    H226438   3.142   4.100   1.358 -0.5767 -0.4376  0.8284
 1675TIP3   OH226439   0.740   3.471  15.090  0.1142  0.0943  0.1432
 1675TIP3    H126440   0.696   3.477  15.006  0.7164  0.7867 -0.1352
 1675TIP3    H226441   0.752   3.562  15.117 -0.1177 -0.1224  1.0056
 1676TIP3   OH226442   1.997   1.997  14.077 -0.2062  0.3988  0.0254
 1676TIP3    H126443   1.971   1.932  14.142  0.3002 -0.3270 -0.4840
 1676TIP3    H226444   1.917   2.012  14.026 -0.0096 -0.8503 -0.7044
 1677TIP3   OH226445   5.624   5.204  15.676  0.1550  0.4951 -0.3320
 1677TIP3    H126446   5.671   5.278  15.715  0.5920  0.4496 -0.7587
 1677TIP3    H226447   5.664   5.127  15.718  1.2325  0.3971 -1.4559
 1678TIP3   OH226448   5.985   0.268   5.316 -0.3119  0.2449 -0.0863
 1678TIP3    H126449   6.007   0.305   5.402 -0.2126 -0.0641  0.0239
 1678TIP3    H226450   5.958   0.343   5.264  0.9015  0.6356 -0.1944
 1679TIP3   OH226451   1.357   5.913   5.080  0.5814 -0.5521 -0.6718
 1679TIP3    H126452   1.271   5.870   5.084  0.0094  0.6365  1.0338
 1679TIP3    H226453   1.418   5.842   5.061 -0.3528 -2.1304  1.7699
 1680TIP3   OH226454   6.700   2.811  12.927 -0.2460 -0.5547  0.4563
 1680TIP3    H126455   6.653   2.883  12.886 -0.3848 -1.1026 -0.3772
 1680TIP3    H226456   6.790   2.842  12.935 -0.7267  0.5128  2.0871
 1681TIP3   OH226457   1.218   1.422  10.821  0.1865 -0.1143 -0.5218
 1681TIP3    H126458   1.254   1.358  10.759 -0.5260 -1.8950  0.8391
 1681TIP3    H226459   1.177   1.488  10.765 -2.6755 -2.9110 -2.0830
 1682TIP3   OH226460   1.821   0.000  15.504 -0.0564 -0.0162 -0.0404
 1682TIP3    H126461   1.730  -0.028  15.513  0.0210 -0.3572 -0.3050
 1682TIP3    H226462   1.819   0.094  15.522 -0.6444  0.2052 -1.1426
 1683TIP3   OH226463   4.987   5.988   3.199 -0.5312  0.0488  0.4770
 1683TIP3    H126464   4.993   5.976   3.104 -0.5536 -0.3185  0.5211
 1683TIP3    H226465   4.930   5.918   3.229  0.1647 -0.3602  0.8714
 1684TIP3   OH226466   4.940   5.202   2.049 -0.1070 -1.0478 -0.2589
 1684TIP3    H126467   4.984   5.194   1.964  0.7858 -1.1840  0.2078
 1684TIP3    H226468   4.994   5.152   2.109 -0.1439 -0.0819  0.6124
 1685TIP3   OH226469   5.321   3.093   1.251  0.0560 -0.2545  0.0528
 1685TIP3    H126470   5.411   3.097   1.218  0.2750 -0.2019  0.6452
 1685TIP3    H226471   5.284   3.177   1.226 -0.1708 -0.6919 -1.1374
 1686TIP3   OH226472   3.868   4.001  12.834 -0.0345  0.4081 -0.3320
 1686TIP3    H126473   3.877   3.935  12.903  0.1999  1.5421  0.7618
 1686TIP3    H226474   3.804   3.964  12.773  1.2178 -1.4924 -0.5737
 1687TIP3   OH226475   2.243   0.463  10.949 -0.1036 -0.5429 -0.0940
 1687TIP3    H126476   2.162   0.432  10.988 -0.2044 -1.8407 -1.2324
 1687TIP3    H226477   2.244   0.557  10.966 -1.3024 -0.6843  0.8833
 1688TIP3   OH226478   1.703   4.159  12.903  0.2771  0.0075 -0.0819
 1688TIP3    H126479   1.656   4.098  12.845 -0.6860 -0.1825  0.8748
 1688TIP3    H226480   1.775   4.107  12.938  0.1549 -0.2341 -0.1791
 1689TIP3   OH226481   2.475   6.094  12.682  0.4173 -0.2071 -0.7600
 1689TIP3    H126482   2.543   6.045  12.729 -0.9070 -2.2829 -0.8915
 1689TIP3    H226483   2.433   6.030  12.626  0.0557  1.6058 -2.7046
 1690TIP3   OH226484   3.136   2.985   3.054  0.2401 -0.1241  0.3857
 1690TIP3    H126485   3.211   2.941   3.093  0.8527 -0.3917 -1.0174
 1690TIP3    H226486   3.061   2.952   3.103  0.9577 -0.5316  1.2379
 1691TIP3   OH226487   3.310   3.972   6.045  0.3872 -0.2787  0.6567
 1691TIP3    H126488   3.350   4.036   5.987 -1.5427 -0.9756 -1.6294
 1691TIP3    H226489   3.226   4.011   6.070  0.5854 -0.5938  1.8973
 1692TIP3   OH226490   3.953   2.011  12.407  0.0846  0.1459  0.1709
 1692TIP3    H126491   3.931   2.008  12.500  2.3944 -3.9492  0.8431
 1692TIP3    H226492   3.894   1.947  12.367 -0.3395  1.2877 -1.1034
 1693TIP3   OH226493   1.713   0.959   2.304 -0.0334  0.3634  0.2667
 1693TIP3    H126494   1.722   0.865   2.320  0.8536  0.3024 -0.5243
 1693TIP3    H226495   1.803   0.989   2.290 -0.2941  1.3708  0.7123
 1694TIP3   OH226496   0.817   4.551   4.328 -0.4494 -0.2783  0.2017
 1694TIP3    H126497   0.735   4.588   4.359 -0.8644  0.3097 -1.5003
 1694TIP3    H226498   0.803   4.536   4.234  0.6403 -2.2225  0.2942
 1695TIP3   OH226499   3.804   1.034  14.718  0.1150 -0.0324 -0.0728
 1695TIP3    H126500   3.849   1.057  14.637 -2.8410 -0.7579 -2.0619
 1695TIP3    H226501   3.745   1.108  14.734 -1.2947 -1.1166 -0.1389
 1696TIP3   OH226502   3.865   0.267   1.813  0.2629 -0.3087  0.1238
 1696TIP3    H126503   3.872   0.344   1.755  0.8662  0.4361  1.1505
 1696TIP3    H226504   3.907   0.295   1.894 -1.6335 -0.9209  1.3707
 1697TIP3   OH226505   1.161   0.358   5.175 -0.5184 -0.4723  0.4824
 1697TIP3    H126506   1.207   0.283   5.139 -1.6071 -1.1134  0.3719
 1697TIP3    H226507   1.195   0.433   5.126 -0.6853 -1.1133 -0.6498
 1698TIP3   OH226508   4.188   3.855  11.041  0.2894  0.3700  0.2169
 1698TIP3    H126509   4.126   3.814  11.102 -0.1739 -1.4385 -1.3650
 1698TIP3    H226510   4.266   3.799  11.044 -0.2839 -0.6586 -1.8421
 1699TIP3   OH226511   6.731   6.592  15.190 -0.2650 -0.0909  0.2340
 1699TIP3    H126512   6.716   6.586  15.284 -0.2363 -1.4887  0.1732
 1699TIP3    H226513   6.774   6.509  15.168 -2.3328 -0.8150 -1.3806
 1700TIP3   OH226514   5.682   6.013   9.974  0.3296 -0.3810  0.0373
 1700TIP3    H126515   5.636   5.987  10.054 -0.2350 -0.6107 -0.3532
 1700TIP3    H226516   5.756   6.066  10.004 -1.6975  2.3564  0.5815
 1701TIP3   OH226517   1.638   2.963  15.049  0.1552 -0.4247  0.2428
 1701TIP3    H126518   1.662   2.979  15.141 -1.6716  1.7008  0.4446
 1701TIP3    H226519   1.583   2.885  15.052 -1.3678  0.6311  1.2842
 1702TIP3   OH226520   1.227   2.883  16.709 -0.0408 -0.2345 -0.4966
 1702TIP3    H126521   1.161   2.946  16.683 -0.1985 -0.8995 -1.7840
 1702TIP3    H226522   1.226   2.817  16.640  4.2865  1.3800 -2.4944
 1703TIP3   OH226523   6.718   6.759   5.262 -0.3388  0.4141 -0.5504
 1703TIP3    H126524   6.634   6.796   5.233 -0.5787  0.5126  0.2263
 1703TIP3    H226525   6.724   6.674   5.218 -0.4347  0.7810 -1.2857
 1704TIP3   OH226526   1.141   5.425   3.792 -0.6287  0.0840 -0.2196
 1704TIP3    H126527   1.116   5.386   3.875 -0.0999 -0.3454 -0.2604
 1704TIP3    H226528   1.209   5.368   3.757 -0.0874  0.8456 -0.4442
 1705TIP3   OH226529   2.876   4.895   4.438 -0.0608  0.5583  0.1663
 1705TIP3    H126530   2.863   4.818   4.494 -2.0324  0.3493 -0.5077
 1705TIP3    H226531   2.846   4.968   4.491  1.5422  0.8761  0.6979
 1706TIP3   OH226532   3.549   5.222   0.704 -0.8399 -0.4425 -0.0349
 1706TIP3    H126533   3.565   5.285   0.634  0.1563 -0.4159  0.2075
 1706TIP3    H226534   3.461   5.242   0.735 -0.7841  0.4029 -0.4026
 1707TIP3   OH226535   6.086   1.088   2.776  0.4420 -0.0838 -0.3122
 1707TIP3    H126536   6.046   1.175   2.772  0.8059  0.2998  2.2166
 1707TIP3    H226537   6.077   1.063   2.868  1.4912 -2.1867 -0.7346
 1708TIP3   OH226538   6.381   0.950   3.345  0.4252 -0.2156  0.0227
 1708TIP3    H126539   6.375   0.867   3.390  0.1794  0.7180  1.7815
 1708TIP3    H226540   6.368   1.016   3.413 -0.9257  1.2505 -1.5524
 1709TIP3   OH226541   2.333   6.539   2.203 -0.0094 -0.1611 -0.2093
 1709TIP3    H126542   2.400   6.471   2.194 -0.1941 -0.1135 -2.3560
 1709TIP3    H226543   2.257   6.503   2.157 -1.3690 -0.0282  1.8022
 1710TIP3   OH226544   4.863   4.463  12.390 -0.1422 -0.4800  0.2640
 1710TIP3    H126545   4.897   4.374  12.401 -0.2808 -0.6257 -0.4560
 1710TIP3    H226546   4.841   4.469  12.297  0.5617  0.5486  0.1410
 1711TIP3   OH226547   4.533   3.576   4.035  0.3558 -0.1085 -0.0504
 1711TIP3    H126548   4.440   3.555   4.022 -0.3244  1.9523  0.9703
 1711TIP3    H226549   4.555   3.536   4.119  0.1205  0.1084  0.1188
 1712TIP3   OH226550   2.687   5.297  14.359 -0.3777 -0.0419 -0.7590
 1712TIP3    H126551   2.670   5.269  14.270 -3.2968 -1.6875  0.1795
 1712TIP3    H226552   2.627   5.244  14.413 -0.6199  2.6862  1.9339
 1713TIP3   OH226553   0.800   3.115  14.148  0.3126  0.8629 -0.0001
 1713TIP3    H126554   0.733   3.053  14.175  1.0700  0.3367  0.7275
 1713TIP3    H226555   0.754   3.179  14.095 -0.5609 -0.1023 -0.4319
 1714TIP3   OH226556   6.142   1.815   3.123  0.0217 -0.3116 -0.7511
 1714TIP3    H126557   6.172   1.741   3.070  0.1613  0.3655 -1.6296
 1714TIP3    H226558   6.125   1.885   3.060 -0.9690  0.1330 -0.0176
 1715TIP3   OH226559   3.798   6.432  16.193 -0.4233 -0.3260 -0.2924
 1715TIP3    H126560   3.737   6.383  16.248  0.7918 -1.4388  0.1418
 1715TIP3    H226561   3.882   6.425  16.238 -0.0327  1.5270 -0.6411
 1716TIP3   OH226562   3.994   4.895  11.272 -0.0136  0.1360  0.2303
 1716TIP3    H126563   4.031   4.913  11.185 -1.4073 -1.9408 -0.8843
 1716TIP3    H226564   4.058   4.838  11.314  1.0330  1.7632  0.9352
 1717TIP3   OH226565   3.030   5.558  14.031 -0.4181  0.1551 -0.1213
 1717TIP3    H126566   2.936   5.567  14.047 -0.5037 -1.9178  0.8101
 1717TIP3    H226567   3.071   5.588  14.112 -0.4880 -2.2293  0.8817
 1718TIP3   OH226568   0.833   2.416  12.217 -0.0862 -0.2953 -0.0996
 1718TIP3    H126569   0.840   2.396  12.311  1.0671  2.6533  0.5739
 1718TIP3    H226570   0.740   2.430  12.202 -0.3613 -1.4726  0.4276
 1719TIP3   OH226571   6.015   3.592  12.917  0.4635 -0.3583 -0.0366
 1719TIP3    H126572   5.951   3.653  12.954 -1.1518 -2.1932  0.3416
 1719TIP3    H226573   6.039   3.535  12.991  0.0889 -1.6871 -0.9122
 1720TIP3   OH226574   5.729   6.621  10.805  0.0222 -0.4063 -0.0090
 1720TIP3    H126575   5.655   6.565  10.781  0.3888 -0.5510 -0.8432
 1720TIP3    H226576   5.793   6.561  10.844  1.1226 -0.9330 -2.4245
 1721TIP3   OH226577   2.200   1.070  13.075  0.0301  0.7381 -0.0322
 1721TIP3    H126578   2.161   1.156  13.087  0.6549  0.9254  0.7570
 1721TIP3    H226579   2.278   1.086  13.021 -0.1122  0.5930 -0.2862
 1722TIP3   OH226580   6.349   3.312   1.390  0.5305  0.1284  0.0759
 1722TIP3    H126581   6.362   3.221   1.366 -1.1868 -0.1140 -0.0593
 1722TIP3    H226582   6.277   3.310   1.454 -0.1261  1.4407 -0.5794
 1723TIP3   OH226583   4.124   6.364  13.702  0.4440  0.2266  0.1318
 1723TIP3    H126584   4.152   6.413  13.625  5.4394 -1.5528  0.4728
 1723TIP3    H226585   4.127   6.272  13.674  0.7233 -0.3709  2.0016
 1724TIP3   OH226586   0.043   3.619   2.188  0.0497 -0.0149  0.1119
 1724TIP3    H126587   0.118   3.616   2.247  1.3903  1.2463 -1.4423
 1724TIP3    H226588  -0.019   3.678   2.231  1.2702  1.3956  0.0109
 1725TIP3   OH226589   5.656   2.326   4.591  0.3267  0.3103  0.2518
 1725TIP3    H126590   5.719   2.305   4.522 -0.5850  0.5121 -0.6737
 1725TIP3    H226591   5.570   2.314   4.549 -0.2764 -1.0850  1.8212
 1726TIP3   OH226592   2.927   2.383  14.142 -0.0213 -0.9645 -0.4583
 1726TIP3    H126593   2.938   2.345  14.229  0.6354 -0.7274 -0.4305
 1726TIP3    H226594   3.002   2.350  14.092  0.5640  0.2823 -0.4278
 1727TIP3   OH226595   5.519   6.613  14.729 -0.1176  0.4030 -0.1097
 1727TIP3    H126596   5.449   6.678  14.720 -1.6019 -1.2420 -0.9970
 1727TIP3    H226597   5.558   6.608  14.641 -0.6357 -0.5475 -0.2976
 1728TIP3   OH226598   3.944   3.539   5.313  0.1680 -0.4715 -0.4747
 1728TIP3    H126599   3.999   3.466   5.284  0.0647 -0.0176 -1.9035
 1728TIP3    H226600   3.907   3.510   5.396  2.5977 -0.7811  0.5842
 1729TIP3   OH226601   3.108   2.086   5.689  0.3519 -0.2605  0.4912
 1729TIP3    H126602   3.047   2.012   5.683 -0.4294  0.2999  1.3122
 1729TIP3    H226603   3.141   2.082   5.778  0.0963  0.5388  0.6282
 1730TIP3   OH226604   1.913   6.440   1.363 -0.0166  0.1509 -0.4596
 1730TIP3    H126605   1.961   6.522   1.376  0.2638 -0.2478  1.1990
 1730TIP3    H226606   1.882   6.416   1.450 -0.7579 -1.1220 -1.0470
 1731TIP3   OH226607   6.312   3.079   2.623  0.3271 -0.3595  0.6436
 1731TIP3    H126608   6.380   3.021   2.591  0.2448  0.1965 -0.5899
 1731TIP3    H226609   6.242   3.020   2.653 -0.6701 -1.0092 -2.5332
 1732TIP3   OH226610   6.474   2.705  16.601 -0.2449 -0.0665  0.2179
 1732TIP3    H126611   6.540   2.662  16.546 -1.0003 -0.2874 -0.5541
 1732TIP3    H226612   6.520   2.728  16.681  0.4427 -1.4052  0.2303
 1733TIP3   OH226613   1.833   3.425  14.764 -0.4458 -0.0402  0.0552
 1733TIP3    H126614   1.863   3.408  14.852  1.4615 -0.3673 -0.6192
 1733TIP3    H226615   1.793   3.513  14.768  2.0124  1.1213  0.7267
 1734TIP3   OH226616   2.939   5.308   0.660 -0.6521 -0.2899 -0.6004
 1734TIP3    H126617   2.934   5.252   0.583 -1.5061 -0.5124 -0.4007
 1734TIP3    H226618   3.031   5.308   0.685 -0.9078 -3.6749  0.8881
 1735TIP3   OH226619   5.802   4.647   3.639  0.1109 -0.2442  0.4411
 1735TIP3    H126620   5.841   4.733   3.649 -0.4116  0.0759 -0.1758
 1735TIP3    H226621   5.873   4.585   3.655  1.4182  0.3080 -2.6213
 1736TIP3   OH226622   2.357   2.011   5.446  0.0842  0.3908 -0.3509
 1736TIP3    H126623   2.336   2.020   5.539 -1.0052  1.5716 -0.6920
 1736TIP3    H226624   2.432   1.952   5.444  1.1905  1.6514  1.3950
 1737TIP3   OH226625   6.705   0.274  15.827  0.6420  0.2799  0.5337
 1737TIP3    H126626   6.665   0.352  15.864 -1.3822 -0.5832  0.2913
 1737TIP3    H226627   6.781   0.306  15.778 -2.6384  2.7597 -3.4827
 1738TIP3   OH226628   5.861   5.607   2.963 -0.3389 -0.2037  0.4135
 1738TIP3    H126629   5.817   5.689   2.986  2.2335  1.0316  1.3340
 1738TIP3    H226630   5.853   5.602   2.868 -0.4814  1.1660  0.3324
 1739TIP3   OH226631   4.482   1.502  15.981 -0.4078  0.7626  0.1543
 1739TIP3    H126632   4.505   1.493  15.888  0.4330  1.4376  0.2838
 1739TIP3    H226633   4.442   1.589  15.987  1.0688  1.4294  0.7022
 1740TIP3   OH226634   5.143   0.120  16.346  0.0808 -0.0088 -0.0196
 1740TIP3    H126635   5.188   0.086  16.268 -0.0606  1.5050 -0.7915
 1740TIP3    H226636   5.071   0.058  16.360 -0.6643  0.3605 -1.8803
 1741TIP3   OH226637   6.834   6.081   5.186  0.4052 -0.3583  0.1672
 1741TIP3    H126638   6.817   5.992   5.155  0.9635 -0.4922  0.2483
 1741TIP3    H226639   6.748   6.112   5.217  0.4141 -1.2322  1.0943
 1742TIP3   OH226640   4.292   4.547   0.190 -0.5246  0.1150 -0.0323
 1742TIP3    H126641   4.360   4.513   0.248  0.4460  1.4973 -0.3256
 1742TIP3    H226642   4.210   4.530   0.237  0.1757  0.5083  1.3864
 1743TIP3   OH226643   2.624   5.849   1.477  0.2854  0.4155  0.9274
 1743TIP3    H126644   2.701   5.880   1.526  1.0059  0.4565 -0.2028
 1743TIP3    H226645   2.652   5.766   1.439 -1.0226 -0.7503  2.3988
 1744TIP3   OH226646   0.971   1.944  11.774  0.2528  0.6879 -0.0664
 1744TIP3    H126647   1.022   1.942  11.693  0.7087 -2.6833  0.1685
 1744TIP3    H226648   0.886   1.909  11.750  0.2318  0.1130  0.8073
 1745TIP3   OH226649   0.365   4.592  15.155  0.1138 -0.4138 -0.5084
 1745TIP3    H126650   0.372   4.682  15.188  0.5698 -0.6071 -0.0679
 1745TIP3    H226651   0.311   4.600  15.077 -1.1832  0.0297  0.3980
 1746TIP3   OH226652   0.062   4.704   4.646 -0.2853  0.4338  0.0571
 1746TIP3    H126653  -0.031   4.697   4.669  0.1382  0.0122  1.7886
 1746TIP3    H226654   0.104   4.739   4.725  1.0382  0.6153 -0.6914
 1747TIP3   OH226655   3.669   4.814   2.846 -0.4947 -0.3219 -0.1276
 1747TIP3    H126656   3.663   4.896   2.895  1.6457 -1.6572  2.6495
 1747TIP3    H226657   3.746   4.825   2.790 -2.9038  1.1790 -3.4654
 1748TIP3   OH226658   1.697   4.515   0.627 -0.2491  0.0265 -0.5736
 1748TIP3    H126659   1.735   4.552   0.707  0.8817  0.9890 -1.5100
 1748TIP3    H226660   1.702   4.586   0.563  0.5904 -1.2636 -2.0123
 1749TIP3   OH226661   2.720   2.205  12.892 -0.0281  0.1602  0.0441
 1749TIP3    H126662   2.661   2.183  12.965 -0.9189 -0.2674 -0.7771
 1749TIP3    H226663   2.675   2.275  12.845 -0.3971 -0.8481 -1.1727
 1750TIP3   OH226664   5.343   4.605  10.569  0.5100  0.2480  0.5236
 1750TIP3    H126665   5.256   4.568  10.552  0.5848  0.2006  0.2342
 1750TIP3    H226666   5.370   4.566  10.652  0.5112 -0.2135  0.3100
 1751TIP3   OH226667   3.530   4.812   3.117  0.2648 -0.3815  0.3420
 1751TIP3    H126668   3.545   4.732   3.066 -0.4405 -1.1994  1.3548
 1751TIP3    H226669   3.611   4.825   3.165  0.4709 -0.3444 -0.0110
 1752TIP3   OH226670   2.902   4.218  10.347  1.1377 -0.3996  0.1616
 1752TIP3    H126671   2.994   4.199  10.360  1.6287  0.8462 -1.1614
 1752TIP3    H226672   2.901   4.305  10.308 -0.5884 -0.5147 -0.1400
 1753TIP3   OH226673   1.090   3.408   3.610 -0.4388  1.0116 -0.1387
 1753TIP3    H126674   1.143   3.471   3.659 -0.2585  0.0639  0.9196
 1753TIP3    H226675   1.035   3.366   3.676 -0.9979  0.4992 -0.9209
 1754TIP3   OH226676   3.090   5.011  14.270  0.1418  0.4738 -0.0341
 1754TIP3    H126677   3.174   5.009  14.315  0.1463 -0.0328 -0.0607
 1754TIP3    H226678   3.037   5.073  14.320  0.6155  1.0069 -0.1749
 1755TIP3   OH226679   5.157   5.342  10.294 -0.3011 -0.2236 -0.1631
 1755TIP3    H126680   5.196   5.256  10.280 -2.2377 -0.9673 -1.4676
 1755TIP3    H226681   5.148   5.378  10.206 -3.1208 -0.4278 -0.0346
 1756TIP3   OH226682   0.017   3.724   5.676  0.3527  0.0688  0.0197
 1756TIP3    H126683   0.020   3.689   5.587  0.5726  1.2899 -0.4713
 1756TIP3    H226684   0.101   3.769   5.687  1.6169 -2.5000  1.9085
 1757TIP3   OH226685   3.837   1.093  11.282  0.2306  0.4545 -0.5344
 1757TIP3    H126686   3.908   1.041  11.244  0.3142 -1.8600  2.3699
 1757TIP3    H226687   3.757   1.044  11.259  0.0145  0.6408 -0.1872
 1758TIP3   OH226688   1.115   5.716   0.016 -0.0188 -0.6993  0.3115
 1758TIP3    H126689   1.124   5.757   0.102  1.0483  0.1407 -0.1697
 1758TIP3    H226690   1.204   5.708  -0.017 -0.4808  2.2175 -2.1495
 1759TIP3   OH226691   2.742   5.566  15.893 -0.2187 -0.2928 -0.3368
 1759TIP3    H126692   2.819   5.509  15.880 -1.6121 -1.8049 -2.6725
 1759TIP3    H226693   2.764   5.646  15.845 -0.5839 -1.2671 -2.2287
 1760TIP3   OH226694   0.419   0.402  15.178  0.7062  0.2178  0.2647
 1760TIP3    H126695   0.418   0.412  15.273 -0.6837  1.9948  0.1191
 1760TIP3    H226696   0.348   0.340  15.160 -2.5523  3.5901  0.2021
 1761TIP3   OH226697   1.826   2.871  15.510 -0.2904 -0.3917  1.0262
 1761TIP3    H126698   1.819   2.854  15.604  0.7687 -0.3920  1.1094
 1761TIP3    H226699   1.885   2.945  15.503 -0.0247 -0.6605  0.3372
 1762TIP3   OH226700   5.770   0.437  14.594  0.3495  0.3953 -0.4558
 1762TIP3    H126701   5.805   0.520  14.627 -0.5935  0.2269  1.0709
 1762TIP3    H226702   5.690   0.423  14.645 -0.0549 -0.9553 -1.4058
 1763TIP3   OH226703   1.934   4.801   3.382  0.2123 -0.0398  0.6062
 1763TIP3    H126704   2.012   4.825   3.431 -1.0271  2.0834  1.7149
 1763TIP3    H226705   1.862   4.840   3.431 -1.3303  0.1136 -1.6177
 1764TIP3   OH226706   1.306   4.117   1.980  0.5671  0.0679 -0.2635
 1764TIP3    H126707   1.246   4.146   1.911  0.3491  0.5490  0.1282
 1764TIP3    H226708   1.255   4.055   2.032  0.2608  0.7929  0.3210
 1765TIP3   OH226709   5.264   0.988   3.031 -0.0785 -0.2845 -0.2334
 1765TIP3    H126710   5.310   0.958   3.110 -0.6896  0.0303  0.2547
 1765TIP3    H226711   5.299   0.933   2.961  1.3352  0.2200  0.0385
 1766TIP3   OH226712   2.715   5.843   2.229 -0.7359  0.0360 -0.2666
 1766TIP3    H126713   2.805   5.860   2.255 -0.1702 -0.0239 -2.0288
 1766TIP3    H226714   2.669   5.926   2.245 -0.0113  0.5342 -0.7506
 1767TIP3   OH226715   6.258   6.635  15.830  0.0097  0.2120 -0.3246
 1767TIP3    H126716   6.284   6.543  15.835 -0.5955 -0.0002 -0.8486
 1767TIP3    H226717   6.163   6.632  15.816  0.0778  0.8989 -1.0517
 1768TIP3   OH226718   5.072   2.898   1.801 -0.0223 -0.2014  0.3693
 1768TIP3    H126719   5.023   2.834   1.749  0.6764  0.0768 -0.6518
 1768TIP3    H226720   5.070   2.978   1.749 -1.8561  1.0062  2.1279
 1769TIP3   OH226721   2.684   5.544   3.334 -0.2154  0.2544 -0.0556
 1769TIP3    H126722   2.662   5.510   3.421  0.7153  0.0509  0.1086
 1769TIP3    H226723   2.682   5.467   3.278  2.2511 -0.2145  0.3824
 1770TIP3   OH226724   3.023   0.777  11.407 -0.3264 -0.1062 -0.5513
 1770TIP3    H126725   3.008   0.789  11.501 -0.5609 -0.4499 -0.5457
 1770TIP3    H226726   3.118   0.773  11.398 -0.2334 -4.4353  0.2344
 1771TIP3   OH226727   4.924   1.148  13.777 -0.3713 -0.6721 -0.2538
 1771TIP3    H126728   4.829   1.155  13.774 -0.2827  0.9493 -0.3046
 1771TIP3    H226729   4.952   1.150  13.685 -0.2795 -1.0157 -0.2345
 1772TIP3   OH226730   6.437   2.059  11.851  0.1904 -0.2404 -0.0832
 1772TIP3    H126731   6.508   2.071  11.914 -0.0162 -1.6098  0.4494
 1772TIP3    H226732   6.473   2.091  11.768  0.4426  1.6548  0.7211
 1773TIP3   OH226733   6.763   4.397  14.735 -0.3409 -0.2509 -0.5431
 1773TIP3    H126734   6.711   4.449  14.795  1.6187  1.0943  0.0922
 1773TIP3    H226735   6.818   4.343  14.792  0.3742 -0.1593 -1.1299
 1774TIP3   OH226736   3.305   2.475   0.670  0.1459 -0.3014 -0.3996
 1774TIP3    H126737   3.290   2.504   0.760 -3.1672 -0.5864 -0.7411
 1774TIP3    H226738   3.347   2.549   0.627  0.6086  0.3038  1.0278
 1775TIP3   OH226739   1.126   2.831   3.549  0.0408  0.5771  0.5327
 1775TIP3    H126740   1.144   2.904   3.608 -0.0607  1.4796 -0.5099
 1775TIP3    H226741   1.209   2.813   3.506  0.4913 -1.0834  1.9864
 1776TIP3   OH226742   2.384   2.142   3.870  0.0193  0.2187  0.1949
 1776TIP3    H126743   2.415   2.052   3.866  0.6603  0.4127  0.6804
 1776TIP3    H226744   2.389   2.173   3.779  1.0437  0.1754  0.2279
 1777TIP3   OH226745   2.286   2.543  14.553 -0.3148  0.1853  0.2983
 1777TIP3    H126746   2.250   2.565  14.467  1.4477 -0.9067 -0.8111
 1777TIP3    H226747   2.244   2.460  14.576  0.5650 -0.5107 -0.4679
 1778TIP3   OH226748   3.631   3.823  12.096 -0.6152 -0.0356 -0.6716
 1778TIP3    H126749   3.646   3.857  12.008  0.0004 -3.0157 -1.8426
 1778TIP3    H226750   3.561   3.758  12.086 -2.7582  1.7008  1.6926
 1779TIP3   OH226751   5.929   4.048   1.285 -0.1909  0.1484 -0.1229
 1779TIP3    H126752   5.903   3.994   1.210  0.6352 -0.4174 -0.0113
 1779TIP3    H226753   5.987   4.114   1.247  0.1098 -0.0490 -0.0114
 1780TIP3   OH226754   2.497   2.728   5.093  0.1665  0.0221 -0.1773
 1780TIP3    H126755   2.462   2.644   5.125  1.6411 -1.1693 -1.5402
 1780TIP3    H226756   2.591   2.715   5.090  0.3240  1.2795 -1.6505
 1781TIP3   OH226757   6.572   0.490  15.940 -0.0880  0.2094 -0.0466
 1781TIP3    H126758   6.598   0.572  15.900  0.2714  0.1063 -0.0255
 1781TIP3    H226759   6.536   0.515  16.026 -0.1853  0.3615 -0.1309
 1782TIP3   OH226760   6.222   4.034  13.174 -0.0162  0.2951 -0.2891
 1782TIP3    H126761   6.164   3.984  13.116  0.4154  1.8115 -2.1686
 1782TIP3    H226762   6.163   4.079  13.234 -0.6248 -0.1033 -0.5824
 1783TIP3   OH226763   4.661   3.629  12.830 -0.0188  0.0334 -0.0760
 1783TIP3    H126764   4.597   3.698  12.845  0.9460  0.9971 -0.2285
 1783TIP3    H226765   4.627   3.553  12.877 -0.6572  0.8744  0.8527
 1784TIP3   OH226766   4.797   2.632  11.802  0.3946 -0.3879  0.4839
 1784TIP3    H126767   4.809   2.575  11.726  1.2056  0.0980  0.2346
 1784TIP3    H226768   4.846   2.711  11.780  0.6096 -0.2307  1.5040
 1785TIP3   OH226769   2.659   2.953   3.200 -0.7820  0.3831  0.2527
 1785TIP3    H126770   2.611   2.871   3.197  0.3786 -0.3108 -2.0917
 1785TIP3    H226771   2.599   3.018   3.163 -1.6714  0.6132  2.0371
 1786TIP3   OH226772   3.027   5.345   2.809  0.6750  0.2212 -0.4363
 1786TIP3    H126773   3.015   5.333   2.903  0.7687 -0.9061 -0.5546
 1786TIP3    H226774   2.987   5.430   2.791  1.0764  0.6694  0.6910
 1787TIP3   OH226775   4.713   6.666   1.820  0.1464  0.1744  0.0155
 1787TIP3    H126776   4.798   6.711   1.825 -1.0460  2.5904 -0.2081
 1787TIP3    H226777   4.679   6.688   1.734 -0.5284 -1.1842 -0.0934
 1788TIP3   OH226778   3.020   3.968  12.500 -0.2616  0.2044  0.2112
 1788TIP3    H126779   3.050   3.881  12.526 -2.7478 -0.2989  1.7422
 1788TIP3    H226780   2.945   3.985  12.556  0.5077  3.6502  0.3800
 1789TIP3   OH226781   0.926   4.683  15.857 -0.2788 -0.5114  0.2691
 1789TIP3    H126782   0.954   4.661  15.768 -0.0293 -2.2747  0.7476
 1789TIP3    H226783   0.914   4.598  15.900 -0.1403  0.3058  2.0059
 1790TIP3   OH226784   2.703   2.674  15.619 -0.3997  0.1101 -0.2092
 1790TIP3    H126785   2.615   2.698  15.592 -0.0629  0.2953 -1.1613
 1790TIP3    H226786   2.754   2.670  15.538  0.3513 -0.4905  0.2683
 1791TIP3   OH226787   3.351   5.293  14.156 -0.5589  0.4763 -0.0611
 1791TIP3    H126788   3.379   5.218  14.105  3.1541  1.1081  0.7595
 1791TIP3    H226789   3.370   5.270  14.247 -1.1071  1.7004  0.3983
 1792TIP3   OH226790   1.499   5.983   4.242 -0.0154  0.1415  0.2862
 1792TIP3    H126791   1.414   5.941   4.230 -1.0862  1.5234  2.3320
 1792TIP3    H226792   1.499   6.011   4.333  2.1024  1.3601 -0.0233
 1793TIP3   OH226793   4.727   3.911   4.768 -0.2570  0.3785 -0.2450
 1793TIP3    H126794   4.798   3.880   4.824  0.4199  0.1120 -1.2244
 1793TIP3    H226795   4.692   3.832   4.728 -0.1394  0.6398 -0.8749
 1794TIP3   OH226796   3.872   0.932  16.177 -0.0751  0.1317  0.2485
 1794TIP3    H126797   3.794   0.932  16.121  0.9231 -1.9567 -1.3005
 1794TIP3    H226798   3.933   0.990  16.132 -0.7648  2.0541  1.6481
 1795TIP3   OH226799   5.450   3.510   4.690 -0.0503  0.1086 -0.2204
 1795TIP3    H126800   5.452   3.601   4.661  0.4325  0.0484 -0.3834
 1795TIP3    H226801   5.413   3.513   4.778 -3.1103  0.1395 -1.3854
 1796TIP3   OH226802   2.549   5.118  14.922 -0.1884  0.0374 -0.2933
 1796TIP3    H126803   2.591   5.193  14.964  1.7037 -0.4123 -1.2921
 1796TIP3    H226804   2.575   5.043  14.975  0.1925 -0.2296 -0.8469
 1797TIP3   OH226805   5.918   2.085   3.321  0.6575 -0.9282  0.0392
 1797TIP3    H126806   5.834   2.072   3.364 -0.0195  1.9907 -0.2177
 1797TIP3    H226807   5.910   2.038   3.238 -0.3566 -1.4504  0.4159
 1798TIP3   OH226808   2.158   5.799   2.532 -0.0160  0.4888  0.5472
 1798TIP3    H126809   2.197   5.757   2.455  0.9565 -0.9282  1.7689
 1798TIP3    H226810   2.230   5.844   2.574 -0.6433  1.6576  0.4029
 1799TIP3   OH226811   2.524   0.806  15.252  0.3052  0.3146 -0.0143
 1799TIP3    H126812   2.593   0.750  15.287  0.9349  0.3699 -1.1122
 1799TIP3    H226813   2.567   0.856  15.183 -0.6989  0.7737 -0.3234
 1800TIP3   OH226814   4.437   2.981  12.190 -0.7532 -0.0126  0.2807
 1800TIP3    H126815   4.409   3.059  12.237 -0.9325  1.1528 -1.6402
 1800TIP3    H226816   4.404   2.908  12.242 -0.2993  1.1566  2.3046
 1801TIP3   OH226817   1.204   6.413   3.213  0.2909  0.1028 -0.2430
 1801TIP3    H126818   1.278   6.376   3.166 -0.6804 -0.0808 -1.6869
 1801TIP3    H226819   1.196   6.359   3.292  1.3118 -0.2374 -0.3616
 1802TIP3   OH226820   0.753   6.025  12.151  0.0269  0.0942 -0.2691
 1802TIP3    H126821   0.738   6.051  12.242  1.0830 -0.1921  0.0029
 1802TIP3    H226822   0.738   5.930  12.151  0.2234  0.0638 -0.3543
 1803TIP3   OH226823   0.289   5.260  15.953  0.1380 -0.4218 -0.1380
 1803TIP3    H126824   0.242   5.226  15.877 -0.1550  0.8672 -0.5691
 1803TIP3    H226825   0.333   5.339  15.920  0.8539 -0.4237  0.7787
 1804TIP3   OH226826   4.324   0.112   3.350 -0.0895  0.4251  0.5829
 1804TIP3    H126827   4.238   0.151   3.334 -0.5039 -0.9167 -0.7713
 1804TIP3    H226828   4.304   0.020   3.368  1.0353  0.1644  0.5388
 1805TIP3   OH226829   5.765   2.462   3.883 -0.3891 -0.2891 -0.0970
 1805TIP3    H126830   5.740   2.502   3.966 -0.7889 -0.9332  0.0976
 1805TIP3    H226831   5.733   2.373   3.889  3.0032 -1.6407  0.7114
 1806TIP3   OH226832   3.177   4.623   5.148  0.4615 -0.2816 -0.2030
 1806TIP3    H126833   3.087   4.593   5.159  0.0663  0.9731  0.1484
 1806TIP3    H226834   3.230   4.547   5.172 -0.4935 -0.6986  0.7008
 1807TIP3   OH226835   0.181   0.167  13.364 -0.1178  0.3264 -0.9383
 1807TIP3    H126836   0.248   0.111  13.404  0.1727  0.5836 -1.0642
 1807TIP3    H226837   0.178   0.140  13.272  0.3619  0.8434 -1.1075
 1808TIP3   OH226838   6.158   6.271  13.850 -0.1919 -0.4109 -0.0188
 1808TIP3    H126839   6.193   6.183  13.865 -0.9387 -0.8307 -0.6531
 1808TIP3    H226840   6.091   6.282  13.918  0.7982  0.2019  0.8896
 1809TIP3   OH226841   5.222   5.823   3.059 -0.2247  0.0326 -0.0478
 1809TIP3    H126842   5.203   5.751   2.999 -3.6314  1.7497 -1.2897
 1809TIP3    H226843   5.151   5.821   3.123 -0.4871  2.3151 -0.1874
 1810TIP3   OH226844   4.488   1.009   3.649 -0.1181 -0.1574 -0.6362
 1810TIP3    H126845   4.574   0.987   3.684  0.2439 -0.6537 -1.7664
 1810TIP3    H226846   4.494   1.102   3.627 -0.9390  0.6476  2.1695
 1811TIP3   OH226847   2.714   1.841   2.447  0.0015 -0.5671 -0.0906
 1811TIP3    H126848   2.651   1.848   2.376 -0.9242 -2.9890  0.3731
 1811TIP3    H226849   2.681   1.899   2.515  0.6882  1.4809 -1.4123
 1812TIP3   OH226850   2.467   2.665  14.087 -0.2406  0.2410 -0.1914
 1812TIP3    H126851   2.497   2.576  14.069  1.3969  0.7068  0.0789
 1812TIP3    H226852   2.402   2.683  14.018  0.0781 -0.8303 -0.7947
 1813TIP3   OH226853   0.728   2.816  15.162 -0.3114  0.7728 -0.0836
 1813TIP3    H126854   0.740   2.781  15.074  2.0399  0.5818  0.2536
 1813TIP3    H226855   0.701   2.907  15.149 -0.5166  0.5884 -0.9826
 1814TIP3   OH226856   1.679   5.087  12.971 -0.3256 -0.2027  0.1209
 1814TIP3    H126857   1.646   5.012  13.020 -0.2835 -0.3067 -0.0088
 1814TIP3    H226858   1.774   5.085  12.985 -0.5788  1.9474  3.1614
 1815TIP3   OH226859   1.045   1.435   4.837  0.9395  0.2194  0.1658
 1815TIP3    H126860   0.988   1.367   4.871  0.0853  0.0892 -1.4215
 1815TIP3    H226861   1.078   1.400   4.754  0.2267  1.8149 -0.8532
 1816TIP3   OH226862   1.091   2.960   5.382 -0.5342  0.0956 -0.3463
 1816TIP3    H126863   1.114   2.898   5.451  1.1118  0.1918 -0.7631
 1816TIP3    H226864   1.020   3.012   5.420  0.1430 -0.0228  1.1865
 1817TIP3   OH226865   5.765   4.903   0.623  0.0042 -0.2917 -0.3148
 1817TIP3    H126866   5.813   4.895   0.541 -0.8183  0.2895 -0.8705
 1817TIP3    H226867   5.806   4.839   0.681  0.3696 -0.9734 -1.2922
 1818TIP3   OH226868   0.438   5.914   2.411 -0.0785 -0.2475  0.2340
 1818TIP3    H126869   0.471   5.970   2.481 -0.6232  0.9160 -0.4059
 1818TIP3    H226870   0.347   5.943   2.399  0.3357  0.3943 -1.7034
 1819TIP3   OH226871   2.197   6.717   4.480  0.2279 -0.3866  0.1731
 1819TIP3    H126872   2.182   6.677   4.565 -0.6792 -1.2736 -0.3760
 1819TIP3    H226873   2.281   6.681   4.451 -0.0456 -1.0415  0.1722
 1820TIP3   OH226874   0.755   2.072  12.225 -0.3896 -0.1435 -0.5339
 1820TIP3    H126875   0.793   2.010  12.287 -0.2270  0.8588  0.4023
 1820TIP3    H226876   0.695   2.125  12.278 -1.1117  0.0013 -1.4649
 1821TIP3   OH226877   1.412   1.601   1.233  0.0840  0.4828  0.5281
 1821TIP3    H126878   1.363   1.663   1.287  0.5846  1.5306 -0.1803
 1821TIP3    H226879   1.396   1.630   1.143  0.0935 -0.5991  0.1668
 1822TIP3   OH226880   0.267   2.331  11.421 -0.2579 -0.0393 -0.0573
 1822TIP3    H126881   0.294   2.248  11.381 -0.0107  0.2709 -0.5440
 1822TIP3    H226882   0.291   2.322  11.513 -0.6441 -0.6847 -0.0117
 1823TIP3   OH226883   0.953   4.450  14.078 -0.1600  0.2117  0.2417
 1823TIP3    H126884   1.044   4.423  14.071  0.0749  0.6249  1.5564
 1823TIP3    H226885   0.956   4.536  14.120 -1.1591  0.2116  0.3421
 1824TIP3   OH226886   5.769   2.189  11.338  0.3298  0.0295  0.3226
 1824TIP3    H126887   5.822   2.178  11.417 -0.3976 -0.4208  0.7516
 1824TIP3    H226888   5.749   2.099  11.310  0.2102  0.1936 -0.1243
 1825TIP3   OH226889   5.068   3.201   5.736  0.5422 -0.0118  0.1801
 1825TIP3    H126890   5.011   3.147   5.791  0.9605 -2.0192 -1.2525
 1825TIP3    H226891   5.157   3.173   5.759  0.7584 -0.0955 -0.7237
 1826TIP3   OH226892   0.237   1.408  12.557  0.4491 -0.6799 -0.5647
 1826TIP3    H126893   0.209   1.328  12.513 -0.3968 -1.3499  1.0966
 1826TIP3    H226894   0.259   1.380  12.646  2.5460  0.5452 -0.6418
 1827TIP3   OH226895   2.118   5.074  11.076 -0.0153 -0.1618  0.0276
 1827TIP3    H126896   2.116   5.149  11.017  1.2149  0.2434  0.4738
 1827TIP3    H226897   2.153   5.002  11.024  0.2565 -0.0244  0.0177
 1828TIP3   OH226898   3.017   4.043   2.272 -0.2616  0.4124 -0.4172
 1828TIP3    H126899   3.061   4.120   2.308 -0.2466 -0.3023  1.1927
 1828TIP3    H226900   2.944   4.078   2.221  2.0220  1.6285 -3.0851
 1829TIP3   OH226901   6.013   0.006  16.647 -0.7385  0.6136 -0.1394
 1829TIP3    H126902   5.984  -0.051  16.719 -0.9155  0.6498 -0.1821
 1829TIP3    H226903   5.987  -0.041  16.568 -2.5376  1.5868 -0.1804
 1830TIP3   OH226904   0.466   2.200   5.014 -0.0649 -0.6301  0.2493
 1830TIP3    H126905   0.460   2.291   4.985 -0.4536 -0.8633 -0.4166
 1830TIP3    H226906   0.534   2.201   5.081 -0.0151  0.1384  0.1969
 1831TIP3   OH226907   6.338   5.430   2.889  0.0204  0.0592  0.1716
 1831TIP3    H126908   6.424   5.391   2.875 -1.0228 -2.1022 -0.6669
 1831TIP3    H226909   6.347   5.520   2.858  1.8047 -0.2737 -0.4157
 1832TIP3   OH226910   6.767   2.090  12.578 -0.4245  0.3641 -0.1164
 1832TIP3    H126911   6.688   2.135  12.607 -0.7994  0.2114 -0.8911
 1832TIP3    H226912   6.782   2.122  12.489  1.1290  1.3914  0.4657
 1833TIP3   OH226913   2.985   2.984  12.562 -0.1731 -0.2107  0.0903
 1833TIP3    H126914   2.922   3.056  12.551 -0.7518 -0.8926 -1.3345
 1833TIP3    H226915   3.061   3.025  12.603 -2.1319  0.3100  3.5355
 1834TIP3   OH226916   6.195   0.771   0.637 -0.2425 -0.0680 -0.0034
 1834TIP3    H126917   6.252   0.810   0.572 -0.4851  0.6022  0.1819
 1834TIP3    H226918   6.158   0.845   0.685 -3.5125 -0.2702 -1.9562
 1835TIP3   OH226919   5.565   3.195   1.081  0.6502  0.2795 -0.0804
 1835TIP3    H126920   5.567   3.277   1.131  1.7367  0.3140 -0.1581
 1835TIP3    H226921   5.641   3.201   1.023  0.7309 -0.7760 -0.0960
 1836TIP3   OH226922   1.559   2.831  15.779 -0.1816  0.8952 -0.2908
 1836TIP3    H126923   1.647   2.798  15.799  0.3960  2.3651 -0.3478
 1836TIP3    H226924   1.565   2.864  15.690 -0.3295  2.4878  0.2646
 1837TIP3   OH226925   2.273   5.382   0.947  0.8355 -0.6393  0.0436
 1837TIP3    H126926   2.323   5.384   0.866  0.6694 -0.3039 -0.0530
 1837TIP3    H226927   2.300   5.301   0.991 -0.8365 -2.1044 -1.4545
 1838TIP3   OH226928   5.198   5.936   3.408  0.7699  0.5555  0.0069
 1838TIP3    H126929   5.172   5.941   3.316 -0.0948 -1.4783  0.0802
 1838TIP3    H226930   5.126   5.889   3.451  1.8746  0.0563  1.4144
 1839TIP3   OH226931   4.821   3.757   2.490  0.2340  0.3328 -0.3091
 1839TIP3    H126932   4.852   3.771   2.400 -0.9926 -4.6567 -1.8719
 1839TIP3    H226933   4.738   3.804   2.494  0.1085  0.3448 -1.9994
 1840TIP3   OH226934   0.316   1.823   2.625  0.2564 -0.6271  0.1856
 1840TIP3    H126935   0.356   1.757   2.682  1.0599  0.6371  1.1484
 1840TIP3    H226936   0.228   1.789   2.608  1.1588 -2.6941 -0.6721
 1841TIP3   OH226937   6.814   6.314  14.188 -0.1266 -0.0731 -0.0884
 1841TIP3    H126938   6.834   6.320  14.095  0.7962  1.0775  0.1610
 1841TIP3    H226939   6.773   6.398  14.209 -0.8029 -0.5257  0.4385
 1842TIP3   OH226940   6.337   4.014   3.786  0.6650 -0.0546  0.2435
 1842TIP3    H126941   6.401   3.954   3.824  0.8868 -0.8066 -1.2466
 1842TIP3    H226942   6.266   4.018   3.850  0.6954 -1.8231  0.4278
 1843TIP3   OH226943   2.307   1.393  11.817 -0.6358 -0.4399 -0.1501
 1843TIP3    H126944   2.399   1.386  11.792 -0.8701 -0.6390 -0.9802
 1843TIP3    H226945   2.274   1.303  11.812 -1.3093 -0.1297 -1.5748
 1844TIP3   OH226946   1.319   3.514  15.911 -0.7334 -0.2236 -0.4393
 1844TIP3    H126947   1.384   3.576  15.945 -1.1466  0.4533 -0.8613
 1844TIP3    H226948   1.362   3.429  15.917  0.8273  0.3694 -2.1632
 1845TIP3   OH226949   6.217   1.781   1.209  0.1239 -0.1110  0.0756
 1845TIP3    H126950   6.192   1.821   1.292 -0.6404  0.2560 -0.3261
 1845TIP3    H226951   6.260   1.699   1.234  0.9571  0.5527  0.8671
 1846TIP3   OH226952   1.294   2.249  10.172  0.0512 -0.3071 -0.1159
 1846TIP3    H126953   1.230   2.314  10.142  0.1936  0.1498  0.5440
 1846TIP3    H226954   1.370   2.300  10.198 -0.0389 -0.6806  0.9334
 1847TIP3   OH226955   5.428   1.912  10.463 -0.1657  0.0435 -0.0951
 1847TIP3    H126956   5.459   1.959  10.541 -1.6758  1.5215 -0.3345
 1847TIP3    H226957   5.486   1.836  10.457  0.1724  0.0063  2.3323
 1848TIP3   OH226958   4.530   3.397   4.800 -0.3407 -0.1645  0.5853
 1848TIP3    H126959   4.542   3.367   4.710  1.1217  3.1064 -0.4780
 1848TIP3    H226960   4.446   3.444   4.798  0.3873  1.1670  0.4967
 1849TIP3   OH226961   6.474   3.642  13.038 -0.5782  0.3027  0.2534
 1849TIP3    H126962   6.557   3.602  13.063 -0.7455  0.3934  0.9950
 1849TIP3    H226963   6.495   3.734  13.022 -1.0910  1.2977  4.1636
 1850TIP3   OH226964   5.701   1.082  15.030  0.0887  0.2155  0.6743
 1850TIP3    H126965   5.679   1.175  15.033  1.2132  0.4707  1.6275
 1850TIP3    H226966   5.797   1.080  15.033  0.1067 -0.9550 -0.0233
 1851TIP3   OH226967   4.464   1.688  13.512 -0.0972 -0.1557  0.2085
 1851TIP3    H126968   4.448   1.618  13.448 -0.8116  0.6432 -0.5124
 1851TIP3    H226969   4.443   1.768  13.465 -0.4810  0.4666  1.4116
 1852TIP3   OH226970   1.485   6.864   2.849  0.6490 -0.2810  0.4734
 1852TIP3    H126971   1.522   6.826   2.929  2.1086  0.4974  0.2029
 1852TIP3    H226972   1.481   6.791   2.787  0.9600 -0.5489  0.7671
 1853TIP3   OH226973   4.150   4.960   5.886  0.5203  0.2020 -0.0517
 1853TIP3    H126974   4.095   4.881   5.880  0.5842  0.0414  1.1482
 1853TIP3    H226975   4.240   4.927   5.882  0.5445  0.3449 -0.7899
 1854TIP3   OH226976   5.489   3.722  15.765 -0.3955  0.6522  0.1321
 1854TIP3    H126977   5.569   3.759  15.801  0.5720 -0.7111 -0.5214
 1854TIP3    H226978   5.483   3.758  15.677 -0.3925  0.5976  0.1092
 1855TIP3   OH226979   2.254   2.065  14.147  0.3220  0.3045  0.7446
 1855TIP3    H126980   2.274   2.159  14.149 -1.5458  0.7180  1.6727
 1855TIP3    H226981   2.163   2.060  14.119 -0.1390 -1.1203  2.3463
 1856TIP3   OH226982   0.331   6.840  11.532 -0.0266  0.2321 -0.5162
 1856TIP3    H126983   0.302   6.749  11.533 -0.6903  0.4238  0.8679
 1856TIP3    H226984   0.288   6.879  11.456  0.9171 -0.7808 -1.6124
 1857TIP3   OH226985   5.482   6.785  13.717  0.2115  0.3105 -0.3891
 1857TIP3    H126986   5.475   6.815  13.627  0.6424  0.6232 -0.3220
 1857TIP3    H226987   5.553   6.720  13.716 -0.6312 -0.6271 -0.5099
 1858TIP3   OH226988   6.620   2.279  13.886  0.8325 -0.2933 -0.6010
 1858TIP3    H126989   6.553   2.222  13.924  0.1216 -0.2212 -1.7099
 1858TIP3    H226990   6.660   2.322  13.961 -0.7629  0.0973  0.0673
 1859TIP3   OH226991   5.009   5.780  11.258 -0.4039  0.6734 -0.4508
 1859TIP3    H126992   5.023   5.692  11.295 -1.0840  1.2758  1.3658
 1859TIP3    H226993   5.063   5.782  11.179 -0.9977 -1.6555 -1.0035
 1860TIP3   OH226994   2.969   1.185  11.082  0.4250  0.2213  0.3139
 1860TIP3    H126995   2.890   1.234  11.058 -0.3530 -0.8511  0.6182
 1860TIP3    H226996   2.957   1.166  11.175  0.1719 -1.4883 -0.0404
 1861TIP3   OH226997   6.225   3.507  16.629 -0.0847  0.6311  0.3506
 1861TIP3    H126998   6.270   3.448  16.569  0.4379  1.2207  0.1490
 1861TIP3    H226999   6.206   3.453  16.706  2.0743  0.6371  0.9524
 1862TIP3   OH227000   4.257   3.453  14.772 -0.2888  0.1796  0.1499
 1862TIP3    H127001   4.164   3.432  14.773 -0.2119 -0.2890 -1.0774
 1862TIP3    H227002   4.261   3.545  14.799 -1.1014  0.2046  0.2075
 1863TIP3   OH227003   1.379   5.909   2.761  0.0779 -0.2520 -0.5380
 1863TIP3    H127004   1.365   5.999   2.730  2.0346  0.4738  0.4627
 1863TIP3    H227005   1.392   5.858   2.681 -3.2302 -0.1587 -1.2512
 1864TIP3   OH227006   4.588   6.144  15.546 -0.1981  0.1971  0.1001
 1864TIP3    H127007   4.670   6.143  15.595  0.1263  0.3957 -0.4212
 1864TIP3    H227008   4.565   6.051  15.535  0.6275  0.0878 -0.8253
 1865TIP3   OH227009   5.533   5.171  12.050 -0.1722 -0.3073 -0.5413
 1865TIP3    H127010   5.498   5.119  11.977 -1.0353  2.2279 -2.0389
 1865TIP3    H227011   5.469   5.158  12.120  0.0507 -1.8405 -0.5768
 1866TIP3   OH227012   0.174   0.182   3.970  0.4553 -0.0277 -0.6382
 1866TIP3    H127013   0.178   0.229   3.886 -1.6386  0.2180 -0.6641
 1866TIP3    H227014   0.170   0.251   4.036 -1.3011 -0.1025 -0.5977
 1867TIP3   OH227015   2.458   5.564   1.113  0.0710  0.8231  0.1118
 1867TIP3    H127016   2.410   5.492   1.073  1.3740 -0.1800  0.2867
 1867TIP3    H227017   2.428   5.566   1.204  0.5171  0.0588  0.2801
 1868TIP3   OH227018   4.828   1.396  16.684 -0.0692  0.1750 -0.1035
 1868TIP3    H127019   4.826   1.365  16.774  0.7666 -0.0029 -0.1396
 1868TIP3    H227020   4.751   1.355  16.644  1.0665 -2.0612 -0.1852
 1869TIP3   OH227021   5.457   5.243   4.889  0.2205 -0.2127  1.3095
 1869TIP3    H127022   5.387   5.247   4.954 -1.8397  1.8347 -0.8326
 1869TIP3    H227023   5.476   5.334   4.868 -1.1184 -0.6246 -2.6817
 1870TIP3   OH227024   2.235   0.673  15.805 -0.0896  0.1751 -0.2127
 1870TIP3    H127025   2.158   0.646  15.755  0.2415  1.0543 -1.2357
 1870TIP3    H227026   2.241   0.609  15.877 -0.2685 -1.5074 -1.6133
 1871TIP3   OH227027   4.005   2.049   3.197 -0.3508 -0.6408  0.0872
 1871TIP3    H127028   4.034   2.127   3.149 -0.1029 -1.4195 -1.0714
 1871TIP3    H227029   4.050   2.055   3.281 -1.2467  1.0535  0.4855
 1872TIP3   OH227030   0.704   5.380  11.399 -0.1013 -0.0519 -0.2577
 1872TIP3    H127031   0.766   5.309  11.381 -1.0468 -1.5171  1.9148
 1872TIP3    H227032   0.760   5.457  11.412  1.1329 -0.9182 -0.2262
 1873TIP3   OH227033   5.898   6.041  12.525  0.3281 -1.0296 -0.1136
 1873TIP3    H127034   5.859   5.954  12.540  1.1833 -1.7349 -1.6610
 1873TIP3    H227035   5.962   6.026  12.456  0.7499  0.7943 -0.1592
 1874TIP3   OH227036   4.479   4.680   5.352 -0.2323 -0.1822  0.2244
 1874TIP3    H127037   4.419   4.741   5.309  0.2049  0.3813  0.3851
 1874TIP3    H227038   4.427   4.641   5.422 -0.2471  0.7821  0.7730
 1875TIP3   OH227039   4.442   3.119  15.759  0.3659 -0.0033 -0.2416
 1875TIP3    H127040   4.431   3.098  15.852  1.9054  0.4547  0.0786
 1875TIP3    H227041   4.371   3.073  15.715 -0.0986 -0.6267  1.1112
 1876TIP3   OH227042   6.515   3.088   0.088  0.0167 -0.3864 -0.3625
 1876TIP3    H127043   6.530   3.128   0.002 -0.4990  1.3535  0.3163
 1876TIP3    H227044   6.422   3.103   0.105  0.1802 -0.4492  0.6289
 1877TIP3   OH227045   5.660   4.768  16.338  0.2873 -0.0888 -0.2988
 1877TIP3    H127046   5.612   4.788  16.257 -0.0697  0.6760  0.0867
 1877TIP3    H227047   5.596   4.779  16.407  0.3659 -1.6089  0.0379
 1878TIP3   OH227048   1.769   5.991  12.645 -0.1970 -0.2265  0.2133
 1878TIP3    H127049   1.739   5.905  12.674 -0.2306  0.2750  1.7382
 1878TIP3    H227050   1.849   5.973  12.595  0.6401 -1.0512  1.7730
 1879TIP3   OH227051   6.003   3.773  10.767 -0.0383 -0.3237  0.6106
 1879TIP3    H127052   5.993   3.754  10.674 -1.3034  0.0681  0.6445
 1879TIP3    H227053   5.958   3.700  10.811  1.3616 -1.0091  0.9585
 1880TIP3   OH227054   2.350   0.315   5.014  0.1560 -0.0027  0.0659
 1880TIP3    H127055   2.272   0.312   5.068 -1.1584 -0.1374 -1.7487
 1880TIP3    H227056   2.406   0.244   5.047 -2.0939 -2.3767 -0.8927
 1881TIP3   OH227057   1.532   2.414  15.128  0.3337  0.2420  0.2004
 1881TIP3    H127058   1.517   2.334  15.178 -1.5042  0.2329 -0.3111
 1881TIP3    H227059   1.475   2.480  15.169  0.1303  0.6876 -0.7609
 1882TIP3   OH227060   2.008   1.849  15.116 -0.0903 -0.4590  0.0585
 1882TIP3    H127061   1.921   1.811  15.124  0.0418 -1.2059 -1.5665
 1882TIP3    H227062   2.041   1.816  15.032  2.2110 -1.1091  1.1223
 1883TIP3   OH227063   0.272   0.383  11.264  0.2663  0.1936 -0.4287
 1883TIP3    H127064   0.324   0.372  11.185  0.0737  0.9339 -0.6685
 1883TIP3    H227065   0.189   0.421  11.234 -0.6313 -1.3965 -0.1189
 1884TIP3   OH227066   5.262   1.239  16.131 -0.2314 -0.3849  0.3207
 1884TIP3    H127067   5.200   1.281  16.070 -0.7059 -1.4502  0.0539
 1884TIP3    H227068   5.346   1.242  16.085  0.5368  3.2272  1.6384
 1885TIP3   OH227069   4.510   2.503  14.988  0.2490 -0.5086  0.3509
 1885TIP3    H127070   4.498   2.410  15.008 -0.4944 -1.1718 -2.7328
 1885TIP3    H227071   4.446   2.548  15.043 -2.7614 -2.2993 -1.4415
 1886TIP3   OH227072   2.445   4.116   3.422  0.0530 -0.1174  0.1235
 1886TIP3    H127073   2.452   4.177   3.348  0.2254  0.3089  0.4833
 1886TIP3    H227074   2.450   4.172   3.499 -0.2493 -0.5449  0.4603
 1887TIP3   OH227075   4.642   3.097   4.340  0.4192  0.4142 -0.4972
 1887TIP3    H127076   4.728   3.067   4.369 -0.2434 -0.1947  0.9312
 1887TIP3    H227077   4.595   3.017   4.316 -0.4545  0.5109  0.7818
 1888TIP3   OH227078   5.530   0.286   3.608 -0.6239  0.3648  0.4083
 1888TIP3    H127079   5.568   0.249   3.688 -1.2268 -1.1894 -0.0029
 1888TIP3    H227080   5.585   0.252   3.537 -1.7714 -0.6083 -0.0570
 1889TIP3   OH227081   0.284   2.156   1.860 -0.2440 -0.4766 -0.0282
 1889TIP3    H127082   0.215   2.123   1.917  0.3198 -1.1068  0.2982
 1889TIP3    H227083   0.265   2.118   1.774 -0.0676 -0.9866  0.1572
 1890TIP3   OH227084   3.213   4.838   2.856 -0.5299  0.2307  0.3763
 1890TIP3    H127085   3.284   4.897   2.883  1.8343 -2.7581  1.3936
 1890TIP3    H227086   3.184   4.796   2.937 -0.2297 -1.8199 -0.4890
 1891TIP3   OH227087   3.538   6.445  12.693  0.1302  0.2663 -0.5907
 1891TIP3    H127088   3.560   6.352  12.688 -2.2590 -0.3834 -0.0716
 1891TIP3    H227089   3.485   6.462  12.616 -2.5776  0.2127  1.1307
 1892TIP3   OH227090   1.533   0.522  11.471  0.4295 -0.0955  0.5625
 1892TIP3    H127091   1.539   0.475  11.554  0.3656  1.5746  1.5611
 1892TIP3    H227092   1.450   0.493  11.433 -0.4529  0.4391  1.9719
 1893TIP3   OH227093   2.083   4.797  16.350  0.1060 -0.2664 -0.1697
 1893TIP3    H127094   2.029   4.844  16.414 -2.0381 -2.1614 -0.4516
 1893TIP3    H227095   2.043   4.817  16.266  0.6482 -0.6905 -0.5353
 1894TIP3   OH227096   4.146   1.945  11.361 -0.0486 -0.0409 -0.3680
 1894TIP3    H127097   4.096   1.954  11.280 -1.3190  0.1930  0.4123
 1894TIP3    H227098   4.234   1.977  11.339 -0.5743  0.7090 -1.4512
 1895TIP3   OH227099   2.223   4.855   6.675  0.1805 -0.3960 -0.1399
 1895TIP3    H127100   2.262   4.769   6.690  1.1898 -0.3042 -1.9307
 1895TIP3    H227101   2.277   4.894   6.606 -1.3904  0.9220 -0.6925
 1896TIP3   OH227102   3.223   6.168  16.711  0.0281 -0.3689  0.7842
 1896TIP3    H127103   3.274   6.239  16.749  0.0216  0.5685 -0.8710
 1896TIP3    H227104   3.164   6.141  16.781 -2.3560  3.5365  0.5683
 1897TIP3   OH227105   6.274   4.480  11.943 -0.0171 -0.0529  0.4306
 1897TIP3    H127106   6.227   4.521  12.016 -2.4314 -0.8336 -0.5607
 1897TIP3    H227107   6.260   4.386  11.956  1.5152 -0.3325  0.1912
 1898TIP3   OH227108   4.675   2.984   3.759 -0.2499  0.1690 -0.2309
 1898TIP3    H127109   4.619   3.029   3.695 -0.5614  0.3228  0.1448
 1898TIP3    H227110   4.650   2.892   3.752 -0.7355  0.2695  0.1113
 1899TIP3   OH227111   2.851   5.643   1.012 -0.5059 -0.0143 -0.4820
 1899TIP3    H127112   2.866   5.735   0.991  1.7468 -0.4959 -1.2562
 1899TIP3    H227113   2.934   5.600   0.992 -1.5760 -2.2703 -0.3821
 1900TIP3   OH227114   3.494   5.219   5.632  0.1704 -0.5317 -0.0527
 1900TIP3    H127115   3.587   5.201   5.645  0.6171 -0.2049 -2.4294
 1900TIP3    H227116   3.491   5.309   5.600 -0.8761 -0.8319 -0.8456
 1901TIP3   OH227117   0.205   1.685   0.656 -0.1202 -0.1657  0.4215
 1901TIP3    H127118   0.259   1.712   0.730  0.5678 -1.3746  0.3864
 1901TIP3    H227119   0.246   1.725   0.580  0.1910 -0.3189  0.5055
 1902TIP3   OH227120   2.649   5.277   0.627  0.2933  0.5127  0.1415
 1902TIP3    H127121   2.739   5.278   0.658  0.8098  0.2052 -1.2488
 1902TIP3    H227122   2.638   5.191   0.588 -1.4564 -0.4586  2.5377
 1903TIP3   OH227123   1.011   1.200  14.772 -0.0815 -0.2059 -0.4271
 1903TIP3    H127124   0.949   1.257  14.726 -1.0696  1.2977  2.5568
 1903TIP3    H227125   0.956   1.141  14.823  0.8817  0.2660  1.2437
 1904TIP3   OH227126   0.807   5.781   5.250 -0.1757  0.3828 -0.0626
 1904TIP3    H127127   0.786   5.752   5.338 -2.0694 -1.7566 -1.1300
 1904TIP3    H227128   0.806   5.702   5.197  3.7053  1.1310 -1.6339
 1905TIP3   OH227129   3.819   6.461  10.657 -0.4834 -0.3453 -0.7327
 1905TIP3    H127130   3.803   6.551  10.686 -0.7342 -0.0749 -1.6730
 1905TIP3    H227131   3.862   6.470  10.573 -0.2531 -1.1152 -0.7081
 1906TIP3   OH227132   2.017   6.705  14.012  0.0475  0.0973  0.1177
 1906TIP3    H127133   2.063   6.639  14.064 -0.3724  0.2452  0.6996
 1906TIP3    H227134   2.032   6.680  13.921  0.5831 -0.3215  0.3181
 1907TIP3   OH227135   5.785   4.281   1.745 -0.4599 -0.6089 -0.0032
 1907TIP3    H127136   5.845   4.323   1.683  3.5318 -1.7939  2.6885
 1907TIP3    H227137   5.788   4.188   1.722  0.1848 -0.9074  1.1860
 1908TIP3   OH227138   6.011   3.502  14.743 -0.7680  0.4945 -0.3488
 1908TIP3    H127139   5.926   3.545  14.728 -2.0572 -0.6227  2.8745
 1908TIP3    H227140   5.988   3.413  14.767  1.4083 -0.0378 -0.1154
 1909TIP3   OH227141   4.218   2.217   3.094 -0.6607  0.0254 -0.1760
 1909TIP3    H127142   4.273   2.154   3.048 -0.2228  0.5469 -0.3811
 1909TIP3    H227143   4.231   2.299   3.047 -0.7159  0.4187  0.4793
 1910TIP3   OH227144   6.813   2.620  15.550  0.0318  0.6721  0.2987
 1910TIP3    H127145   6.814   2.711  15.520 -1.7242  0.1880 -1.4370
 1910TIP3    H227146   6.898   2.608  15.592  0.3589  3.0657  0.4684
 1911TIP3   OH227147   2.250   1.586  16.192 -0.1255 -0.4476  0.0399
 1911TIP3    H127148   2.233   1.679  16.207  0.8767 -0.3662  0.8158
 1911TIP3    H227149   2.168   1.552  16.155  0.1228  1.1294 -2.1442
 1912TIP3   OH227150   6.869   1.720   0.221  0.6023  0.2322 -0.4319
 1912TIP3    H127151   6.914   1.667   0.287  1.3216  0.7153 -0.5204
 1912TIP3    H227152   6.777   1.693   0.226  1.1014 -1.7843 -1.1771
 1913TIP3   OH227153   4.759   3.630   0.258  0.2932 -0.3225 -0.4054
 1913TIP3    H127154   4.765   3.632   0.354  0.8373 -1.1558 -0.4065
 1913TIP3    H227155   4.759   3.722   0.232 -0.1454 -0.0787  0.4093
 1914TIP3   OH227156   6.375   0.091   4.159 -0.2275 -0.4215  0.4041
 1914TIP3    H127157   6.330   0.034   4.221 -0.8842 -0.3559 -0.0014
 1914TIP3    H227158   6.329   0.076   4.076 -0.3145  0.5858  0.2647
 1915TIP3   OH227159   3.737   6.417   1.643 -0.6138  0.5831  0.2740
 1915TIP3    H127160   3.796   6.392   1.571 -0.4442 -1.2260  0.9861
 1915TIP3    H227161   3.671   6.349   1.644 -2.6398  2.4297 -0.3130
 1916TIP3   OH227162   5.269   2.142  14.695 -0.5234 -0.3051 -0.3059
 1916TIP3    H127163   5.191   2.153  14.750 -0.6180 -0.1301 -0.4768
 1916TIP3    H227164   5.278   2.047  14.686  1.3207 -0.5369  2.6496
 1917TIP3   OH227165   2.754   0.608   1.435 -0.2325  0.3938  0.2602
 1917TIP3    H127166   2.673   0.566   1.465 -2.1985  1.8700 -2.5170
 1917TIP3    H227167   2.775   0.563   1.353  0.9100  1.0662  0.1676
 1918TIP3   OH227168   1.370   3.399  16.280 -0.4630  0.0892 -1.1127
 1918TIP3    H127169   1.353   3.316  16.236 -1.1625  0.0700 -0.8172
 1918TIP3    H227170   1.291   3.416  16.331  0.5124 -0.1553  0.5829
 1919TIP3   OH227171   5.721   6.421   2.479 -0.2041 -0.5780  0.3278
 1919TIP3    H127172   5.807   6.420   2.522  0.7666 -0.7626 -1.5420
 1919TIP3    H227173   5.729   6.488   2.411 -1.3788 -0.9566 -0.2018
 1920TIP3   OH227174   4.412   3.360   2.382  0.6465 -0.1159  0.1342
 1920TIP3    H127175   4.414   3.440   2.436  0.6747  0.5604 -0.8407
 1920TIP3    H227176   4.362   3.385   2.304 -1.4472 -1.7472  0.8626
 1921TIP3   OH227177   0.728   0.173   4.470 -0.1184  1.0307 -0.0860
 1921TIP3    H127178   0.721   0.218   4.386  2.6338  0.1152 -0.9374
 1921TIP3    H227179   0.785   0.229   4.522  1.5910 -0.3222 -0.3983
 1922TIP3   OH227180   4.704   6.415   2.237 -0.3408  0.6361  0.2327
 1922TIP3    H127181   4.631   6.417   2.299 -0.6610  1.3901 -0.1638
 1922TIP3    H227182   4.782   6.409   2.293 -0.7039 -0.6786  0.6464
 1923TIP3   OH227183   3.971   6.683   5.813 -0.2739  0.0469 -0.1657
 1923TIP3    H127184   3.932   6.766   5.841 -2.0553  0.9439 -4.4296
 1923TIP3    H227185   4.045   6.709   5.758  0.3830 -1.2851  0.0655
 1924TIP3   OH227186   1.840   0.441   6.037  0.4933  0.1324  0.0370
 1924TIP3    H127187   1.843   0.366   5.977 -0.5762  0.6409 -0.6994
 1924TIP3    H227188   1.764   0.491   6.007  0.0306  0.4884  1.7327
 1925TIP3   OH227189   1.568   5.012   0.499  0.2800  0.4137 -0.0473
 1925TIP3    H127190   1.630   5.051   0.438  1.4626 -1.5940 -0.2269
 1925TIP3    H227191   1.570   4.918   0.479 -2.5723  0.1917  0.1871
 1926TIP3   OH227192   1.602   4.060   0.833 -0.3382 -0.1329  0.1807
 1926TIP3    H127193   1.591   4.029   0.743 -0.1111  0.1971  0.0375
 1926TIP3    H227194   1.620   3.981   0.884 -0.8486 -0.3716  0.0048
 1927TIP3   OH227195   3.075   0.682  16.586  0.5957  0.3247  0.7778
 1927TIP3    H127196   3.132   0.747  16.544 -1.1775  1.3841 -0.1157
 1927TIP3    H227197   3.019   0.734  16.645  0.2252 -0.6141  1.2729
 1928TIP3   OH227198   4.411   4.253  13.378  0.0945  0.2540  0.2320
 1928TIP3    H127199   4.432   4.221  13.466  1.7828  0.3762 -0.0860
 1928TIP3    H227200   4.377   4.341  13.391  0.1793  0.2091  0.7775
 1929TIP3   OH227201   4.529   2.893  14.388  0.1030 -0.0699 -0.0152
 1929TIP3    H127202   4.530   2.829  14.317  0.2831  0.3849 -0.4314
 1929TIP3    H227203   4.621   2.901  14.414 -0.1926 -1.8632  1.7771
 1930TIP3   OH227204   0.342   1.381  13.370 -0.3155 -0.4384 -0.1746
 1930TIP3    H127205   0.412   1.437  13.337 -0.0175  0.3212  1.6275
 1930TIP3    H227206   0.351   1.384  13.465 -1.1314 -2.5043  0.0307
 1931TIP3   OH227207   6.617   0.272   4.508 -0.3824  0.1795  0.3157
 1931TIP3    H127208   6.707   0.302   4.515  0.2895 -1.0137 -2.1258
 1931TIP3    H227209   6.569   0.323   4.574  1.2951  3.7584 -0.9933
 1932TIP3   OH227210   0.583   5.358   1.188  0.3350 -0.2884  0.5324
 1932TIP3    H127211   0.677   5.351   1.204  0.1872 -1.4000  1.0065
 1932TIP3    H227212   0.543   5.344   1.274 -0.3209 -1.8896  0.0016
 1933TIP3   OH227213   0.538   2.033   5.628 -0.0021  0.2122  0.1779
 1933TIP3    H127214   0.583   2.116   5.611 -0.5430  0.5606  0.4370
 1933TIP3    H227215   0.575   1.972   5.563  0.1519  0.7392 -0.2327
 1934TIP3   OH227216   4.904   3.149  15.074 -0.7189  0.0280  0.2847
 1934TIP3    H127217   4.874   3.083  15.135  2.1811 -0.7001  1.0669
 1934TIP3    H227218   4.930   3.100  14.996 -1.6772  0.6493 -0.4503
 1935TIP3   OH227219   0.495   2.892  13.160 -0.1119 -0.1347 -0.6368
 1935TIP3    H127220   0.407   2.855  13.175 -0.6813  1.1634 -0.6194
 1935TIP3    H227221   0.478   2.971  13.109  1.0636  0.1363 -0.6144
 1936TIP3   OH227222   0.205   5.630   4.746  0.0864 -0.0106  0.1267
 1936TIP3    H127223   0.223   5.543   4.781 -0.6976 -0.0750  0.3932
 1936TIP3    H227224   0.203   5.617   4.651 -1.0477 -0.5024  0.2001
 1937TIP3   OH227225   6.412   5.618  16.228 -0.2612 -0.0676  0.0745
 1937TIP3    H127226   6.317   5.624  16.238 -0.3518  1.9193 -1.3498
 1937TIP3    H227227   6.444   5.706  16.246  1.1486 -0.3444 -0.8757
 1938TIP3   OH227228   0.155   5.789  16.294 -0.2678  0.0560 -0.8619
 1938TIP3    H127229   0.225   5.852  16.279  2.0796 -1.9707  0.6445
 1938TIP3    H227230   0.146   5.785  16.390 -1.0952 -1.1124 -0.9544
 1939TIP3   OH227231   5.401   3.334   2.797  0.5162 -0.2520 -0.2768
 1939TIP3    H127232   5.386   3.264   2.860 -0.1226 -0.3514 -0.5239
 1939TIP3    H227233   5.360   3.411   2.838 -1.5945 -0.7199 -1.3526
 1940TIP3   OH227234   0.568   1.996   5.927  0.2825  0.2474  0.2482
 1940TIP3    H127235   0.562   2.049   5.848  0.3088  1.0069  0.7362
 1940TIP3    H227236   0.524   2.049   5.994  0.7145 -0.1501  0.8551
 1941TIP3   OH227237   2.869   0.469   2.603  0.9507 -0.0498 -0.1728
 1941TIP3    H127238   2.804   0.478   2.534  0.1823 -0.8273  0.4214
 1941TIP3    H227239   2.890   0.559   2.629 -0.4030  0.2108  0.0901
 1942TIP3   OH227240   3.121   4.971  15.646  0.2519 -0.1972  0.7116
 1942TIP3    H127241   3.154   5.025  15.717 -0.1123 -1.8043  2.1776
 1942TIP3    H227242   3.065   5.029  15.595  1.9575  1.4597  0.6376
 1943TIP3   OH227243   3.633   0.657  12.876  0.1581  0.3701 -0.0772
 1943TIP3    H127244   3.614   0.591  12.809 -1.3462  0.1003  0.5783
 1943TIP3    H227245   3.706   0.621  12.925  0.9025  0.3034 -1.1961
 1944TIP3   OH227246   6.486   4.609  15.829 -0.2272  0.5641 -0.0616
 1944TIP3    H127247   6.432   4.572  15.759 -0.0060  0.9665 -0.4462
 1944TIP3    H227248   6.518   4.692  15.794  0.8168  0.2428  0.0768
 1945TIP3   OH227249   5.796   0.558   2.736  0.2407  0.2312 -0.1183
 1945TIP3    H127250   5.848   0.612   2.795  0.2180 -0.7612  0.8490
 1945TIP3    H227251   5.705   0.584   2.753  0.2922  0.5784 -0.3737
 1946TIP3   OH227252   1.510   4.044  14.649 -0.0810  0.1546  0.1473
 1946TIP3    H127253   1.506   4.043  14.745  0.9391  1.1293  0.2173
 1946TIP3    H227254   1.592   4.088  14.629 -0.5360  0.4405 -1.1897
 1947TIP3   OH227255   2.668   4.536  11.691  0.1839 -0.2051  0.1208
 1947TIP3    H127256   2.764   4.530  11.693  0.2203 -0.4296 -1.2640
 1947TIP3    H227257   2.641   4.467  11.630 -0.9268 -0.6803  1.1119
 1948TIP3   OH227258   1.757   2.765   2.453  0.2979  0.7793 -0.5088
 1948TIP3    H127259   1.678   2.726   2.417  1.7243 -2.5503 -0.4110
 1948TIP3    H227260   1.820   2.763   2.381  1.2027  0.3387  0.2610
 1949TIP3   OH227261   5.221   1.280  12.919 -0.0029  0.2514 -0.4529
 1949TIP3    H127262   5.199   1.334  12.844 -0.5941 -0.1860 -0.6071
 1949TIP3    H227263   5.312   1.301  12.939  0.7035 -0.8058 -2.3139
 1950TIP3   OH227264   4.457   2.467  14.195  0.3038  0.9637  0.0650
 1950TIP3    H127265   4.498   2.484  14.279  0.9574 -1.5240  0.3283
 1950TIP3    H227266   4.529   2.472  14.132  0.1229  1.1803 -0.1279
 1951TIP3   OH227267   3.766   4.848   3.230 -0.3786 -0.1994  0.2796
 1951TIP3    H127268   3.838   4.890   3.183  0.5354 -0.0656  1.7513
 1951TIP3    H227269   3.798   4.838   3.319 -1.6236 -1.5210  0.6174
 1952TIP3   OH227270   3.597   3.457  16.194 -0.5162 -0.1045  0.2629
 1952TIP3    H127271   3.687   3.428  16.211 -1.1048 -0.8315  2.6066
 1952TIP3    H227272   3.556   3.383  16.150 -0.5793 -0.8012  1.4252
 1953TIP3   OH227273   6.491   2.789  13.847  0.1024 -0.8666 -0.2520
 1953TIP3    H127274   6.405   2.825  13.866  0.9861  1.1085  0.1998
 1953TIP3    H227275   6.530   2.850  13.784  1.2938 -1.5652 -0.2322
 1954TIP3   OH227276   3.153   3.601   0.870  0.1477 -0.0184 -0.2750
 1954TIP3    H127277   3.172   3.511   0.895 -0.7210 -0.5480 -1.4198
 1954TIP3    H227278   3.058   3.609   0.880  0.1348  0.5694 -0.8001
 1955TIP3   OH227279   2.746   0.120  12.833  0.1836  0.1871 -0.4399
 1955TIP3    H127280   2.831   0.111  12.789 -0.0046  0.9120 -0.9669
 1955TIP3    H227281   2.769   0.125  12.926  0.9170  2.2938 -0.6765
 1956TIP3   OH227282   5.124   1.073  15.032  0.2925  0.1461  0.1431
 1956TIP3    H127283   5.128   1.070  14.936  2.5037 -0.1456  0.1907
 1956TIP3    H227284   5.210   1.104  15.059 -0.7376  1.5751  2.0357
 1957TIP3   OH227285   2.233   2.724   4.035 -0.5333 -0.6884 -0.4120
 1957TIP3    H127286   2.184   2.641   4.036 -0.6109 -0.6484 -0.7929
 1957TIP3    H227287   2.299   2.712   3.966 -1.5775  0.1546 -1.5956
 1958TIP3   OH227288   5.915   2.941  14.570 -0.2152  0.1649 -0.3436
 1958TIP3    H127289   5.871   2.898  14.644  1.5985 -0.3032  0.5296
 1958TIP3    H227290   5.996   2.891  14.559  0.2178  1.1350 -1.7176
 1959TIP3   OH227291   0.197   5.120  10.025  0.0238  0.3144 -0.0299
 1959TIP3    H127292   0.291   5.136  10.031 -0.1490  1.2655  0.3730
 1959TIP3    H227293   0.176   5.133   9.933  0.2645  0.2458 -0.0942
 1960TIP3   OH227294   1.966   4.029   1.988  0.1455 -0.3377 -0.7272
 1960TIP3    H127295   2.027   3.970   1.945 -1.1781 -0.9159 -1.8677
 1960TIP3    H227296   1.926   4.079   1.917  2.6667  3.5004  0.2698
 1961TIP3   OH227297   0.559   2.753   5.694 -0.3760 -0.4412 -0.0662
 1961TIP3    H127298   0.535   2.698   5.768 -1.6106 -0.8953 -0.7797
 1961TIP3    H227299   0.492   2.736   5.628  0.3408  0.4256 -1.0575
 1962TIP3   OH227300   2.094   1.755   3.059 -0.1829 -0.8992  0.6014
 1962TIP3    H127301   2.050   1.697   2.997 -0.3600 -0.2614  0.1184
 1962TIP3    H227302   2.174   1.708   3.083 -0.7452 -1.7254  0.8951
 1963TIP3   OH227303   0.760   0.169  15.085  0.1087 -0.2920 -0.5996
 1963TIP3    H127304   0.730   0.178  14.995  0.3236  0.2896 -0.6213
 1963TIP3    H227305   0.844   0.123  15.077 -0.5795 -1.5799 -0.5675
 1964TIP3   OH227306   1.953   4.581   5.530 -0.0464 -0.8072  0.1506
 1964TIP3    H127307   1.866   4.588   5.489  0.2449 -1.3745 -0.5983
 1964TIP3    H227308   1.971   4.487   5.532 -0.6230 -0.9327  2.8717
 1965TIP3   OH227309   0.402   1.936  13.532 -0.0304 -0.5210  0.0670
 1965TIP3    H127310   0.333   1.967  13.590  0.2320 -0.6105  0.4315
 1965TIP3    H227311   0.368   1.853  13.497 -0.8055  0.2398 -1.0449
 1966TIP3   OH227312   0.400   0.396  15.821  0.0659 -0.0683 -0.3885
 1966TIP3    H127313   0.391   0.389  15.916 -0.9762 -0.0292 -0.4761
 1966TIP3    H227314   0.478   0.451  15.809  0.4395 -0.3993  0.4293
 1967TIP3   OH227315   0.677   5.539   4.316 -0.2749  0.0654 -0.1606
 1967TIP3    H127316   0.697   5.518   4.407 -0.2044 -2.2454 -0.6391
 1967TIP3    H227317   0.581   5.535   4.310 -0.3406  1.2637  0.0290
 1968TIP3   OH227318   3.235   2.329   1.905  0.3746  0.6492  0.4350
 1968TIP3    H127319   3.246   2.362   1.816 -0.4212 -0.0794  0.0509
 1968TIP3    H227320   3.140   2.330   1.919  0.0209 -3.5946 -0.4652
 1969TIP3   OH227321   3.368   2.343   4.071  0.1381 -0.0153  0.0556
 1969TIP3    H127322   3.456   2.335   4.034 -0.1792 -1.9396 -0.3925
 1969TIP3    H227323   3.369   2.427   4.117  1.6580  0.8001 -1.3462
 1970TIP3   OH227324   3.319   6.687  14.551  0.1355 -0.2664  0.0358
 1970TIP3    H127325   3.315   6.605  14.600 -0.9000 -0.0401  0.3550
 1970TIP3    H227326   3.270   6.749  14.604 -1.2877 -0.0851 -1.4104
 1971TIP3   OH227327   3.790   5.475  11.071 -0.5177 -0.1710  0.2838
 1971TIP3    H127328   3.803   5.469  11.166 -0.4854  0.7839  0.3519
 1971TIP3    H227329   3.860   5.533  11.041  0.3451 -1.5850 -0.5421
 1972TIP3   OH227330   5.978   4.856   0.425 -0.0091  0.3250 -0.1038
 1972TIP3    H127331   5.995   4.906   0.346 -0.4675  0.0436 -0.3844
 1972TIP3    H227332   6.049   4.880   0.485  0.2776  0.6163 -0.5597
 1973TIP3   OH227333   2.399   0.589  10.279  0.3015  0.1853  0.3783
 1973TIP3    H127334   2.480   0.564  10.323  1.9670  1.9196 -1.5530
 1973TIP3    H227335   2.390   0.683  10.297  0.1040  0.5521 -1.4882
 1974TIP3   OH227336   1.137   2.291   0.842 -0.2522 -0.3490  0.2452
 1974TIP3    H127337   1.094   2.218   0.886  0.2775 -0.4666  0.5728
 1974TIP3    H227338   1.229   2.266   0.839 -0.1430  0.0841 -0.0897
 1975TIP3   OH227339   3.857   2.629   5.628 -0.2362  0.2829 -0.1717
 1975TIP3    H127340   3.904   2.686   5.690 -0.9188  0.3785  0.2698
 1975TIP3    H227341   3.765   2.655   5.637 -0.6713 -1.4001  0.5865
 1976TIP3   OH227342   4.120   4.518  16.336  0.1378 -0.2209  0.0191
 1976TIP3    H127343   4.171   4.458  16.282 -0.9585 -1.3536  0.2055
 1976TIP3    H227344   4.113   4.473  16.421  1.4575  1.3245  0.9959
 1977TIP3   OH227345   0.160   3.818   6.046  0.1744 -0.5707  0.3504
 1977TIP3    H127346   0.126   3.732   6.023 -0.2386  0.1143 -1.7871
 1977TIP3    H227347   0.096   3.854   6.107  0.1711 -1.6150  0.9813
 1978TIP3   OH227348   2.020   4.391   2.542  0.6147 -0.5772  0.9692
 1978TIP3    H127349   1.968   4.368   2.619 -0.2741 -0.4749  0.4170
 1978TIP3    H227350   2.007   4.485   2.531  0.1362 -0.7158  0.2765
 1979TIP3   OH227351   1.492   1.844   0.174  0.1814 -1.2063  0.0019
 1979TIP3    H127352   1.437   1.780   0.130 -0.7789 -0.6393  0.3624
 1979TIP3    H227353   1.455   1.852   0.262 -0.4252  0.6743 -0.3889
 1980TIP3   OH227354   6.824   3.961   0.097 -0.4082  0.4819 -0.7909
 1980TIP3    H127355   6.739   4.001   0.083 -0.3416  0.7345 -0.4821
 1980TIP3    H227356   6.855   3.938   0.009 -0.0565  1.9002 -1.0652
 1981TIP3   OH227357   4.957   2.000  14.722  0.2986  0.1747  0.2759
 1981TIP3    H127358   5.027   1.935  14.729  3.4360  3.3595  2.6519
 1981TIP3    H227359   4.881   1.959  14.762  2.2598 -1.8666  2.1838
 1982TIP3   OH227360   4.321   5.726  16.473 -0.0806  0.3051 -0.1717
 1982TIP3    H127361   4.245   5.759  16.520 -0.9822  0.5812 -1.7668
 1982TIP3    H227362   4.289   5.704  16.386  1.3104 -1.1805 -0.3699
 1983TIP3   OH227363   4.796   6.033  10.820 -0.3460  0.5063  0.2733
 1983TIP3    H127364   4.762   6.106  10.767 -0.6386  0.1083 -0.0926
 1983TIP3    H227365   4.742   5.958  10.794  0.7424 -0.1169 -0.2297
 1984TIP3   OH227366   0.471   5.703   0.810  0.4288 -0.4599 -0.4081
 1984TIP3    H127367   0.434   5.650   0.881  0.2175  0.4581  0.1860
 1984TIP3    H227368   0.536   5.759   0.853 -0.2778  0.6826 -0.7856
 1985TIP3   OH227369   1.890   2.377   4.893 -0.6448  0.5256  0.1324
 1985TIP3    H127370   1.856   2.326   4.967 -0.2936  0.2344  0.0994
 1985TIP3    H227371   1.969   2.420   4.928  0.6642 -1.1736 -0.5852
 1986TIP3   OH227372   1.051   5.659   3.460  0.4393  0.0341  0.3722
 1986TIP3    H127373   0.995   5.599   3.510  0.6983  0.9660  1.8548
 1986TIP3    H227374   1.105   5.602   3.406 -1.8193 -0.9224 -1.0472
 1987TIP3   OH227375   2.661   2.534  14.956 -0.0279  0.7697  0.5299
 1987TIP3    H127376   2.737   2.563  14.905  0.3077 -0.6262  0.1681
 1987TIP3    H227377   2.697   2.470  15.018 -0.9048  0.0047  0.2800
 1988TIP3   OH227378   5.132   4.636   1.194  0.1830  0.8814 -0.5971
 1988TIP3    H127379   5.211   4.629   1.247  0.8929  3.8489 -1.0914
 1988TIP3    H227380   5.060   4.617   1.254  1.1634 -1.1046  0.0380
 1989TIP3   OH227381   3.349   1.724  15.579  0.5435  0.1314 -0.1352
 1989TIP3    H127382   3.347   1.719  15.483  0.9291 -0.0192 -0.1366
 1989TIP3    H227383   3.267   1.768  15.602  1.1430  1.5438 -0.6152
 1990TIP3   OH227384   2.608   4.880  10.937 -0.3324 -0.2152 -0.1579
 1990TIP3    H127385   2.592   4.836  10.854  0.8163  1.8000 -1.5379
 1990TIP3    H227386   2.669   4.824  10.983 -1.0673 -1.4157 -0.6047
 1991TIP3   OH227387   1.102   2.341   2.661  0.1258 -0.3289  0.2379
 1991TIP3    H127388   1.115   2.324   2.755  2.3624 -2.1543 -0.3384
 1991TIP3    H227389   1.068   2.259   2.626  0.4642 -0.0441 -0.7692
 1992TIP3   OH227390   0.903   0.936   2.460 -0.5272 -0.0518 -0.1323
 1992TIP3    H127391   0.868   1.021   2.433 -0.6617  0.6648  2.0610
 1992TIP3    H227392   0.992   0.956   2.489  0.3468 -1.1511 -1.9153
 1993TIP3   OH227393   4.865   0.347  12.766  0.0279  0.3080 -0.2636
 1993TIP3    H127394   4.852   0.389  12.851 -0.0276  1.6106 -0.8944
 1993TIP3    H227395   4.795   0.382  12.711 -0.5757 -1.3153 -0.5867
 1994TIP3   OH227396   1.589   6.862   0.541 -0.1985 -0.2869  0.3728
 1994TIP3    H127397   1.601   6.895   0.452 -3.5343 -0.5235 -0.2777
 1994TIP3    H227398   1.545   6.933   0.587  0.1739 -0.7329  1.4397
 1995TIP3   OH227399   0.901   3.001   6.237 -0.0573 -0.0343  0.3341
 1995TIP3    H127400   0.875   2.925   6.184  1.8622 -0.1610 -0.4948
 1995TIP3    H227401   0.982   3.031   6.197  0.4669  1.0171  2.1018
 1996TIP3   OH227402   0.344   0.080  11.756 -0.1143 -0.1796  0.2194
 1996TIP3    H127403   0.325   0.031  11.676  0.6239 -0.9920  0.5298
 1996TIP3    H227404   0.415   0.139  11.732  0.8577 -1.1879  0.5341
 1997TIP3   OH227405   2.959   5.673   3.486  0.5245  0.1291  0.2550
 1997TIP3    H127406   3.038   5.690   3.536 -1.0581  0.5653  2.7727
 1997TIP3    H227407   2.951   5.578   3.485 -0.1484  0.1329  2.1368
 1998TIP3   OH227408   2.724   4.837   0.677 -0.0155 -0.0058 -0.2177
 1998TIP3    H127409   2.652   4.901   0.671  0.6260  0.6810 -0.6959
 1998TIP3    H227410   2.690   4.759   0.634 -1.1518 -0.3292  1.1693
 1999TIP3   OH227411   4.910   4.051   2.953  0.1133  0.1069 -0.5337
 1999TIP3    H127412   4.822   4.030   2.922  0.0651 -0.2757 -0.1329
 1999TIP3    H227413   4.966   4.039   2.876 -0.0702 -0.4099 -0.5907
 2000TIP3   OH227414   4.762   6.072   0.208  0.0668 -0.1987 -0.0308
 2000TIP3    H127415   4.812   6.148   0.239  1.2589 -0.1752 -1.8904
 2000TIP3    H227416   4.718   6.102   0.129  1.4887 -1.7303 -1.4562
 2001TIP3   OH227417   3.527   2.166  14.111 -0.3259 -0.4722  0.3425
 2001TIP3    H127418   3.467   2.100  14.146 -0.1005 -0.2634  1.1433
 2001TIP3    H227419   3.549   2.134  14.024 -0.8312 -1.0506  0.4162
 2002TIP3   OH227420   5.307   3.326  13.812  0.1476 -0.0701 -0.5521
 2002TIP3    H127421   5.233   3.354  13.865 -0.2674  2.5528 -2.3117
 2002TIP3    H227422   5.380   3.318  13.874 -1.3178 -1.6933  1.0453
 2003TIP3   OH227423   0.659   6.824  16.436  0.1780  0.0338 -0.0587
 2003TIP3    H127424   0.588   6.864  16.486 -0.5338 -0.3845 -0.7210
 2003TIP3    H227425   0.656   6.731  16.460  0.7184  0.0643  0.1551
 2004TIP3   OH227426   3.534   2.622   4.053  0.1373 -0.0729  0.0832
 2004TIP3    H127427   3.539   2.668   4.137  1.9529  1.4241 -0.7733
 2004TIP3    H227428   3.626   2.606   4.029 -0.2039  1.1891 -2.4395
 2005TIP3   OH227429   0.439   1.961  10.765 -0.8053  0.2084  0.0514
 2005TIP3    H127430   0.345   1.954  10.780 -0.6690 -1.9083  0.2353
 2005TIP3    H227431   0.473   2.008  10.841 -1.6053  0.2872  0.3579
 2006TIP3   OH227432   3.104   2.146  15.670 -0.3155 -0.4339  0.0594
 2006TIP3    H127433   3.129   2.069  15.618 -1.2687  0.5095 -1.8810
 2006TIP3    H227434   3.187   2.185  15.696  0.2026 -0.6696 -1.1784
 2007TIP3   OH227435   6.505   4.996   1.381 -0.4710 -0.1582  0.2764
 2007TIP3    H127436   6.585   4.961   1.342 -0.6357 -0.5819  0.3215
 2007TIP3    H227437   6.463   5.045   1.309 -0.1155  0.1691  0.2860
 2008TIP3   OH227438   2.385   1.076  11.196  0.3249  0.0781  0.0101
 2008TIP3    H127439   2.443   1.087  11.121 -0.0148  0.1857 -0.2412
 2008TIP3    H227440   2.441   1.089  11.272  0.6919 -0.1257 -0.2236
 2009TIP3   OH227441   3.561   3.626  15.376  0.0174  0.2549  0.0044
 2009TIP3    H127442   3.621   3.701  15.379  0.3699 -0.0311  0.1848
 2009TIP3    H227443   3.576   3.579  15.458  0.8002 -0.7752 -0.6937
 2010TIP3   OH227444   1.227   5.377  13.950  1.0201  0.3563 -0.1342
 2010TIP3    H127445   1.283   5.445  13.987  0.4683 -0.0288  1.5170
 2010TIP3    H227446   1.138   5.403  13.976  0.6631 -0.2560 -0.7178
 2011TIP3   OH227447   4.817   5.444   0.097  0.2012 -0.3891 -0.3241
 2011TIP3    H127448   4.842   5.498   0.172  0.0938 -1.7417  0.7113
 2011TIP3    H227449   4.778   5.366   0.136 -0.5943 -0.7589 -1.8121
 2012TIP3   OH227450   5.640   0.166  12.262  0.4353  0.1731 -0.2932
 2012TIP3    H127451   5.718   0.184  12.208 -0.4024  1.5070 -1.1032
 2012TIP3    H227452   5.567   0.192  12.207 -0.6155 -1.1335  0.4353
 2013TIP3   OH227453   2.454   5.253  11.892  0.5195 -0.1568 -0.3444
 2013TIP3    H127454   2.463   5.184  11.826  2.4023 -0.5979  0.3318
 2013TIP3    H227455   2.485   5.213  11.973 -1.1887  0.5677  0.7187
 2014TIP3   OH227456   3.773   0.262  10.906 -0.3769 -0.1555  0.6820
 2014TIP3    H127457   3.727   0.275  10.822  0.9971  0.3136 -0.0281
 2014TIP3    H227458   3.722   0.313  10.969 -1.4641 -0.5500  0.1564
 2015TIP3   OH227459   2.442   3.567   3.677 -0.1322 -0.1661  0.4955
 2015TIP3    H127460   2.403   3.643   3.721 -0.3474 -0.5105  0.9138
 2015TIP3    H227461   2.532   3.566   3.707  0.1623  0.5308 -0.3357
 2016TIP3   OH227462   6.844   6.592  13.884 -0.3833  0.5410  0.3305
 2016TIP3    H127463   6.771   6.628  13.933 -1.3771  0.0003 -0.6895
 2016TIP3    H227464   6.811   6.509  13.848  0.9381 -0.0448  0.3656
 2017TIP3   OH227465   4.397   1.940   4.683 -0.0884 -0.3660  1.0667
 2017TIP3    H127466   4.313   1.917   4.723 -0.0379  1.2749  2.1733
 2017TIP3    H227467   4.373   1.990   4.604 -0.1506 -0.6246  0.9203
 2018TIP3   OH227468   5.576   0.592  13.454 -0.0282 -0.0457  0.3063
 2018TIP3    H127469   5.535   0.646  13.521  2.2014  1.6008  0.4433
 2018TIP3    H227470   5.627   0.527  13.502  0.6316  0.3984  0.2269
 2019TIP3   OH227471   6.834   5.727  13.785  0.0067 -0.0194 -0.1613
 2019TIP3    H127472   6.807   5.700  13.697  0.2535  0.4633 -0.3884
 2019TIP3    H227473   6.758   5.708  13.840 -0.7096  1.0670 -0.7473
 2020TIP3   OH227474   5.663   4.075   1.412 -0.8208  0.0579  0.3824
 2020TIP3    H127475   5.758   4.073   1.421 -0.4282  1.5542 -2.1560
 2020TIP3    H227476   5.632   3.997   1.457  1.8409 -1.8668 -0.8584
 2021TIP3   OH227477   0.209   3.268  15.832 -0.1563 -0.4131  0.6370
 2021TIP3    H127478   0.216   3.292  15.740 -0.9377 -0.6545  0.5003
 2021TIP3    H227479   0.144   3.197  15.833  1.0939 -1.5890  1.1744
 2022TIP3   OH227480   4.292   3.572  11.933  0.2069  0.7053  0.0267
 2022TIP3    H127481   4.280   3.567  12.027  0.6328 -1.1773  0.0185
 2022TIP3    H227482   4.207   3.549  11.896 -0.1290  2.0443 -0.0702
 2023TIP3   OH227483   3.115   1.811  15.714  0.3171  1.0638 -0.1982
 2023TIP3    H127484   3.125   1.746  15.783  2.8349 -0.1964 -1.5847
 2023TIP3    H227485   3.048   1.870  15.746 -0.5706 -0.9981  2.0848
 2024TIP3   OH227486   1.449   1.288   2.099  0.5392  0.5502 -0.1630
 2024TIP3    H127487   1.526   1.289   2.156  0.4376 -2.1963  0.1366
 2024TIP3    H227488   1.377   1.318   2.155  0.5454 -1.5629  1.0872
 2025TIP3   OH227489   2.445   3.564  12.813 -0.0406 -0.1557 -0.3604
 2025TIP3    H127490   2.447   3.658  12.792 -0.4499 -0.2168 -0.6990
 2025TIP3    H227491   2.379   3.529  12.753 -1.2094 -0.3603  1.0061
 2026TIP3   OH227492   3.077   3.324   5.601  0.0265 -0.5528  0.3334
 2026TIP3    H127493   3.134   3.258   5.560 -2.6918 -1.3441 -2.5728
 2026TIP3    H227494   3.071   3.394   5.535 -0.4734  0.6556  1.6077
 2027TIP3   OH227495   1.742   3.472   6.025 -0.1163 -0.1655  0.2762
 2027TIP3    H127496   1.817   3.510   5.979 -0.7514  1.3150  0.4161
 2027TIP3    H227497   1.772   3.460   6.115  0.1015 -0.0238  0.2225
 2028TIP3   OH227498   0.448   4.620   5.039 -0.2235  0.3344  0.1013
 2028TIP3    H127499   0.514   4.557   5.011  1.7805  1.5356  1.8870
 2028TIP3    H227500   0.387   4.568   5.091  0.5498 -0.4127  0.2913
 2029TIP3   OH227501   3.362   5.304   1.500 -0.0859  0.1592  0.1835
 2029TIP3    H127502   3.270   5.313   1.525  0.2316  0.9182  1.1372
 2029TIP3    H227503   3.402   5.388   1.525  1.3859 -1.0443  2.1808
 2030TIP3   OH227504   1.996   5.040   1.363 -0.0863 -0.0035 -0.5118
 2030TIP3    H127505   2.029   5.100   1.431  0.7626  0.2178 -1.1119
 2030TIP3    H227506   2.000   4.954   1.404  2.3222 -0.1567 -0.8925
 2031TIP3   OH227507   2.019   1.941   6.362  0.1693  0.0199  0.7618
 2031TIP3    H127508   2.103   1.979   6.389  0.5273  1.2198 -1.7958
 2031TIP3    H227509   2.034   1.911   6.273 -1.9742 -0.2474  0.4488
 2032TIP3   OH227510   1.462   3.438   5.423 -0.0159 -0.2705  0.3633
 2032TIP3    H127511   1.459   3.514   5.481  0.0167  0.2335 -0.2810
 2032TIP3    H227512   1.510   3.372   5.472 -2.1733 -0.7615  1.9424
 2033TIP3   OH227513   6.228   4.234   4.481 -0.5264  0.1735 -0.1609
 2033TIP3    H127514   6.203   4.249   4.390 -0.1062 -1.6335 -0.6183
 2033TIP3    H227515   6.160   4.278   4.532  0.2286  2.8103 -1.2802
 2034TIP3   OH227516   5.553   1.523   5.662 -0.3531  0.1675 -0.2077
 2034TIP3    H127517   5.594   1.584   5.723 -0.1298  0.1133 -0.3068
 2034TIP3    H227518   5.609   1.446   5.662  0.5725  0.7947 -1.7491
 2035TIP3   OH227519   1.939   0.788  12.491 -0.1144 -0.3939  0.2601
 2035TIP3    H127520   1.931   0.742  12.574  0.3681 -1.3783 -0.2185
 2035TIP3    H227521   2.032   0.810  12.484 -0.2944  0.4483  0.3630
 2036TIP3   OH227522   4.113   5.633  13.440  0.3216  0.2941  0.0499
 2036TIP3    H127523   4.195   5.584  13.430  0.6765  0.9840 -0.4379
 2036TIP3    H227524   4.079   5.603  13.525  0.9843 -0.1328  0.1808
 2037TIP3   OH227525   3.609   4.926   0.003 -0.3562 -0.5312 -0.3465
 2037TIP3    H127526   3.534   4.916  -0.056 -0.7742  1.6009 -0.2808
 2037TIP3    H227527   3.597   4.860   0.070  0.1626 -3.1045 -2.6101
 2038TIP3   OH227528   0.781   0.702  10.130  0.0596  0.0160 -0.3641
 2038TIP3    H127529   0.864   0.657  10.144 -0.4099 -0.3559  1.5818
 2038TIP3    H227530   0.717   0.633  10.121 -0.4649  0.2556  1.2563
 2039TIP3   OH227531   2.591   4.873   4.176 -0.2558 -0.0823  0.2828
 2039TIP3    H127532   2.646   4.922   4.237  1.0753 -1.1891  0.0391
 2039TIP3    H227533   2.630   4.786   4.174 -1.7311 -0.7564 -0.3307
 2040TIP3   OH227534   1.382   0.381  10.739 -0.5325  0.5320 -0.9609
 2040TIP3    H127535   1.390   0.315  10.670 -0.5257 -0.6750  0.1610
 2040TIP3    H227536   1.427   0.342  10.815 -0.9135  1.6433 -0.1421
 2041TIP3   OH227537   0.144   0.806  13.884  0.0150  0.4630 -0.0787
 2041TIP3    H127538   0.212   0.861  13.845  0.6976  0.1017  0.5841
 2041TIP3    H227539   0.123   0.851  13.966 -0.9793  0.8902 -0.5439
 2042TIP3   OH227540   5.388   2.885  14.875  0.2483 -0.2985 -0.2004
 2042TIP3    H127541   5.368   2.925  14.960  0.1190 -1.4739  0.3492
 2042TIP3    H227542   5.303   2.866  14.837  0.3075 -0.5036 -0.2291
 2043TIP3   OH227543   4.389   3.054   5.826 -0.2833 -0.1558 -0.4704
 2043TIP3    H127544   4.477   3.040   5.862  0.1072 -0.0432 -1.3646
 2043TIP3    H227545   4.333   2.996   5.878  0.2058  0.2545  0.5440
 2044TIP3   OH227546   3.646   3.415  10.759 -0.3122 -0.0510  0.2282
 2044TIP3    H127547   3.709   3.451  10.697 -1.9407  0.8095 -0.9994
 2044TIP3    H227548   3.574   3.478  10.760 -0.5313 -0.2099  2.7396
 2045TIP3   OH227549   0.000   5.262   2.070 -0.3875  0.5046  0.4335
 2045TIP3    H127550  -0.091   5.275   2.097 -0.6189  2.5395 -1.0807
 2045TIP3    H227551   0.045   5.341   2.101  0.7144 -0.1448  0.5269
 2046TIP3   OH227552   1.213   6.303   3.570 -0.1921  0.3957  0.0004
 2046TIP3    H127553   1.158   6.267   3.639 -0.2807 -0.0155 -0.2798
 2046TIP3    H227554   1.232   6.228   3.513 -2.4345  1.1941 -2.0066
 2047TIP3   OH227555   0.446   0.948   3.528 -0.0755 -0.1190 -0.5212
 2047TIP3    H127556   0.448   0.878   3.463  0.8965  0.0565 -0.6928
 2047TIP3    H227557   0.529   0.941   3.575 -0.8350 -0.3582  0.8517
 2048TIP3   OH227558   6.012   6.864  10.198  0.1547  0.6946 -0.1693
 2048TIP3    H127559   5.923   6.835  10.218 -0.4219  1.3645 -1.5825
 2048TIP3    H227560   5.999   6.939  10.139  1.6401  1.6722  0.7128
 2049TIP3   OH227561   1.945   1.274   3.999  0.0858 -0.3034  0.0860
 2049TIP3    H127562   1.984   1.248   4.082 -0.1353  0.2601  0.3688
 2049TIP3    H227563   1.852   1.257   4.010  0.0434 -0.1346 -0.0078
 2050TIP3   OH227564   5.475   2.934   5.023 -0.3816  0.3246 -0.8006
 2050TIP3    H127565   5.552   2.926   4.967 -0.7156  0.0486 -1.2287
 2050TIP3    H227566   5.474   3.026   5.049  1.2437 -0.0901  0.8947
 2051TIP3   OH227567   1.063   2.505   1.225 -0.0087 -0.4101 -0.0429
 2051TIP3    H127568   1.138   2.521   1.168 -0.6666  0.0587 -0.7969
 2051TIP3    H227569   1.059   2.410   1.234 -0.1709 -0.5169 -1.1642
 2052TIP3   OH227570   0.717   3.662  13.203 -0.1423 -0.4877 -0.1767
 2052TIP3    H127571   0.695   3.599  13.272 -0.5778 -2.7926 -2.2506
 2052TIP3    H227572   0.728   3.608  13.124 -0.4239  2.0539 -2.1001
 2053TIP3   OH227573   4.808   0.364  11.497 -0.0359  0.1305 -0.1074
 2053TIP3    H127574   4.795   0.417  11.419  0.0975 -0.8523 -0.8039
 2053TIP3    H227575   4.863   0.419  11.554  1.6806  0.0376 -1.5878
 2054TIP3   OH227576   4.588   4.857  11.882  0.5849  0.3889  0.9046
 2054TIP3    H127577   4.643   4.935  11.887  0.0462  0.7416  1.4506
 2054TIP3    H227578   4.549   4.849  11.969 -0.2846  0.1834  0.5074
 2055TIP3   OH227579   5.583   3.219  12.601 -0.2880  0.1553  0.0008
 2055TIP3    H127580   5.506   3.233  12.546  1.1632  0.7431 -1.9906
 2055TIP3    H227581   5.653   3.198  12.540  1.2580  0.0936  1.7104
 2056TIP3   OH227582   6.586   1.444   0.430 -0.0239 -0.0752 -0.0664
 2056TIP3    H127583   6.652   1.410   0.491  0.3917 -0.3630 -0.6643
 2056TIP3    H227584   6.532   1.502   0.483 -0.1039 -0.8679  0.7374
 2057TIP3   OH227585   1.572   3.573  16.618  0.1396  0.3538  0.0205
 2057TIP3    H127586   1.498   3.595  16.675 -0.2328  0.3720 -0.4559
 2057TIP3    H227587   1.627   3.515  16.671  0.2062  1.0012  0.6659
 2058TIP3   OH227588   6.519   5.708   4.919 -0.5187 -0.1543  0.3975
 2058TIP3    H127589   6.565   5.650   4.858  2.8915 -1.8137  4.1204
 2058TIP3    H227590   6.474   5.650   4.980  1.1819  1.0284  2.9574
 2059TIP3   OH227591   3.485   5.466   0.312 -0.5895 -0.3625 -0.3113
 2059TIP3    H127592   3.441   5.551   0.315 -0.1757 -0.1069 -1.1667
 2059TIP3    H227593   3.476   5.437   0.221  2.1062  0.3277 -0.9079
 2060TIP3   OH227594   4.718   2.350  15.183 -0.6081  0.0365 -0.2158
 2060TIP3    H127595   4.652   2.289  15.215 -0.3543 -0.0165  0.2144
 2060TIP3    H227596   4.729   2.327  15.091 -2.9048  1.5633 -0.9731
 2061TIP3   OH227597   1.830   3.587   0.131 -0.0228  0.4302 -0.2157
 2061TIP3    H127598   1.911   3.602   0.180  0.8972 -0.5398 -1.3826
 2061TIP3    H227599   1.813   3.670   0.086  1.3225  0.1111 -1.3607
 2062TIP3   OH227600   2.869   6.381  15.550 -0.0773  0.1569  0.1723
 2062TIP3    H127601   2.823   6.299  15.534 -0.3859  0.4599 -0.5149
 2062TIP3    H227602   2.954   6.370  15.506 -0.2743  0.3534 -0.2619
 2063TIP3   OH227603   4.130   6.417  10.243  0.0123 -0.5747 -0.5424
 2063TIP3    H127604   4.054   6.418  10.184 -0.7309 -0.8735  0.3872
 2063TIP3    H227605   4.177   6.498  10.223 -1.3034  0.3095 -0.1827
 2064TIP3   OH227606   6.399   5.767   3.499 -0.3737  0.3113 -0.2978
 2064TIP3    H127607   6.422   5.834   3.435  0.7227 -0.1127 -0.3729
 2064TIP3    H227608   6.363   5.695   3.448 -0.4809  0.3936 -0.3368
 2065TIP3   OH227609   0.642   1.975   5.018  0.7116  0.3011 -0.0743
 2065TIP3    H127610   0.560   2.025   5.017  0.5030 -0.0319 -1.5626
 2065TIP3    H227611   0.617   1.890   5.053  0.2057 -0.1086 -1.3764
 2066TIP3   OH227612   4.348   3.820   0.903  0.3001  0.6806 -0.2838
 2066TIP3    H127613   4.260   3.852   0.882  0.7276  2.5501  0.5496
 2066TIP3    H227614   4.406   3.890   0.872  1.2172  1.5154  2.9291
 2067TIP3   OH227615   6.431   5.782   0.008  0.1255 -0.0025  0.2977
 2067TIP3    H127616   6.473   5.859  -0.031 -0.5401  0.4759  0.4950
 2067TIP3    H227617   6.471   5.707  -0.037 -0.3198  0.5073 -1.0034
 2068TIP3   OH227618   6.245   5.916   1.284  0.2172 -0.0361  0.4297
 2068TIP3    H127619   6.199   5.848   1.235  2.2301 -1.1678 -0.0060
 2068TIP3    H227620   6.216   5.905   1.375 -2.0409  0.7899 -0.1445
 2069TIP3   OH227621   3.410   4.458  16.342 -0.1532 -0.3697 -0.1558
 2069TIP3    H127622   3.348   4.481  16.273  0.1758  1.3636  0.0754
 2069TIP3    H227623   3.474   4.402  16.298  0.8179  1.8056 -1.6885
 2070TIP3   OH227624   1.586   1.066  14.925 -0.2096  0.6681  0.1836
 2070TIP3    H127625   1.658   1.004  14.916 -0.1928  0.6758  0.2689
 2070TIP3    H227626   1.547   1.045  15.010 -0.9540 -0.0331 -0.3122
 2071TIP3   OH227627   3.828   0.263  14.098 -0.0108  0.2646 -0.2503
 2071TIP3    H127628   3.790   0.312  14.025 -0.1385 -0.2351 -0.5261
 2071TIP3    H227629   3.893   0.322  14.136  0.3101  0.3913 -0.9907
 2072TIP3   OH227630   4.019   2.274   5.009 -0.7445 -0.4177 -0.2364
 2072TIP3    H127631   3.991   2.365   4.999 -0.8680 -0.4407 -0.0984
 2072TIP3    H227632   4.096   2.278   5.065 -1.3987 -0.4974  0.6804
 2073TIP3   OH227633   6.223   3.259   5.866  0.1857 -0.3220  0.3414
 2073TIP3    H127634   6.148   3.302   5.825  0.5665 -0.4636 -0.5184
 2073TIP3    H227635   6.248   3.316   5.938  0.0316  0.3544 -0.1387
 2074TIP3   OH227636   2.262   2.576  12.850  0.3102  0.1675 -0.0650
 2074TIP3    H127637   2.228   2.519  12.781  0.9043  0.2855 -0.4679
 2074TIP3    H227638   2.289   2.517  12.920 -1.1672  0.0978  0.4831
 2075TIP3   OH227639   3.747   2.769  13.453  0.3925  0.6187  0.0423
 2075TIP3    H127640   3.717   2.790  13.364 -0.7204  0.7327  0.4335
 2075TIP3    H227641   3.679   2.804  13.510 -0.3457 -1.9206  0.8451
 2076TIP3   OH227642   5.418   2.209   4.440 -0.1941 -0.8352  0.4091
 2076TIP3    H127643   5.378   2.295   4.429 -0.1755 -0.7588  0.8975
 2076TIP3    H227644   5.391   2.160   4.363  1.9192  0.3903 -1.2234
 2077TIP3   OH227645   0.854   6.234  10.658 -0.0643 -0.2436  0.6735
 2077TIP3    H127646   0.859   6.193  10.572 -2.2460 -1.4279  1.0540
 2077TIP3    H227647   0.854   6.328  10.640 -0.2784 -0.4788 -0.6126
 2078TIP3   OH227648   6.080   0.288   0.678 -0.6342 -0.4067  0.1534
 2078TIP3    H127649   6.132   0.218   0.637  1.1641  0.9708 -0.0390
 2078TIP3    H227650   6.097   0.365   0.624 -0.0589  0.9172  2.1315
 2079TIP3   OH227651   4.742   2.501  12.519  0.1569 -0.2589 -0.8860
 2079TIP3    H127652   4.777   2.431  12.573 -2.4061  0.2959  1.7308
 2079TIP3    H227653   4.776   2.581  12.558 -2.1640  0.1815  0.4268
 2080TIP3   OH227654   6.146   1.370   5.025 -0.0353 -0.0184  0.0578
 2080TIP3    H127655   6.172   1.295   5.079 -0.2013 -0.5552 -0.5888
 2080TIP3    H227656   6.194   1.444   5.061  2.7888 -1.0063 -1.3430
 2081TIP3   OH227657   4.243   0.734  12.037  0.2564  0.4963  0.0998
 2081TIP3    H127658   4.198   0.756  11.955  0.7248  0.4344 -0.1740
 2081TIP3    H227659   4.225   0.641  12.049  1.4772  0.1208 -0.7568
 2082TIP3   OH227660   1.173   0.998  12.012 -0.3328 -0.4183 -0.2623
 2082TIP3    H127661   1.254   1.035  11.977  0.2794 -1.0035  0.4931
 2082TIP3    H227662   1.129   1.071  12.055 -1.0538  0.2915 -2.1272
 2083TIP3   OH227663   1.725   4.336  13.473 -0.3353  0.0218 -0.1826
 2083TIP3    H127664   1.720   4.268  13.539  0.7343  0.6501  0.5803
 2083TIP3    H227665   1.684   4.413  13.513 -0.2461  0.2346 -0.4876
 2084TIP3   OH227666   3.428   5.532   3.187 -0.2591 -0.3392  0.3722
 2084TIP3    H127667   3.522   5.517   3.179 -0.0350  0.6684  0.9285
 2084TIP3    H227668   3.392   5.507   3.102  0.5213 -0.6264  0.1200
 2085TIP3   OH227669   6.196   2.669  12.671 -0.3969 -0.1553 -0.0103
 2085TIP3    H127670   6.125   2.716  12.714  0.0973 -2.0745  3.2214
 2085TIP3    H227671   6.268   2.732  12.668 -1.1016  0.6727  0.0014
 2086TIP3   OH227672   5.072   6.620  12.877 -0.3958  0.1945  0.0762
 2086TIP3    H127673   5.102   6.625  12.787 -0.0191  0.1053  0.1957
 2086TIP3    H227674   4.978   6.640  12.873  0.1055  2.8852 -0.0159
 2087TIP3   OH227675   0.891   2.724   1.149 -0.2572  0.6948  0.3714
 2087TIP3    H127676   0.945   2.646   1.163 -2.3562 -0.9184 -0.0390
 2087TIP3    H227677   0.951   2.788   1.111  1.6750 -0.4950  1.2400
 2088TIP3   OH227678   5.758   5.421   4.692  0.2444  0.0216 -0.2736
 2088TIP3    H127679   5.682   5.478   4.700  0.7415  0.8097 -1.0268
 2088TIP3    H227680   5.773   5.415   4.598  2.7924  2.2082 -0.1250
 2089TIP3   OH227681   1.085   1.851  16.453 -0.1352 -0.4983  0.2302
 2089TIP3    H127682   1.155   1.798  16.416 -0.5897  0.0544 -1.4895
 2089TIP3    H227683   1.099   1.939  16.417 -0.9334 -0.0564  0.9406
 2090TIP3   OH227684   3.563   6.153  12.643 -0.1280 -0.1839 -0.0484
 2090TIP3    H127685   3.519   6.068  12.643 -0.6004  0.0384 -0.9007
 2090TIP3    H227686   3.612   6.154  12.561 -0.6980  0.6333 -0.3938
 2091TIP3   OH227687   3.336   1.302  12.211 -0.0132  0.2603 -0.0600
 2091TIP3    H127688   3.360   1.270  12.298 -0.6336 -0.3815 -0.1161
 2091TIP3    H227689   3.418   1.297  12.161 -0.0001 -0.9103  0.0401
 2092TIP3   OH227690   6.610   1.189   0.686  0.2152 -0.2016 -0.2668
 2092TIP3    H127691   6.632   1.112   0.740 -0.9356  0.0089  0.5325
 2092TIP3    H227692   6.620   1.158   0.596  2.4918 -0.4817  0.0126
 2093TIP3   OH227693   1.959   4.523  11.836  0.3253  0.1829  0.1484
 2093TIP3    H127694   1.901   4.570  11.896 -2.2002  0.0237 -1.9933
 2093TIP3    H227695   1.917   4.531  11.750  2.4250 -1.7787 -1.1856
 2094TIP3   OH227696   5.738   0.612  11.227  0.1211  0.2301 -0.0621
 2094TIP3    H127697   5.650   0.578  11.244 -0.0101 -1.1168 -2.8589
 2094TIP3    H227698   5.724   0.687  11.170  0.7458  1.2207  1.0470
 2095TIP3   OH227699   4.345   2.270   3.739 -0.3036 -0.2372 -0.0699
 2095TIP3    H127700   4.394   2.220   3.673 -2.0264 -1.6447 -0.3745
 2095TIP3    H227701   4.341   2.359   3.704  3.5903  0.5020  0.8891
 2096TIP3   OH227702   4.844   3.892   4.248  0.1909  0.9136  0.2481
 2096TIP3    H127703   4.892   3.809   4.243 -2.1223 -0.4303 -1.8727
 2096TIP3    H227704   4.901   3.955   4.205 -0.2177 -0.8846 -3.3264
 2097TIP3   OH227705   5.812   5.717  12.323 -0.3087 -0.4442  0.0302
 2097TIP3    H127706   5.902   5.685  12.319 -0.1669 -0.2066  1.0064
 2097TIP3    H227707   5.814   5.798  12.272 -0.4175 -1.3861 -1.5193
 2098TIP3   OH227708   4.644   1.794   0.966 -0.0714 -0.0721  0.0097
 2098TIP3    H127709   4.712   1.831   1.022 -0.7145 -0.0961  0.8239
 2098TIP3    H227710   4.631   1.861   0.898  0.1448  0.3211  0.3504
 2099TIP3   OH227711   3.210   4.684  16.136 -0.1641  0.5527 -0.5100
 2099TIP3    H127712   3.195   4.590  16.138 -0.9640  0.6546  2.2577
 2099TIP3    H227713   3.147   4.716  16.070  1.1357 -0.9027 -2.5732
 2100TIP3   OH227714   6.436   0.357  13.505 -0.1068  0.3801 -0.2104
 2100TIP3    H127715   6.525   0.347  13.537 -0.1252 -1.4238 -0.5860
 2100TIP3    H227716   6.429   0.293  13.434 -1.3318  1.3635 -1.0321
 2101TIP3   OH227717   3.725   1.843   1.291  0.7967  0.3473 -1.3494
 2101TIP3    H127718   3.806   1.871   1.335  1.4867 -0.6669 -1.9199
 2101TIP3    H227719   3.731   1.747   1.290 -2.0165 -0.0213  1.5912
 2102TIP3   OH227720   1.577   3.341   1.115 -0.5553  0.4645 -0.2826
 2102TIP3    H127721   1.648   3.398   1.145 -1.4583  0.8821  1.1994
 2102TIP3    H227722   1.543   3.385   1.037  2.2976 -0.9971 -2.5200
 2103TIP3   OH227723   1.201   3.949  14.594  0.0840 -0.0416 -0.2729
 2103TIP3    H127724   1.207   3.982  14.504  1.2164  1.0182  0.1704
 2103TIP3    H227725   1.196   4.028  14.648 -1.1114 -0.6670  0.5893
 2104TIP3   OH227726   0.246   6.461   2.442  0.7037 -0.7418 -0.1573
 2104TIP3    H127727   0.187   6.387   2.429 -1.3801  0.8048 -0.0177
 2104TIP3    H227728   0.212   6.507   2.519  2.2929  0.0535  0.1257
 2105TIP3   OH227729   3.520   6.152  14.558  0.2520  0.0945  0.2368
 2105TIP3    H127730   3.556   6.155  14.469  0.4880 -2.1325  0.2195
 2105TIP3    H227731   3.470   6.070  14.561 -0.7499  0.7196  1.8073
 2106TIP3   OH227732   0.208   5.860  15.595  0.2919  0.0931 -0.4885
 2106TIP3    H127733   0.196   5.771  15.562 -2.6784  0.9932 -2.2008
 2106TIP3    H227734   0.271   5.900  15.535 -0.1044 -0.1874 -1.0925
 2107TIP3   OH227735   3.266   3.925  15.335  0.0221  0.6589 -0.2502
 2107TIP3    H127736   3.343   3.948  15.283  1.2337 -0.1124  1.1116
 2107TIP3    H227737   3.301   3.905  15.422 -1.5680 -0.8494  0.1107
 2108TIP3   OH227738   5.215   3.138   2.719  0.1371 -0.5080 -0.2372
 2108TIP3    H127739   5.194   3.093   2.638  0.0279 -2.9398  1.0551
 2108TIP3    H227740   5.294   3.188   2.700 -1.0456  0.7184 -2.3760
 2109TIP3   OH227741   1.326   1.592   0.943  0.9697  0.3187  0.2626
 2109TIP3    H127742   1.368   1.594   0.857  0.0374 -0.1314 -0.2085
 2109TIP3    H227743   1.274   1.512   0.943 -0.2113  1.0623  0.6937
 2110TIP3   OH227744   0.055   4.704   1.095 -0.1451 -0.3740 -0.5081
 2110TIP3    H127745   0.033   4.785   1.047  0.7036 -0.9148 -1.8765
 2110TIP3    H227746  -0.002   4.637   1.057  1.0002 -0.9482 -1.2588
 2111TIP3   OH227747   5.895   4.470  15.728 -0.1494 -0.2361  0.3197
 2111TIP3    H127748   5.882   4.384  15.767 -2.0355 -0.8075 -1.4004
 2111TIP3    H227749   5.812   4.489  15.684  0.7643  1.7638 -0.6605
 2112TIP3   OH227750   2.533   0.550   1.188 -0.7415 -0.1790 -0.2562
 2112TIP3    H127751   2.623   0.520   1.197 -0.5306 -0.6201 -3.1038
 2112TIP3    H227752   2.488   0.514   1.265  1.3878 -0.2276  1.0460
 2113TIP3   OH227753   3.372   1.401  14.178  0.0058  0.6310 -0.0669
 2113TIP3    H127754   3.440   1.354  14.227  0.8181  1.2220 -0.5985
 2113TIP3    H227755   3.396   1.493  14.188 -0.1334  0.7877 -1.1063
 2114TIP3   OH227756   6.270   0.747   4.392  0.4092  0.0315  0.5956
 2114TIP3    H127757   6.338   0.684   4.370 -0.5099 -0.7865  0.0283
 2114TIP3    H227758   6.293   0.826   4.342  1.8574  0.3786  1.7162
 2115TIP3   OH227759   0.526   6.196  11.194  0.3016  0.4984  0.0996
 2115TIP3    H127760   0.505   6.279  11.151  2.0597  1.1556  0.3913
 2115TIP3    H227761   0.619   6.183  11.174 -0.5429 -2.9181 -2.3918
 2116TIP3   OH227762   0.333   0.246   5.312  0.3709  0.5345 -0.3399
 2116TIP3    H127763   0.316   0.296   5.392  1.6996  0.9909 -0.3198
 2116TIP3    H227764   0.255   0.193   5.300  0.0619  0.6061  1.1560
 2117TIP3   OH227765   6.671   4.638  12.732 -0.6327 -0.2968  0.5534
 2117TIP3    H127766   6.591   4.637  12.679  0.9437  0.1432 -2.0428
 2117TIP3    H227767   6.699   4.730  12.731 -0.3703 -0.3444  1.8873
 2118TIP3   OH227768   1.254   3.520   1.016 -0.5508 -0.1636 -0.6504
 2118TIP3    H127769   1.347   3.500   1.004 -0.3813 -0.6388  1.1457
 2118TIP3    H227770   1.253   3.610   1.049 -0.6764 -0.3290 -0.1906
 2119TIP3   OH227771   4.752   6.123   2.646 -0.4087  0.4372  0.6054
 2119TIP3    H127772   4.820   6.070   2.604 -0.0408  2.0599 -1.0207
 2119TIP3    H227773   4.672   6.072   2.636 -0.2086  0.4303 -1.5771
 2120TIP3   OH227774   0.243   4.349   4.372  0.3031 -0.4434  0.1375
 2120TIP3    H127775   0.209   4.360   4.461  2.4846  2.5448  0.7581
 2120TIP3    H227776   0.183   4.399   4.317 -0.0043 -0.7354  0.2036
 2121TIP3   OH227777   3.646   1.087   2.978 -0.3061  0.2797 -0.4373
 2121TIP3    H127778   3.661   0.995   2.955  1.4736  0.0051  1.4944
 2121TIP3    H227779   3.635   1.086   3.073 -0.5538  2.0474 -0.4228
 2122TIP3   OH227780   4.790   4.126   5.400  0.3566  0.4273  0.2260
 2122TIP3    H127781   4.867   4.070   5.393 -1.5481 -2.2895 -0.6142
 2122TIP3    H227782   4.757   4.111   5.489 -0.3592 -0.1133 -0.1199
 2123TIP3   OH227783   6.759   1.731   6.096 -0.6260  0.6662  0.4435
 2123TIP3    H127784   6.681   1.725   6.041 -0.6014 -0.4574  0.5033
 2123TIP3    H227785   6.832   1.714   6.036 -0.6737 -1.7954  0.9891
 2124TIP3   OH227786   0.627   2.920  14.242 -0.4575 -0.5647  0.0101
 2124TIP3    H127787   0.628   2.929  14.338 -1.7754 -1.1294  0.1037
 2124TIP3    H227788   0.593   2.832  14.227 -0.6621 -0.3237 -0.9812
 2125TIP3   OH227789   4.241   0.169  11.249  0.0626  0.2702 -0.1022
 2125TIP3    H127790   4.239   0.190  11.343  1.1211 -2.2975  0.5985
 2125TIP3    H227791   4.322   0.120  11.238 -0.4410 -0.1667 -2.2159
 2126TIP3   OH227792   5.852   5.499   2.334  0.0233  0.0784  0.3201
 2126TIP3    H127793   5.882   5.439   2.265 -1.8780 -0.6987  0.1111
 2126TIP3    H227794   5.784   5.450   2.380  0.1816  1.1725  1.7627
 2127TIP3   OH227795   5.990   5.578   4.736 -0.3352  0.1937 -0.3022
 2127TIP3    H127796   5.919   5.514   4.730 -0.8906  0.7901 -0.0935
 2127TIP3    H227797   6.007   5.603   4.645 -1.3510  1.0842 -0.2691
 2128TIP3   OH227798   3.907   0.115   0.439 -0.6404  0.0720 -0.1151
 2128TIP3    H127799   3.899   0.205   0.407 -1.1490 -0.0899 -0.4520
 2128TIP3    H227800   3.818   0.090   0.464 -0.5405 -0.4217 -0.2441
 2129TIP3   OH227801   0.866   3.336  15.750  0.7152 -0.2751  0.5138
 2129TIP3    H127802   0.943   3.279  15.744  0.9184  0.1348 -1.7694
 2129TIP3    H227803   0.876   3.397  15.677 -2.1174 -0.6570 -0.3062
 2130TIP3   OH227804   2.848   0.256  10.109 -0.5123  0.2684  0.8292
 2130TIP3    H127805   2.756   0.230  10.102 -1.0744  2.2901 -0.0194
 2130TIP3    H227806   2.896   0.173  10.116 -2.2573 -0.9087 -0.3394
 2131TIP3   OH227807   5.280   5.535   5.482 -0.0874  0.0819 -0.1522
 2131TIP3    H127808   5.303   5.484   5.559  0.2906  1.1406  0.4553
 2131TIP3    H227809   5.184   5.528   5.476 -0.2172  0.6883  0.9278
 2132TIP3   OH227810   2.659   6.828   1.414 -0.4805  0.0588 -0.2445
 2132TIP3    H127811   2.631   6.903   1.466 -1.8463 -0.1902 -0.5698
 2132TIP3    H227812   2.689   6.866   1.331  0.4938  0.3565  0.2279
 2133TIP3   OH227813   6.751   3.340   0.030  0.3638  0.5576 -0.1012
 2133TIP3    H127814   6.705   3.286  -0.034 -3.0081  1.0947  1.6119
 2133TIP3    H227815   6.809   3.396  -0.023 -0.7592 -0.3679 -2.4704
 2134TIP3   OH227816   1.347   6.234  15.910 -0.5396 -0.3051  0.2945
 2134TIP3    H127817   1.416   6.171  15.931  0.1322  0.9059  1.9340
 2134TIP3    H227818   1.284   6.184  15.858  1.3987 -1.5259 -1.0192
 2135TIP3   OH227819   1.910   1.233  13.125  0.6094  0.0612 -0.1001
 2135TIP3    H127820   1.861   1.282  13.192  0.7496 -0.7697  0.6309
 2135TIP3    H227821   1.993   1.280  13.117 -0.5068  1.8759 -1.8312
 2136TIP3   OH227822   5.860   2.808   3.182 -0.4267  0.2751  0.1791
 2136TIP3    H127823   5.839   2.743   3.249  0.3510 -0.5553 -0.3571
 2136TIP3    H227824   5.881   2.756   3.104 -0.2277  1.1914 -0.3937
 2137TIP3   OH227825   5.368   3.142  15.964 -0.6815  0.0970 -0.7265
 2137TIP3    H127826   5.315   3.157  15.885 -0.2293  0.0577 -1.0379
 2137TIP3    H227827   5.392   3.230  15.993 -0.4036  0.0908 -0.9365
 2138TIP3   OH227828   3.092   3.257  10.416 -0.1481  0.2253  0.3302
 2138TIP3    H127829   3.052   3.184  10.369 -1.3854  0.9253  0.2494
 2138TIP3    H227830   3.042   3.334  10.388  2.4381  1.5121 -1.2569
 2139TIP3   OH227831   2.675   5.935  11.726  0.7928 -0.6275  0.0421
 2139TIP3    H127832   2.610   6.006  11.724  1.5079  0.0777  0.9142
 2139TIP3    H227833   2.635   5.868  11.781  1.3984  0.4648  1.9116
 2140TIP3   OH227834   0.122   3.168  11.684 -0.4444  0.1645 -0.3517
 2140TIP3    H127835   0.177   3.244  11.701 -1.3444  0.5561  0.8814
 2140TIP3    H227836   0.154   3.101  11.744 -0.4207 -0.0625 -0.6132
 2141TIP3   OH227837   0.439   5.954  10.759 -0.2596 -0.6091 -0.2414
 2141TIP3    H127838   0.419   6.038  10.799  1.3901 -0.2048 -0.1832
 2141TIP3    H227839   0.428   5.890  10.830  1.8857  0.0093  0.7418
 2142TIP3   OH227840   3.500   3.324   4.735 -0.6079 -0.1882  0.5750
 2142TIP3    H127841   3.499   3.299   4.827  0.8312 -1.3731  0.3036
 2142TIP3    H227842   3.502   3.240   4.688 -1.1043  0.4035 -0.5354
 2143TIP3   OH227843   5.297   1.921  16.069  0.8780  0.2214  0.3951
 2143TIP3    H127844   5.390   1.898  16.080  0.4700 -0.6901  2.2811
 2143TIP3    H227845   5.250   1.856  16.121 -0.8611  0.4663 -0.8131
 2144TIP3   OH227846   0.826   3.799   5.261 -0.4347 -0.2732  0.4281
 2144TIP3    H127847   0.746   3.806   5.315 -0.9859 -1.1368 -0.2629
 2144TIP3    H227848   0.882   3.738   5.309 -0.4391 -0.1492  0.5950
 2145TIP3   OH227849   3.765   5.422  11.902 -0.3114 -0.2165 -0.6515
 2145TIP3    H127850   3.859   5.436  11.918 -0.1275 -1.1272 -0.8691
 2145TIP3    H227851   3.724   5.504  11.928  0.5023  0.0386 -0.1247
 2146TIP3   OH227852   6.040   2.768  12.202 -0.5189  0.5298 -0.3053
 2146TIP3    H127853   6.073   2.729  12.284 -0.8763  1.4458  0.2910
 2146TIP3    H227854   5.949   2.788  12.220 -0.6765  0.4879 -1.0341
 2147TIP3   OH227855   0.244   3.254   3.863  0.1793  0.3001  0.1505
 2147TIP3    H127856   0.202   3.257   3.777  0.3792 -2.4904 -0.1153
 2147TIP3    H227857   0.181   3.209   3.919  1.0170 -0.0184  0.8608
 2148TIP3   OH227858   4.547   5.130   1.400  0.3101 -0.5304  0.9055
 2148TIP3    H127859   4.498   5.131   1.482  0.9380 -0.3072  1.2869
 2148TIP3    H227860   4.480   5.124   1.332 -0.2611  0.0889  1.3978
 2149TIP3   OH227861   5.843   0.716   3.166 -0.1220 -0.2378 -0.0612
 2149TIP3    H127862   5.833   0.669   3.249  0.6548 -2.9166 -1.3796
 2149TIP3    H227863   5.766   0.772   3.161 -0.4027 -0.2899  2.2589
 2150TIP3   OH227864   1.270   4.814   6.108  0.4346 -0.5058 -0.6797
 2150TIP3    H127865   1.196   4.785   6.055  0.5667 -0.5162 -0.8602
 2150TIP3    H227866   1.236   4.887   6.159  0.5491  0.1109 -1.4593
 2151TIP3   OH227867   6.861   5.370   3.846 -0.5824 -0.0330 -0.6363
 2151TIP3    H127868   6.956   5.378   3.844 -0.5598 -0.2505 -0.4331
 2151TIP3    H227869   6.829   5.460   3.857 -0.3476 -0.1342  1.1191
 2152TIP3   OH227870   4.552   2.230  15.847 -0.3755 -0.4056  1.0099
 2152TIP3    H127871   4.562   2.319  15.881  2.8729 -1.1236  2.2782
 2152TIP3    H227872   4.511   2.241  15.761 -0.6292  2.2225  1.3866
 2153TIP3   OH227873   3.709   6.064  13.950  0.2834 -0.2633  0.3827
 2153TIP3    H127874   3.638   6.107  13.997  0.7700  1.8542 -0.6991
 2153TIP3    H227875   3.723   6.118  13.873  2.7645 -0.8659  0.3289
 2154TIP3   OH227876   1.354   3.340  13.804 -0.3740 -0.1420  0.1874
 2154TIP3    H127877   1.308   3.275  13.752 -0.2146 -0.8483  0.8932
 2154TIP3    H227878   1.382   3.292  13.883  0.6473  0.5188  0.2543
 2155TIP3   OH227879   5.932   3.034  13.737  0.0852  0.4379 -0.0754
 2155TIP3    H127880   6.005   3.095  13.748  1.4136 -1.1590  0.4154
 2155TIP3    H227881   5.907   3.043  13.645 -1.2290  3.2416  0.4723
 2156TIP3   OH227882   5.625   0.426   2.520  0.0382  0.3522 -0.2862
 2156TIP3    H127883   5.698   0.487   2.529  0.3592 -0.1822  0.8937
 2156TIP3    H227884   5.554   0.478   2.482 -0.4864  2.1288  2.7937
 2157TIP3   OH227885   0.403   0.272   3.097 -0.1105  0.0715 -0.3340
 2157TIP3    H127886   0.400   0.368   3.107  1.8234  0.5433 -3.2584
 2157TIP3    H227887   0.316   0.248   3.067 -0.5376  0.9165  0.1876
 2158TIP3   OH227888   3.537   3.653  11.212 -0.0999 -0.0265 -0.1973
 2158TIP3    H127889   3.591   3.583  11.248  0.8143  0.6436 -0.2271
 2158TIP3    H227890   3.459   3.656  11.268  0.7637  0.2315  1.0208
 2159TIP3   OH227891   0.873   5.504   0.448  0.8176  0.3645 -0.3603
 2159TIP3    H127892   0.873   5.599   0.434  0.4590  0.8256  2.2525
 2159TIP3    H227893   0.949   5.473   0.398  2.5125  2.4151  0.7570
 2160TIP3   OH227894   0.005   1.187  13.141 -0.0560  0.4270 -0.1730
 2160TIP3    H127895  -0.023   1.263  13.091  0.8705  0.8794 -0.0176
 2160TIP3    H227896  -0.076   1.152  13.178 -0.5583  0.9969 -0.7013
 2161TIP3   OH227897   2.362   3.898  15.574  0.5239  0.6343  0.3083
 2161TIP3    H127898   2.411   3.899  15.492  1.6920 -0.3415  0.9669
 2161TIP3    H227899   2.311   3.979  15.572 -0.1044  0.2523 -1.7356
 2162TIP3   OH227900   6.881   4.933   4.155  0.1682 -0.2168 -0.3692
 2162TIP3    H127901   6.831   4.870   4.102  0.9589  0.0509 -1.4835
 2162TIP3    H227902   6.883   5.012   4.102  0.1508  0.3832  0.5142
 2163TIP3   OH227903   6.689   4.894  12.657 -0.8270 -0.3554 -0.1300
 2163TIP3    H127904   6.666   4.925  12.569 -0.2491 -0.5306 -0.3420
 2163TIP3    H227905   6.717   4.973  12.703 -2.1380 -0.0757  0.2361
 2164TIP3   OH227906   6.136   2.368  12.708  0.0584 -0.1206 -0.0053
 2164TIP3    H127907   6.179   2.362  12.794  0.2569  0.8281 -0.0343
 2164TIP3    H227908   6.132   2.462  12.689 -0.9026 -0.2622 -0.5772
 2165TIP3   OH227909   0.826   3.158   6.607  0.0168 -0.2419 -0.8353
 2165TIP3    H127910   0.904   3.112   6.638 -0.1436 -0.5528 -0.8966
 2165TIP3    H227911   0.753   3.104   6.636 -0.1922  0.2169 -0.4920
 2166TIP3   OH227912   3.828   0.002  11.006  0.2383 -0.2355  0.5824
 2166TIP3    H127913   3.824   0.027  11.098 -0.9374  0.1480  0.4386
 2166TIP3    H227914   3.816   0.083  10.958  2.5478 -0.1574  0.0429
 2167TIP3   OH227915   3.844   0.561   4.258  0.2565  0.2668  0.5861
 2167TIP3    H127916   3.765   0.594   4.215 -0.0129 -1.0246  0.0387
 2167TIP3    H227917   3.813   0.524   4.341  0.4508  0.7281  0.8679
 2168TIP3   OH227918   4.910   4.944  15.227 -0.1773  0.1716  0.1610
 2168TIP3    H127919   4.981   4.910  15.172  0.1584 -0.2733  0.8594
 2168TIP3    H227920   4.887   4.872  15.285  0.4388  1.0629  1.5688
 2169TIP3   OH227921   6.002   5.277  15.269 -0.1627 -0.6587  0.1774
 2169TIP3    H127922   6.088   5.236  15.263 -0.1967 -0.6601 -0.2892
 2169TIP3    H227923   6.018   5.360  15.315  0.4060  0.2429 -1.5650
 2170TIP3   OH227924   1.001   3.035  16.628 -0.6699 -0.4744 -0.0270
 2170TIP3    H127925   0.984   3.108  16.569 -0.0931 -1.7476 -1.8917
 2170TIP3    H227926   0.983   3.069  16.715  0.1917  2.0666 -0.7456
 2171TIP3   OH227927   3.120   5.922  13.382 -0.4448 -0.6062  0.6351
 2171TIP3    H127928   3.092   5.930  13.473 -1.1753  0.7812  0.3138
 2171TIP3    H227929   3.108   5.829  13.362  0.7792 -1.1590  2.2582
 2172TIP3   OH227930   5.407   6.128  10.569  0.9211  0.9878 -0.1080
 2172TIP3    H127931   5.376   6.097  10.484 -0.0956 -0.4895  0.7619
 2172TIP3    H227932   5.502   6.131  10.560  0.8166  0.9910 -1.3351
 2173TIP3   OH227933   4.657   2.356  14.619 -0.4041  0.1450 -0.3643
 2173TIP3    H127934   4.706   2.282  14.584 -2.4956 -0.9463 -1.1053
 2173TIP3    H227935   4.576   2.319  14.653 -0.9698  1.9380  0.4019
 2174TIP3   OH227936   1.452   4.484   4.090  0.3731  0.5441  0.0704
 2174TIP3    H127937   1.396   4.550   4.051  0.5670  0.0709 -1.0576
 2174TIP3    H227938   1.431   4.486   4.183 -1.7709  0.1399 -0.3523
 2175TIP3   OH227939   3.209   0.789   2.877 -0.4400 -0.0602 -0.2283
 2175TIP3    H127940   3.175   0.878   2.867 -0.3515  0.0737  0.5939
 2175TIP3    H227941   3.137   0.739   2.915 -0.3993 -0.2802 -0.4338
 2176TIP3   OH227942   2.238   5.098  14.467 -0.3719  0.1535 -0.1385
 2176TIP3    H127943   2.295   5.054  14.404 -1.2494 -0.2728 -0.6636
 2176TIP3    H227944   2.296   5.126  14.537  0.3507 -1.0370 -0.2358
 2177TIP3   OH227945   6.440   4.904  10.653 -0.7492  0.1760 -0.7025
 2177TIP3    H127946   6.396   4.867  10.729  1.0691  0.6802  0.6618
 2177TIP3    H227947   6.463   4.993  10.679  3.4383 -0.8327 -0.1736
 2178TIP3   OH227948   6.082   0.909  13.201 -0.3016 -0.0365 -0.4619
 2178TIP3    H127949   6.154   0.905  13.137  0.3656  0.8249  0.2062
 2178TIP3    H227950   6.118   0.869  13.280 -1.0971 -1.0309 -0.5845
 2179TIP3   OH227951   0.230   3.289  14.716 -0.3820 -0.2237  0.3363
 2179TIP3    H127952   0.135   3.301  14.709 -0.2616  0.0036 -1.3521
 2179TIP3    H227953   0.255   3.339  14.793 -1.4740  0.6998  0.1136
 2180TIP3   OH227954   0.778   4.669   4.820  0.5964 -0.5891  0.2768
 2180TIP3    H127955   0.760   4.608   4.891  0.9051 -1.2136 -0.1776
 2180TIP3    H227956   0.694   4.714   4.806  0.5733 -0.3309  1.1410
 2181TIP3   OH227957   0.989   4.507   1.813  0.3270  0.0961  0.0045
 2181TIP3    H127958   0.917   4.571   1.810  1.1686  1.0953  0.3862
 2181TIP3    H227959   1.036   4.528   1.894  2.2265  0.8256 -1.2190
 2182TIP3   OH227960   5.104   3.718  15.018 -0.0260 -0.0099  0.3366
 2182TIP3    H127961   5.052   3.798  15.010  0.9084  0.5270 -0.8058
 2182TIP3    H227962   5.191   3.744  14.987 -0.1505 -1.9045 -1.8204
 2183TIP3   OH227963   2.234   5.854   4.551  0.0299 -0.1869  0.1416
 2183TIP3    H127964   2.255   5.799   4.475 -0.3852 -1.6032  1.0298
 2183TIP3    H227965   2.171   5.803   4.602 -0.1825  1.0098  1.1310
 2184TIP3   OH227966   1.922   1.036   1.614  0.5013 -0.7165  0.5161
 2184TIP3    H127967   1.854   1.015   1.678 -0.4906 -0.1195 -0.3044
 2184TIP3    H227968   1.914   1.130   1.601  1.1779 -0.7187  0.0437
 2185TIP3   OH227969   4.773   5.989  15.159  0.2182 -0.0353 -0.3124
 2185TIP3    H127970   4.778   5.999  15.254  2.0085  0.8290 -0.4561
 2185TIP3    H227971   4.783   6.077  15.125 -1.0071 -0.2564 -1.3236
 2186TIP3   OH227972   4.243   5.347   1.970  0.1643  0.0498  0.6331
 2186TIP3    H127973   4.287   5.432   1.974 -0.4064  0.4477 -0.7492
 2186TIP3    H227974   4.290   5.292   2.032  2.9633  0.2851 -1.1378
 2187TIP3   OH227975   5.865   5.410   4.166  0.2311  0.2432  0.3280
 2187TIP3    H127976   5.797   5.388   4.103  1.1253 -1.2121 -0.1613
 2187TIP3    H227977   5.942   5.430   4.113  1.1197 -1.4013  0.9243
 2188TIP3   OH227978   4.275   3.292  14.535  0.1259  0.4810  0.2455
 2188TIP3    H127979   4.278   3.344  14.615  0.7172  0.3615  0.3067
 2188TIP3    H227980   4.343   3.226  14.546 -1.0730 -0.7695  0.4750
 2189TIP3   OH227981   6.103   5.704  14.869 -0.5842  0.3056  0.4243
 2189TIP3    H127982   6.044   5.746  14.931 -1.0209  0.2721  0.0322
 2189TIP3    H227983   6.046   5.662  14.805 -0.1501  1.5139 -0.8122
 2190TIP3   OH227984   2.806   3.171   1.576  0.2246  0.1051  0.4703
 2190TIP3    H127985   2.876   3.228   1.543  0.9118 -0.6245  0.6345
 2190TIP3    H227986   2.789   3.110   1.503 -0.4872  0.4873  0.3051
 2191TIP3   OH227987   2.075   0.812   1.593  0.2358  0.1912  0.1755
 2191TIP3    H127988   2.041   0.898   1.616  0.8122  0.1112  1.4442
 2191TIP3    H227989   2.153   0.830   1.540  0.7895  0.4768  1.0776
 2192TIP3   OH227990   1.862   5.469   4.504 -0.5241  0.1864 -0.3653
 2192TIP3    H127991   1.891   5.417   4.429  1.7764  1.6558 -0.5888
 2192TIP3    H227992   1.903   5.427   4.580  1.8795  1.8972 -0.6128
 2193TIP3   OH227993   5.748   3.807   1.357  0.0405  0.4018 -0.9024
 2193TIP3    H127994   5.787   3.730   1.399 -3.8085 -1.4244 -0.2654
 2193TIP3    H227995   5.794   3.813   1.273  2.3612 -0.8159  0.1636
 2194TIP3   OH227996   5.457   5.260  14.487 -0.2888 -0.0097 -0.0706
 2194TIP3    H127997   5.389   5.324  14.510  1.0212  0.9656  1.2991
 2194TIP3    H227998   5.525   5.312  14.444  0.4440 -0.6094  0.3430
 2195TIP3   OH227999   5.080   5.495   5.144  0.3092 -0.2781 -0.2892
 2195TIP3    H128000   5.055   5.468   5.232 -1.1790  1.9704  0.0613
 2195TIP3    H228001   5.002   5.478   5.091 -0.5389  2.6340 -0.1382
 2196TIP3   OH228002   1.116   2.411   0.570 -0.0315  0.1972 -0.0995
 2196TIP3    H128003   1.156   2.339   0.522  0.2880  0.9495 -0.9868
 2196TIP3    H228004   1.088   2.372   0.653 -0.3365 -1.0570 -0.7750
 2197TIP3   OH228005   6.766   0.526  15.587  0.0824 -0.2199 -0.0737
 2197TIP3    H128006   6.760   0.540  15.682  1.5579 -0.8939  0.1467
 2197TIP3    H228007   6.695   0.580  15.550  0.5374  1.3879  1.2785
 2198TIP3   OH228008   2.842   3.177   5.126 -0.3074  0.6075 -0.3872
 2198TIP3    H128009   2.759   3.204   5.086 -0.0912  0.6110 -0.8430
 2198TIP3    H228010   2.888   3.259   5.145 -0.0020  0.5909 -1.0183
 2199TIP3   OH228011   4.334   1.346   2.435 -0.0633 -0.3615 -0.2311
 2199TIP3    H128012   4.419   1.361   2.476  1.6228  1.2525 -3.9249
 2199TIP3    H228013   4.291   1.431   2.437  0.0573 -0.2482 -1.7398
 2200TIP3   OH228014   0.866   0.038   0.358  0.5441  0.2920  0.3551
 2200TIP3    H128015   0.925  -0.021   0.311  0.9315  0.2741  0.8547
 2200TIP3    H228016   0.867   0.119   0.307 -1.5552 -0.7230 -1.4938
 2201TIP3   OH228017   3.496   6.237  13.490 -0.0927 -0.1637 -0.0239
 2201TIP3    H128018   3.573   6.190  13.524 -0.0125  0.1940  0.2996
 2201TIP3    H228019   3.534   6.310  13.442 -0.1712 -1.1914 -1.7314
 2202TIP3   OH228020   4.595   1.576  16.457  0.2685  0.7394  0.1875
 2202TIP3    H128021   4.589   1.540  16.369  1.2902 -0.8686  0.7338
 2202TIP3    H228022   4.675   1.538  16.494 -0.3653  1.0106  1.9638
 2203TIP3   OH228023   6.412   1.040   2.231 -0.6617  0.5476 -0.5201
 2203TIP3    H128024   6.439   1.089   2.153 -0.2135  0.1976 -0.5890
 2203TIP3    H228025   6.365   0.964   2.197  0.5382 -0.2278 -0.5113
 2204TIP3   OH228026   6.365   4.470  12.376 -0.2236 -0.4161  0.5958
 2204TIP3    H128027   6.419   4.508  12.307  0.2668 -1.1070  0.5916
 2204TIP3    H228028   6.292   4.429  12.328  0.6052 -1.7093  0.3957
 2205TIP3   OH228029   0.909   5.893  13.555  0.7035  0.6579  0.1029
 2205TIP3    H128030   0.878   5.871  13.467 -0.2272 -0.3168  0.6543
 2205TIP3    H228031   0.856   5.839  13.614 -0.6707  3.3250  1.4829
 2206TIP3   OH228032   2.366   3.537  11.577  0.6356 -1.1126  0.3981
 2206TIP3    H128033   2.287   3.493  11.546  0.6613 -0.4590 -0.6114
 2206TIP3    H228034   2.412   3.566  11.498  0.6505  0.6760  1.0035
 2207TIP3   OH228035   0.194   3.544  15.895 -0.0991 -0.1646 -0.1622
 2207TIP3    H128036   0.198   3.451  15.872  1.2727  0.1614 -1.4031
 2207TIP3    H228037   0.268   3.558  15.953 -1.2953 -0.1647  1.4207
 2208TIP3   OH228038   1.739   4.394   2.104  0.2367 -0.0027  0.4180
 2208TIP3    H128039   1.658   4.353   2.075 -0.8759  1.5025  1.2260
 2208TIP3    H228040   1.741   4.378   2.198  1.1852 -0.5096  0.3211
 2209TIP3   OH228041   1.391   3.509  13.569  0.2006  0.0088  0.1315
 2209TIP3    H128042   1.397   3.499  13.664 -0.7875  0.3666  0.2435
 2209TIP3    H228043   1.300   3.534  13.553  0.9710  2.6653 -0.6618
 2210TIP3   OH228044   2.947   5.207   3.885  0.8368 -0.4781  0.1339
 2210TIP3    H128045   2.879   5.236   3.945  1.4911  0.2435  0.5460
 2210TIP3    H228046   3.019   5.180   3.942  1.4916  0.2793 -0.3198
 2211TIP3   OH228047   4.221   0.506  13.494 -0.0276 -0.0133 -0.4649
 2211TIP3    H128048   4.164   0.579  13.468 -0.2506  0.4082  1.0663
 2211TIP3    H228049   4.226   0.514  13.590 -0.9804 -2.6763 -0.1213
 2212TIP3   OH228050   3.110   3.627   3.309 -0.4101  0.0508  0.0647
 2212TIP3    H128051   3.170   3.579   3.252 -0.6507  1.8774 -1.8548
 2212TIP3    H228052   3.158   3.637   3.391  0.6633 -1.1645 -0.3878
 2213TIP3   OH228053   2.596   5.510  10.489  0.3862 -0.2437  0.3317
 2213TIP3    H128054   2.644   5.581  10.448 -0.5720  0.9379  1.1994
 2213TIP3    H228055   2.523   5.492  10.430  0.0001  0.2611  0.6505
 2214TIP3   OH228056   3.762   3.906   4.502 -0.7547  0.7181  1.0251
 2214TIP3    H128057   3.823   3.939   4.436  0.1349 -0.5881  1.1687
 2214TIP3    H228058   3.812   3.907   4.583 -1.3328  0.7794  1.3861
 2215TIP3   OH228059   1.021   2.663  14.399  0.4782 -0.0525 -0.4708
 2215TIP3    H128060   0.928   2.652  14.418  0.7185  0.2228  0.9534
 2215TIP3    H228061   1.023   2.697  14.309 -0.7921  0.0540 -0.4795
 2216TIP3   OH228062   2.207   0.296   2.229 -0.0176  0.6471 -0.4915
 2216TIP3    H128063   2.205   0.299   2.134  0.6976 -0.7952 -0.5894
 2216TIP3    H228064   2.301   0.290   2.251 -0.2214 -0.0250  0.2443
 2217TIP3   OH228065   6.220   3.900  13.752  0.4021 -0.1930 -0.3975
 2217TIP3    H128066   6.135   3.939  13.733 -0.5100 -1.0760  1.5467
 2217TIP3    H228067   6.253   3.872  13.667 -1.1482  0.3539 -1.2252
 2218TIP3   OH228068   4.927   5.322  13.202  0.0379 -0.1111 -0.5206
 2218TIP3    H128069   4.980   5.393  13.164  0.7795 -0.3653  0.0011
 2218TIP3    H228070   4.847   5.366  13.231  0.5802  0.5727 -0.0015
 2219TIP3   OH228071   1.120   5.755   5.427  0.5031  0.1914 -0.1435
 2219TIP3    H128072   1.110   5.668   5.388  0.4439  0.3418 -0.4710
 2219TIP3    H228073   1.200   5.748   5.479 -0.3948 -0.5417  1.1888
 2220TIP3   OH228074   1.696   3.134  16.610 -0.5798 -0.1624 -0.6277
 2220TIP3    H128075   1.688   3.194  16.535 -1.7407  1.1370  0.4808
 2220TIP3    H228076   1.637   3.062  16.590 -0.5959 -0.0178 -1.1255
 2221TIP3   OH228077   1.907   3.459   5.579  0.2017  0.5390  0.2917
 2221TIP3    H128078   1.833   3.430   5.526  0.3201 -0.8714  0.8637
 2221TIP3    H228079   1.875   3.536   5.625 -1.3999 -0.8094  1.5613
 2222TIP3   OH228080   0.164   1.041  10.760  0.6977  0.0023  0.0737
 2222TIP3    H128081   0.086   1.032  10.705 -0.5925 -0.6011  1.9071
 2222TIP3    H228082   0.213   0.960  10.746  2.8878  1.7054 -3.6527
 2223TIP3   OH228083   5.891   5.630  16.514  0.3616 -0.4037  0.1884
 2223TIP3    H128084   5.896   5.551  16.568  1.2106  0.0940  0.8579
 2223TIP3    H228085   5.956   5.616  16.445  0.2727 -0.4409  0.1131
 2224TIP3   OH228086   3.302   2.964   4.605 -0.2049 -0.1373 -0.0971
 2224TIP3    H128087   3.237   2.895   4.592 -0.0835 -0.1750 -0.5227
 2224TIP3    H228088   3.305   3.010   4.521 -0.6976  0.7511  0.3649
 2225TIP3   OH228089   6.319   2.246  12.530  0.1148 -0.3260  0.3316
 2225TIP3    H128090   6.233   2.278  12.558  0.3546  0.6450  0.0078
 2225TIP3    H228091   6.326   2.159  12.569 -1.5293 -0.9513 -0.6334
 2226TIP3   OH228092   3.105   4.826   6.149 -0.3528 -0.4954  0.6785
 2226TIP3    H128093   3.064   4.829   6.063  0.3270  0.4326  0.3758
 2226TIP3    H228094   3.173   4.893   6.146  1.0850 -1.8824  1.2366
 2227TIP3   OH228095   4.931   1.711   3.657  0.1395 -0.4018  0.3874
 2227TIP3    H128096   4.930   1.627   3.703  0.5830 -0.6386 -0.0235
 2227TIP3    H228097   4.944   1.776   3.726  1.5607 -0.8123  0.5375
 2228TIP3   OH228098   1.481   3.264   3.240  0.2853  0.0298  0.0338
 2228TIP3    H128099   1.474   3.299   3.151 -0.1694  1.0666  0.4548
 2228TIP3    H228100   1.576   3.256   3.255  0.3851 -2.6976 -1.4546
 2229TIP3   OH228101   2.339   3.278   2.341  0.0846 -0.0791 -0.2529
 2229TIP3    H128102   2.389   3.350   2.379  0.4479 -0.4508 -0.0260
 2229TIP3    H228103   2.255   3.317   2.317 -0.2249  0.1146  1.1083
 2230TIP3   OH228104   4.240   6.647   1.225  0.3648 -0.1746 -0.0850
 2230TIP3    H128105   4.194   6.709   1.282  1.5244 -0.1585  0.8748
 2230TIP3    H228106   4.176   6.625   1.157 -0.5043  1.0838  0.2779
 2231TIP3   OH228107   4.716   0.276   3.548  0.8089 -0.7478  0.1328
 2231TIP3    H128108   4.783   0.208   3.540 -0.6681 -2.3747  0.9569
 2231TIP3    H228109   4.681   0.286   3.459  1.5296 -0.4980 -0.1324
 2232TIP3   OH228110   0.149   5.116  13.625 -0.0641  0.7193 -0.7920
 2232TIP3    H128111   0.135   5.074  13.540  0.5733  0.2739 -0.6882
 2232TIP3    H228112   0.244   5.131  13.630  0.1172 -0.5316  0.3940
 2233TIP3   OH228113   0.585   2.759  11.320 -0.1630 -0.2875  0.5712
 2233TIP3    H128114   0.671   2.787  11.290 -0.6047 -0.7038 -1.1988
 2233TIP3    H228115   0.556   2.828  11.379  0.6614  0.7067 -0.1554
 2234TIP3   OH228116   0.527   5.606  12.774  0.7412  0.0916  0.2094
 2234TIP3    H128117   0.531   5.686  12.827 -0.5538  1.5545 -1.7267
 2234TIP3    H228118   0.454   5.557  12.812  1.6033 -0.2816  1.4740
 2235TIP3   OH228119   1.941   5.071  11.425  0.1655  0.0713 -0.5403
 2235TIP3    H128120   1.990   5.056  11.505 -0.9554  1.9407  0.5459
 2235TIP3    H228121   1.906   4.984  11.402 -0.0459 -0.3768  1.3555
 2236TIP3   OH228122   6.374   2.321  11.347 -0.6305 -0.1150  0.2682
 2236TIP3    H128123   6.364   2.353  11.437  1.9696  2.9845 -0.3442
 2236TIP3    H228124   6.342   2.393  11.293  1.2194 -0.3462 -1.2425
 2237TIP3   OH228125   5.598   4.396  13.236 -0.0072 -0.3029  0.4860
 2237TIP3    H128126   5.508   4.413  13.263 -0.2064 -0.2050 -0.2159
 2237TIP3    H228127   5.644   4.478  13.251 -0.4316  0.1744 -0.7331
 2238TIP3   OH228128   5.553   6.454  10.443 -0.3466  0.5131  0.5851
 2238TIP3    H128129   5.613   6.529  10.445 -0.5571  0.6680  2.3351
 2238TIP3    H228130   5.471   6.490  10.411 -0.4357  1.0523  1.3854
 2239TIP3   OH228131   5.652   4.529  15.581 -0.7296  0.3704  0.2149
 2239TIP3    H128132   5.628   4.621  15.581  0.4338  0.6966 -0.1805
 2239TIP3    H228133   5.602   4.490  15.510 -1.2832  0.6780  0.4330
 2240TIP3   OH228134   0.282   0.833  14.752 -0.2459  0.6051 -0.1726
 2240TIP3    H128135   0.289   0.766  14.820  0.0064  0.5312 -0.2707
 2240TIP3    H228136   0.207   0.886  14.778 -0.3109  0.4181  0.0228
 2241TIP3   OH228137   3.148   6.603  13.047 -0.0637 -0.1346  0.7472
 2241TIP3    H128138   3.077   6.563  12.998  0.8053 -1.3222  0.4236
 2241TIP3    H228139   3.199   6.650  12.982 -0.5791  0.8187  0.9974
 2242TIP3   OH228140   5.815   5.840  13.776 -0.2508  0.1782 -0.4150
 2242TIP3    H128141   5.789   5.931  13.786 -0.7290  0.2747 -2.1789
 2242TIP3    H228142   5.911   5.843  13.769 -0.3053  0.6095 -0.9938
 2243TIP3   OH228143   1.710   3.666   5.013 -0.6326 -0.0510 -0.0374
 2243TIP3    H128144   1.648   3.646   5.083 -0.3356 -0.3870  0.1304
 2243TIP3    H228145   1.703   3.761   5.001 -0.0119  0.1538  1.0875
 2244TIP3   OH228146   5.140   6.719   3.134  0.0188 -0.0977  0.1510
 2244TIP3    H128147   5.087   6.735   3.212 -2.5740 -1.4741 -1.1932
 2244TIP3    H228148   5.145   6.805   3.091  0.7959  0.4974  1.3617
 2245TIP3   OH228149   4.514   6.124  11.161 -0.2180 -0.5881  0.1248
 2245TIP3    H128150   4.512   6.173  11.078  0.9019  1.8522  1.4480
 2245TIP3    H228151   4.603   6.134  11.193  0.2646 -4.0105  0.3206
 2246TIP3   OH228152   5.563   4.956  15.273  0.4574 -0.7036  0.2508
 2246TIP3    H128153   5.581   4.863  15.261 -1.2304 -1.0313  0.0326
 2246TIP3    H228154   5.519   4.983  15.193 -0.7700 -0.1765  1.0744
 2247TIP3   OH228155   0.953   2.390   2.364 -0.6486 -0.2210  0.1844
 2247TIP3    H128156   0.915   2.344   2.439 -2.4211  2.5569  1.1663
 2247TIP3    H228157   1.036   2.423   2.396 -1.5142  1.1775  1.0941
 2248TIP3   OH228158   1.812   0.761   0.585 -0.0354  0.1359  0.1915
 2248TIP3    H128159   1.900   0.773   0.622  0.4616  1.5155 -1.3276
 2248TIP3    H228160   1.798   0.839   0.532 -1.2259 -1.1559 -1.4829
 2249TIP3   OH228161   2.858   6.496  11.238  0.0123  0.5621 -0.4151
 2249TIP3    H128162   2.773   6.466  11.270 -0.0512 -0.6341 -1.6042
 2249TIP3    H228163   2.840   6.540  11.156  0.4065  1.5624  0.0219
 2250TIP3   OH228164   4.229   0.530  11.623 -0.6680  0.0908  0.2811
 2250TIP3    H128165   4.308   0.554  11.671 -0.0479  0.8066 -1.0190
 2250TIP3    H228166   4.163   0.594  11.652  0.5605  2.6274 -2.0257
 2251TIP3   OH228167   0.886   3.686   3.451 -0.2812 -0.2047  0.6620
 2251TIP3    H128168   0.870   3.733   3.532 -0.3286  0.5944  0.1936
 2251TIP3    H228169   0.852   3.598   3.468  1.0795 -0.5124  2.0301
 2252TIP3   OH228170   4.823   2.460   1.560  0.4894 -0.3526 -0.3453
 2252TIP3    H128171   4.758   2.420   1.502 -0.7839  0.1954  0.6445
 2252TIP3    H228172   4.778   2.467   1.645  2.1574 -0.7774  0.6166
 2253TIP3   OH228173   5.660   3.247  13.397  0.9255  0.4997  0.0492
 2253TIP3    H128174   5.671   3.283  13.485 -0.8746 -0.0509  0.5375
 2253TIP3    H228175   5.708   3.308  13.340  0.6418  1.8531  1.2143
 2254TIP3   OH228176   2.846   1.960  15.865 -0.2757 -0.3384 -0.1915
 2254TIP3    H128177   2.792   1.907  15.924 -1.5055  1.1574  0.1062
 2254TIP3    H228178   2.790   1.974  15.789  0.0789  0.4019 -0.3202
 2255TIP3   OH228179   0.264   3.796  14.133 -0.1946 -0.1487  0.4634
 2255TIP3    H128180   0.351   3.791  14.173  0.6023 -2.4402 -1.3063
 2255TIP3    H228181   0.244   3.889  14.130  3.2988  0.7270 -1.1877
 2256TIP3   OH228182   5.110   0.905  11.969 -0.6803 -0.4599 -0.0995
 2256TIP3    H128183   5.128   0.996  11.948 -1.4309 -0.2568  0.1066
 2256TIP3    H228184   5.059   0.908  12.050 -2.0995 -0.9596 -0.9304
 2257TIP3   OH228185   6.404   3.587   5.598  0.3554 -0.0341 -0.4556
 2257TIP3    H128186   6.416   3.528   5.673  0.1844  0.6218  0.1047
 2257TIP3    H228187   6.347   3.539   5.539  1.0380 -0.8433 -0.4923
 2258TIP3   OH228188   6.248   2.211  11.060 -0.0275 -0.5738  0.1928
 2258TIP3    H128189   6.320   2.264  11.093  1.0764 -2.6293  1.2379
 2258TIP3    H228190   6.185   2.275  11.027  0.5549  1.4737  2.7295
 2259TIP3   OH228191   0.258   1.264  15.521  0.2253  0.1744  0.5919
 2259TIP3    H128192   0.180   1.258  15.465  1.2432  0.3250 -0.8918
 2259TIP3    H228193   0.245   1.196  15.587  0.2761 -1.9899 -1.4947
 2260TIP3   OH228194   0.875   2.761   2.718 -0.3295  0.3820  0.1009
 2260TIP3    H128195   0.964   2.757   2.753 -0.9463 -0.1721  1.6967
 2260TIP3    H228196   0.850   2.669   2.705  0.0276  0.5689 -2.2998
 2261TIP3   OH228197   0.258   1.377   1.580  0.5194  0.1635  0.1879
 2261TIP3    H128198   0.349   1.361   1.609 -0.1939 -1.7437  1.6094
 2261TIP3    H228199   0.207   1.309   1.625 -1.5295  0.7550 -1.1410
 2262TIP3   OH228200   1.726   0.484  14.895  0.4992 -0.7309  0.1186
 2262TIP3    H128201   1.766   0.473  14.808 -1.1031  0.0147 -0.7443
 2262TIP3    H228202   1.632   0.485  14.878  0.1567 -0.6249  1.8910
 2263TIP3   OH228203   3.161   2.844  14.111  0.4648  0.1517  0.2711
 2263TIP3    H128204   3.180   2.753  14.135  0.9486 -0.1578 -1.2205
 2263TIP3    H228205   3.087   2.838  14.050  0.2285  0.8012  0.4839
 2264TIP3   OH228206   4.977   2.585  12.310 -0.2836  0.1928  1.0072
 2264TIP3    H128207   5.031   2.569  12.388  0.2002  0.0042  0.6408
 2264TIP3    H228208   5.040   2.609  12.242 -0.7571  0.9619  0.8299
 2265TIP3   OH228209   3.365   4.642   0.881 -0.0904  0.3590 -0.1155
 2265TIP3    H128210   3.366   4.735   0.903 -1.0097  0.3154  0.1643
 2265TIP3    H228211   3.452   4.610   0.907 -0.0899  0.9468  0.6271
 2266TIP3   OH228212   2.244   2.181  13.902 -0.1164  0.4265  0.1857
 2266TIP3    H128213   2.296   2.165  13.981  0.5363  1.3913 -0.0304
 2266TIP3    H228214   2.296   2.145  13.831 -0.7916 -0.6145  0.1854
 2267TIP3   OH228215   0.283   2.503  10.654  0.3329  0.0864  0.2793
 2267TIP3    H128216   0.367   2.537  10.622 -0.0587  0.3502 -0.5152
 2267TIP3    H228217   0.219   2.564  10.618 -0.3787 -1.3201 -0.9645
 2268TIP3   OH228218   2.592   0.758   3.744  0.1423 -0.1912  0.0083
 2268TIP3    H128219   2.580   0.838   3.794  0.9567 -0.6938  1.0474
 2268TIP3    H228220   2.589   0.786   3.652 -2.0489  0.6471  0.2887
 2269TIP3   OH228221   6.755   3.089   0.624  0.0860  0.8894  0.3541
 2269TIP3    H128222   6.747   3.136   0.541  2.1153  1.1348  0.2341
 2269TIP3    H228223   6.807   3.012   0.603  0.1496  0.6648  1.2939
 2270TIP3   OH228224   5.752   0.929  15.740 -0.6648 -0.2311 -0.2465
 2270TIP3    H128225   5.687   0.879  15.789 -1.4443  1.8766  0.9490
 2270TIP3    H228226   5.734   1.020  15.760  0.1672  0.6631 -3.0201
 2271TIP3   OH228227   0.099   4.856  15.147  0.0724 -0.2079  0.5061
 2271TIP3    H128228   0.045   4.783  15.117  0.5084 -0.4468  0.2870
 2271TIP3    H228229   0.037   4.928  15.161  0.0178  0.4756 -2.5941
 2272TIP3   OH228230   6.189   5.769  14.607  0.1673  0.5639  0.2174
 2272TIP3    H128231   6.225   5.681  14.622  0.4738  0.5973 -0.2869
 2272TIP3    H228232   6.131   5.784  14.681  0.4991  0.1362  0.5702
 2273TIP3   OH228233   6.367   3.055   3.511 -0.5704 -0.1077  0.2854
 2273TIP3    H128234   6.331   3.081   3.426  0.3428  0.1656 -0.0353
 2273TIP3    H228235   6.315   3.103   3.575 -1.4635 -0.5513 -0.0990
 2274TIP3   OH228236   0.460   5.787   4.913 -0.2347 -0.4810  0.0664
 2274TIP3    H128237   0.458   5.867   4.965  0.9557 -2.1937  3.0365
 2274TIP3    H228238   0.497   5.813   4.829 -2.3117  2.4742 -0.0907
 2275TIP3   OH228239   3.061   2.774   6.454  0.1694 -0.0924 -0.5986
 2275TIP3    H128240   3.108   2.801   6.533 -0.8192  0.1476 -0.0797
 2275TIP3    H228241   2.989   2.720   6.486 -0.3210  0.1167 -1.3198
 2276TIP3   OH228242   1.793   2.176  12.762  0.2951  0.0726  0.0207
 2276TIP3    H128243   1.863   2.227  12.802  1.2271 -0.2264 -1.1736
 2276TIP3    H228244   1.831   2.090  12.747 -0.3067 -0.0796 -0.7006
 2277TIP3   OH228245   5.385   3.701  12.819  0.5076  0.0681  0.2985
 2277TIP3    H128246   5.291   3.703  12.832  0.4184 -1.4106  0.1023
 2277TIP3    H228247   5.399   3.629  12.756  1.6828  0.8948 -0.4315
 2278TIP3   OH228248   2.513   4.712  10.744 -0.0383  0.7454  0.4332
 2278TIP3    H128249   2.439   4.744  10.692  0.1142  0.1321 -0.1795
 2278TIP3    H228250   2.484   4.626  10.775  1.1448 -0.4205 -1.4916
 2279TIP3   OH228251   6.094   1.229  15.004 -0.1512 -0.0174 -0.2592
 2279TIP3    H128252   6.091   1.205  15.097 -0.0327  0.4115 -0.1420
 2279TIP3    H228253   6.077   1.147  14.958 -0.0121 -0.2749  0.1377
 2280TIP3   OH228254   4.077   0.812   1.376  0.7719 -0.0208  0.4004
 2280TIP3    H128255   4.090   0.907   1.370  2.3886 -0.2390  0.2703
 2280TIP3    H228256   3.982   0.803   1.387  0.6070  1.6186  0.6807
 2281TIP3   OH228257   4.513   2.510  12.320  0.2336 -0.3092  0.0197
 2281TIP3    H128258   4.480   2.490  12.233  0.8232 -1.5178  0.0370
 2281TIP3    H228259   4.445   2.479  12.380 -0.8053  1.7845  0.0136
 2282TIP3   OH228260   6.380   3.383   2.131  0.3611  0.6082 -0.1279
 2282TIP3    H128261   6.437   3.336   2.070  2.1036  0.3688  1.5758
 2282TIP3    H228262   6.406   3.351   2.217 -0.8829  2.1188  0.8597
 2283TIP3   OH228263   2.767   5.458   1.462  0.3060 -0.2205 -0.1591
 2283TIP3    H128264   2.806   5.542   1.435  0.2759 -0.5891 -1.4325
 2283TIP3    H228265   2.712   5.480   1.537  0.3318  0.9070 -0.4513
 2284TIP3   OH228266   2.911   3.812  15.843 -0.2636 -0.1812 -0.3579
 2284TIP3    H128267   2.856   3.870  15.790  0.5382  1.2875  0.3501
 2284TIP3    H228268   2.930   3.863  15.922 -0.7123 -1.9820  0.9630
 2285TIP3   OH228269   0.729   4.014  13.919  0.1302  0.0907  0.2450
 2285TIP3    H128270   0.763   4.099  13.891 -1.0003  0.4722 -0.0333
 2285TIP3    H228271   0.653   4.035  13.973 -1.0463 -0.7392 -1.0077
 2286TIP3   OH228272   5.378   1.053  10.953  0.3192 -0.1843 -0.3999
 2286TIP3    H128273   5.369   0.961  10.981  0.5735  0.1956  0.9932
 2286TIP3    H228274   5.289   1.080  10.932 -0.1352 -0.0898  1.4393
 2287TIP3   OH228275   0.080   3.259  12.455 -0.4467  0.1574 -0.5288
 2287TIP3    H128276   0.126   3.342  12.465 -0.2077 -0.1193  0.7008
 2287TIP3    H228277   0.144   3.192  12.477 -0.6226 -0.3845 -1.5551
 2288TIP3   OH228278   5.646   0.836   3.488 -0.1562 -0.0994  0.8749
 2288TIP3    H128279   5.671   0.856   3.398 -0.4519  0.3030  0.8772
 2288TIP3    H228280   5.683   0.749   3.505  1.8646  0.7732  1.1428
 2289TIP3   OH228281   1.725   5.313   4.793  0.0956  0.6489  0.5089
 2289TIP3    H128282   1.712   5.222   4.818 -1.6979  0.9585  0.8777
 2289TIP3    H228283   1.794   5.345   4.851 -0.2671 -0.1000  1.3796
 2290TIP3   OH228284   5.526   1.975  13.639 -0.6065 -0.4721 -0.4367
 2290TIP3    H128285   5.477   1.926  13.574 -2.4642  0.5625  0.1319
 2290TIP3    H228286   5.504   1.934  13.722 -1.9911  1.0749  0.0194
 2291TIP3   OH228287   2.761   3.444  15.065  0.1537 -0.3322 -0.3124
 2291TIP3    H128288   2.689   3.467  15.006  1.4497 -2.0470 -2.7489
 2291TIP3    H228289   2.791   3.527  15.101 -0.3500  0.8944 -2.5447
 2292TIP3   OH228290   4.270   6.527   1.959  0.2436 -0.0958  0.3628
 2292TIP3    H128291   4.205   6.461   1.985  0.9514 -0.4081  1.4206
 2292TIP3    H228292   4.219   6.596   1.919 -0.9331  0.2653  2.3261
 2293TIP3   OH228293   4.839   4.614  13.232  0.7597  0.5152  0.2031
 2293TIP3    H128294   4.857   4.535  13.181  0.2186 -0.5782  1.6396
 2293TIP3    H228295   4.743   4.616  13.239  0.8211  0.6159  1.1796
 2294TIP3   OH228296   6.614   2.075   1.770 -0.1651 -0.3841  0.3514
 2294TIP3    H128297   6.551   2.140   1.800 -0.6018 -0.3967 -0.5190
 2294TIP3    H228298   6.685   2.127   1.732 -1.0623 -0.3963 -1.4484
 2295TIP3   OH228299   3.207   5.121  15.974 -0.6478 -0.1799  0.4324
 2295TIP3    H128300   3.186   5.095  16.063  1.1592  0.4717  1.0977
 2295TIP3    H228301   3.219   5.039  15.926  0.2577 -0.5775  1.2980
 2296TIP3   OH228302   3.256   4.176   5.573 -0.1822  0.0655  0.1690
 2296TIP3    H128303   3.197   4.248   5.595  0.4750  0.5747  0.3061
 2296TIP3    H228304   3.297   4.153   5.657  0.0206 -0.0948  0.0250
 2297TIP3   OH228305   5.196   1.411  12.611  0.3051  0.4239 -0.1161
 2297TIP3    H128306   5.276   1.408  12.559 -0.5997 -0.2422 -1.5175
 2297TIP3    H228307   5.126   1.426  12.547 -0.8140 -0.1377  0.9400
 2298TIP3   OH228308   4.891   0.393  13.062 -0.2424 -0.0299 -0.3799
 2298TIP3    H128309   4.877   0.298  13.065  0.0921 -0.1055 -0.9464
 2298TIP3    H228310   4.985   0.403  13.077  0.6462 -0.1433 -4.5370
 2299TIP3   OH228311   2.251   6.380  15.439  0.1144  0.7656 -0.0081
 2299TIP3    H128312   2.199   6.366  15.518  0.4588 -1.3483 -0.1065
 2299TIP3    H228313   2.187   6.399  15.371 -0.5146 -0.9332  0.0610
 2300TIP3   OH228314   5.943   4.223   3.661  0.0103 -0.4734 -0.4104
 2300TIP3    H128315   6.014   4.271   3.703 -1.2164 -0.2331  1.5388
 2300TIP3    H228316   5.942   4.256   3.571  0.7690  1.3588  0.1900
 2301TIP3   OH228317   3.800   3.733   5.902 -0.1187 -0.0982 -0.5085
 2301TIP3    H128318   3.723   3.699   5.948  0.6703  0.3143  1.1881
 2301TIP3    H228319   3.776   3.822   5.877 -0.1391  0.0971  0.1896
 2302TIP3   OH228320   0.948   5.638   6.321 -0.2185 -0.1234  0.0517
 2302TIP3    H128321   1.013   5.583   6.276  3.2799  1.5314  2.5397
 2302TIP3    H228322   0.916   5.698   6.254  2.6615  0.4645 -0.9649
 2303TIP3   OH228323   6.230   3.740   9.676 -0.2593  0.1126  0.5528
 2303TIP3    H128324   6.276   3.731   9.760 -0.1610 -1.9967  0.3248
 2303TIP3    H228325   6.264   3.669   9.622  0.8195  2.3017 -1.8795
 2304TIP3   OH228326   0.285   1.857   4.389 -0.2251  0.8440  0.5935
 2304TIP3    H128327   0.256   1.912   4.462  0.5248  0.6242  1.0733
 2304TIP3    H228328   0.377   1.880   4.377 -0.6977  2.0088 -1.3192
 2305TIP3   OH228329   1.729   1.849   1.142  0.0232 -0.3712  0.2111
 2305TIP3    H128330   1.668   1.894   1.200  1.4597 -0.4412  1.8764
 2305TIP3    H228331   1.799   1.913   1.127  0.1444 -0.6938 -0.6866
 2306TIP3   OH228332   1.410   4.106  16.310 -0.0034  0.3151  1.0204
 2306TIP3    H128333   1.459   4.024  16.312 -0.8340 -0.2570 -0.2184
 2306TIP3    H228334   1.335   4.091  16.367 -0.5902 -0.1146  0.1648
 2307TIP3   OH228335   6.353   5.893  14.383  0.0428  0.0587 -0.4829
 2307TIP3    H128336   6.446   5.911  14.397 -0.1026  0.5454 -0.0882
 2307TIP3    H228337   6.327   5.840  14.458  0.0246 -0.1719 -0.6503
 2308TIP3   OH228338   1.639   5.914   6.163 -0.7094  0.3927 -0.1909
 2308TIP3    H128339   1.613   6.006   6.156  0.7594  0.9084  0.6271
 2308TIP3    H228340   1.562   5.869   6.197 -0.5761  1.8750  2.3305
 2309TIP3   OH228341   3.767   5.696  11.771 -0.2472 -0.1327  0.0626
 2309TIP3    H128342   3.736   5.713  11.682 -0.6045  1.5413  0.4625
 2309TIP3    H228343   3.861   5.678  11.761 -0.2441  0.2561 -0.6479
 2310TIP3   OH228344   1.237   6.058   1.726 -0.5479 -0.3380  0.0193
 2310TIP3    H128345   1.247   5.983   1.785  0.8113 -0.7283 -0.6613
 2310TIP3    H228346   1.285   6.129   1.769 -1.1682 -0.0771  0.2865
 2311TIP3   OH228347   3.340   2.692   6.379  0.0861  0.1845  0.7351
 2311TIP3    H128348   3.246   2.698   6.396 -0.9019 -2.7441 -2.4662
 2311TIP3    H228349   3.357   2.759   6.313  0.0374  0.1216  0.6584
 2312TIP3   OH228350   6.706   3.601  12.685 -0.3787 -0.3960 -0.0459
 2312TIP3    H128351   6.690   3.652  12.764 -0.4161 -0.4359 -0.0270
 2312TIP3    H228352   6.633   3.539  12.682 -0.1597 -0.6636  0.1102
 2313TIP3   OH228353   1.171   5.688  13.415 -0.0359 -0.5099  0.1957
 2313TIP3    H128354   1.121   5.767  13.436  0.8450 -0.0136  0.5247
 2313TIP3    H228355   1.197   5.653  13.500  0.1037 -0.8085  0.0313
 2314TIP3   OH228356   1.360   2.922   4.140 -0.4514 -0.6502 -0.2239
 2314TIP3    H128357   1.290   2.911   4.204 -1.2273  1.1781 -0.7148
 2314TIP3    H228358   1.388   3.013   4.150  0.7187 -0.8773 -1.1944
 2315TIP3   OH228359   1.595   4.617  16.669  0.0871  0.1435  0.4984
 2315TIP3    H128360   1.568   4.525  16.667 -0.0976  0.2034  0.1016
 2315TIP3    H228361   1.648   4.629  16.590 -0.4246  0.5308  0.2024
 2316TIP3   OH228362   2.512   2.563  11.310  0.2188  0.5162 -0.3133
 2316TIP3    H128363   2.570   2.617  11.364  1.8620 -1.1106 -0.3739
 2316TIP3    H228364   2.436   2.546  11.365  1.2567  0.0192  1.0026
 2317TIP3   OH228365   3.531   3.278   2.359  0.8279  0.0572 -0.7755
 2317TIP3    H128366   3.513   3.280   2.265 -0.1613  0.7344 -0.5881
 2317TIP3    H228367   3.456   3.231   2.396  0.6359  0.7847 -0.2166
 2318TIP3   OH228368   2.891   6.447   4.536 -0.1983  0.1337  0.4288
 2318TIP3    H128369   2.902   6.507   4.463  1.1693  2.2463  2.2254
 2318TIP3    H228370   2.960   6.381   4.524 -0.0635  0.3945 -0.2414
 2319TIP3   OH228371   0.728   5.494   3.995 -0.0795  0.0427 -0.2573
 2319TIP3    H128372   0.720   5.486   4.090 -1.0013 -0.6889 -0.3830
 2319TIP3    H228373   0.819   5.518   3.981  0.1152 -0.0060  0.8007
 2320TIP3   OH228374   1.664   5.419  10.976 -0.1996 -0.2375  0.1415
 2320TIP3    H128375   1.589   5.417  10.916  0.4595  0.6687 -0.7488
 2320TIP3    H228376   1.629   5.453  11.058 -0.7362  0.3367 -0.3177
 2321TIP3   OH228377   2.613   1.220   5.019  0.4689 -0.4461  1.0784
 2321TIP3    H128378   2.674   1.271   5.072 -1.2003  0.7581  1.9414
 2321TIP3    H228379   2.654   1.134   5.011  3.0360  0.7369  0.2184
 2322TIP3   OH228380   1.990   2.216   5.380  0.7857  0.1171  0.0126
 2322TIP3    H128381   1.962   2.224   5.472 -2.0168  0.4588 -0.7917
 2322TIP3    H228382   1.934   2.277   5.332  1.2977 -0.9860 -2.1094
 2323TIP3   OH228383   5.298   3.881   5.589  0.0274 -0.3911 -0.2366
 2323TIP3    H128384   5.343   3.852   5.509  0.4327 -0.1642 -0.0933
 2323TIP3    H228385   5.340   3.964   5.612 -0.0431 -0.4844  0.2479
 2324TIP3   OH228386   4.086   1.246  15.729 -0.2672  0.3303  0.0267
 2324TIP3    H128387   4.097   1.318  15.666 -3.4331  0.6924 -0.2860
 2324TIP3    H228388   4.092   1.167  15.675 -1.9423  0.6041 -0.6264
 2325TIP3   OH228389   0.284   5.450  16.453 -0.1909  0.5155 -0.2304
 2325TIP3    H128390   0.329   5.522  16.497  1.1132 -1.2087  1.4406
 2325TIP3    H228391   0.255   5.487  16.369  0.4070  2.9445  0.5563
 2326TIP3   OH228392   3.397   3.574   2.370 -0.1738 -0.0969  0.0040
 2326TIP3    H128393   3.424   3.512   2.438 -0.2210  0.6669  0.7253
 2326TIP3    H228394   3.303   3.559   2.360 -0.3511  0.4683  0.8055
 2327TIP3   OH228395   3.312   2.822  15.214 -0.8392 -0.6155  0.4444
 2327TIP3    H128396   3.404   2.843  15.201 -1.0626  2.3418  2.6534
 2327TIP3    H228397   3.314   2.747  15.274  0.0489 -1.4614 -0.5818
 2328TIP3   OH228398   4.162   4.201   3.777  0.4474 -0.2564 -0.4511
 2328TIP3    H128399   4.147   4.293   3.800  0.7100 -0.5390  0.9964
 2328TIP3    H228400   4.253   4.199   3.745  0.1953  0.0947 -1.2131
 2329TIP3   OH228401   6.553   0.662  12.967 -0.4629  0.2799  0.3786
 2329TIP3    H128402   6.592   0.741  12.929 -0.5365  0.3880  0.5247
 2329TIP3    H228403   6.485   0.636  12.904  0.3156 -0.3180 -0.2301
 2330TIP3   OH228404   1.139   2.679  16.525  0.0831 -0.0873 -0.4432
 2330TIP3    H128405   1.054   2.684  16.480  1.1760 -0.3683 -2.6464
 2330TIP3    H228406   1.154   2.585  16.536 -0.4945 -0.0086  1.2214
 2331TIP3   OH228407   6.578   5.088  15.370  0.4454 -0.3832  0.2669
 2331TIP3    H128408   6.505   5.032  15.397 -0.5699  1.2443  1.0659
 2331TIP3    H228409   6.539   5.175  15.361  1.7396  0.0361 -2.0024
 2332TIP3   OH228410   5.980   6.782   2.166  0.0889 -0.0924  0.2862
 2332TIP3    H128411   5.995   6.824   2.250  1.2964 -2.7328  1.5287
 2332TIP3    H228412   6.041   6.708   2.165  0.0181 -0.2447 -2.8765
 2333TIP3   OH228413   6.184   4.518   1.757  0.0619 -0.1256  0.2579
 2333TIP3    H128414   6.185   4.423   1.754  0.5851 -0.1953  1.8468
 2333TIP3    H228415   6.265   4.542   1.802  1.3923  1.2226 -2.5402
 2334TIP3   OH228416   4.696   0.916  16.077  0.0696 -0.0116 -0.3561
 2334TIP3    H128417   4.664   1.006  16.068  0.9581  0.2810 -0.6999
 2334TIP3    H228418   4.677   0.875  15.993 -1.3213 -0.4902  0.1592
 2335TIP3   OH228419   3.956   6.111  10.059  0.1013  0.5069  0.1575
 2335TIP3    H128420   4.051   6.109  10.049  0.0381 -0.3449 -0.4217
 2335TIP3    H228421   3.924   6.143   9.974 -0.2196 -1.5562 -0.5452
 2336TIP3   OH228422   0.354   3.700   2.836 -0.2003 -0.2047 -0.1455
 2336TIP3    H128423   0.283   3.755   2.804 -0.6280 -0.0806  0.9721
 2336TIP3    H228424   0.434   3.741   2.803 -0.5256  0.9497  0.4412
 2337TIP3   OH228425   5.396   2.220   5.155 -0.2533 -0.3160  0.4045
 2337TIP3    H128426   5.309   2.218   5.117 -0.4408 -2.2843  0.8336
 2337TIP3    H228427   5.411   2.131   5.188  2.1143 -0.2001 -0.1298
 2338TIP3   OH228428   5.573   1.577   2.933  0.6838 -0.0041 -0.8856
 2338TIP3    H128429   5.555   1.664   2.898  1.5300  0.6792  0.3330
 2338TIP3    H228430   5.525   1.574   3.015  1.1295 -0.4763 -0.6370
 2339TIP3   OH228431   4.961   1.593  13.987 -0.0478 -0.0122 -0.1040
 2339TIP3    H128432   4.887   1.653  13.984  0.7268  0.9217 -1.3249
 2339TIP3    H228433   4.965   1.555  13.900  1.0701  0.1595 -0.1400
 2340TIP3   OH228434   0.878   1.184  13.552 -0.3310 -0.0187  0.2311
 2340TIP3    H128435   0.802   1.126  13.546 -0.0847 -0.3313  0.1192
 2340TIP3    H228436   0.951   1.126  13.572  0.0634  0.1374 -0.6853
 2341TIP3   OH228437   3.979   0.771   5.966  0.5372  0.0316 -0.8820
 2341TIP3    H128438   4.070   0.740   5.962  0.1466 -1.1760 -0.7696
 2341TIP3    H228439   3.969   0.804   6.055  0.6026 -0.6825 -0.6075
 2342TIP3   OH228440   5.860   2.667   2.256  0.3838  0.0370 -0.4415
 2342TIP3    H128441   5.850   2.726   2.330 -2.0632 -1.9853  1.0148
 2342TIP3    H228442   5.940   2.618   2.275 -1.3193 -1.9890  2.2113
 2343TIP3   OH228443   5.872   3.192  11.004 -0.6620 -0.1041 -0.5338
 2343TIP3    H128444   5.801   3.213  11.064 -0.5649  0.1562 -0.5081
 2343TIP3    H228445   5.927   3.271  11.003 -0.2106 -0.4154 -0.3237
 2344TIP3   OH228446   3.362   6.714  13.601  0.1907 -0.5016  0.3314
 2344TIP3    H128447   3.373   6.620  13.610  1.1753 -0.2593  2.1657
 2344TIP3    H228448   3.442   6.744  13.558  0.0505 -0.4598  0.0987
 2345TIP3   OH228449   6.658   2.765   2.746  0.2067  0.0769 -0.1848
 2345TIP3    H128450   6.690   2.854   2.732 -0.9943  0.2795 -2.1233
 2345TIP3    H228451   6.563   2.775   2.751  0.1834 -0.8625  2.0590
 2346TIP3   OH228452   6.295   0.370  15.906  0.0438  0.7410 -0.0488
 2346TIP3    H128453   6.358   0.426  15.951 -0.0687  1.4448 -0.7573
 2346TIP3    H228454   6.266   0.308  15.973  0.5625  1.1933  0.6006
 2347TIP3   OH228455   3.693   0.803  13.896  0.1201 -0.3356  0.5637
 2347TIP3    H128456   3.646   0.886  13.890 -0.1883 -0.5544 -0.0253
 2347TIP3    H228457   3.635   0.739  13.856  0.5733 -0.7494  0.5605
 2348TIP3   OH228458   3.272   3.966  13.178 -0.3097  0.0127 -0.1241
 2348TIP3    H128459   3.320   4.039  13.217 -0.4816  1.9692 -3.2971
 2348TIP3    H228460   3.340   3.901  13.158 -0.1068 -0.6360  2.3227
 2349TIP3   OH228461   4.916   0.632  12.119 -0.4457 -0.1407 -0.0201
 2349TIP3    H128462   4.966   0.614  12.040 -1.5167 -1.0249 -0.5240
 2349TIP3    H228463   4.909   0.728  12.121  1.2362  0.0127  0.0891
 2350TIP3   OH228464   2.511   5.923  11.358 -0.3799 -0.2356  0.1936
 2350TIP3    H128465   2.443   5.903  11.294 -0.9824 -0.7404  0.9668
 2350TIP3    H228466   2.520   5.842  11.409  0.8248 -0.1818  0.0893
 2351TIP3   OH228467   4.519   1.964  13.592 -0.1633  0.2997 -0.3336
 2351TIP3    H128468   4.539   1.956  13.685  0.7586 -2.5689 -0.6625
 2351TIP3    H228469   4.530   1.875  13.558 -0.1385  1.3180 -3.2563
 2352TIP3   OH228470   5.382   1.168   3.486  0.4698 -0.1540 -0.3764
 2352TIP3    H128471   5.356   1.197   3.398 -1.7222  2.0263  0.8769
 2352TIP3    H228472   5.471   1.203   3.497  1.0615 -1.0552 -1.9261
 2353TIP3   OH228473   5.044   1.357   2.625 -0.4126 -0.5124 -0.3589
 2353TIP3    H128474   5.074   1.291   2.687  1.1617  2.4527  2.2813
 2353TIP3    H228475   5.124   1.390   2.584 -0.8641  1.2780  0.1014
 2354TIP3   OH228476   4.994   5.873  15.079  0.3355 -0.2614 -0.4484
 2354TIP3    H128477   4.999   5.927  15.001 -0.7764  0.8218  0.1950
 2354TIP3    H228478   4.908   5.894  15.118  0.7723 -0.9143  0.9459
 2355TIP3   OH228479   1.772   1.599   2.171 -0.4291 -0.0626 -0.1796
 2355TIP3    H128480   1.766   1.510   2.205  0.8195  0.0880  0.4935
 2355TIP3    H228481   1.765   1.589   2.076  1.6784 -1.1243 -0.2817
 2356TIP3   OH228482   6.068   0.540   0.949 -0.3868 -0.6389 -0.2997
 2356TIP3    H128483   6.146   0.505   0.908 -0.3245 -0.7454 -0.0917
 2356TIP3    H228484   5.997   0.483   0.920 -0.5036 -0.1214 -1.0593
 2357TIP3   OH228485   4.385   3.349  10.632 -0.0965 -0.3447 -0.5511
 2357TIP3    H128486   4.343   3.330  10.548  0.2586  1.3575 -1.1345
 2357TIP3    H228487   4.335   3.296  10.696 -0.5674 -1.4112 -1.7557
 2358TIP3   OH228488   4.667   4.029  15.110 -0.0360 -0.2387  0.5504
 2358TIP3    H128489   4.696   4.078  15.033  0.5929 -0.6964  0.4902
 2358TIP3    H228490   4.571   4.026  15.101  0.1215 -3.2138 -2.1055
 2359TIP3   OH228491   5.567   5.026  12.540  0.2891  0.5038 -0.0297
 2359TIP3    H128492   5.519   5.048  12.460  1.2081 -0.3557 -0.8334
 2359TIP3    H228493   5.519   4.952  12.577  0.9105 -0.2991 -0.7883
 2360TIP3   OH228494   0.769   3.637  14.604  0.1330  0.0487  0.4112
 2360TIP3    H128495   0.794   3.720  14.563 -0.3388 -0.3231 -0.6569
 2360TIP3    H228496   0.797   3.646  14.695 -1.4936  2.0788  0.7738
 2361TIP3   OH228497   6.707   4.900   1.178 -0.2491 -0.1345 -0.4021
 2361TIP3    H128498   6.702   4.811   1.215 -0.6866 -0.1047 -0.3731
 2361TIP3    H228499   6.656   4.895   1.097 -2.0739  0.5823  0.6426
 2362TIP3   OH228500   6.365   3.954   3.534  0.1299 -0.5020 -0.1114
 2362TIP3    H128501   6.273   3.933   3.518 -0.4509  2.1320 -0.7444
 2362TIP3    H228502   6.368   3.978   3.627 -0.3223  1.2816 -0.5026
 2363TIP3   OH228503   0.756   4.845  13.067 -0.3175 -0.1287 -0.6091
 2363TIP3    H128504   0.765   4.827  12.974  0.7179 -0.0058 -0.5494
 2363TIP3    H228505   0.703   4.773  13.101 -0.6870 -0.1795 -1.2865
 2364TIP3   OH228506   2.158   3.800  14.890 -0.0705 -0.0103  0.0174
 2364TIP3    H128507   2.239   3.851  14.890 -0.2375  0.3166  2.2283
 2364TIP3    H228508   2.100   3.845  14.951 -1.6295 -0.7251 -0.8586
 2365TIP3   OH228509   4.742   1.500  14.294 -0.4072  0.2344 -0.1941
 2365TIP3    H128510   4.718   1.485  14.385  1.6846 -1.9494  0.0900
 2365TIP3    H228511   4.678   1.564  14.263 -1.3558  0.8338  2.6890
 2366TIP3   OH228512   1.724   3.740   2.612 -0.2247 -0.0920 -0.2154
 2366TIP3    H128513   1.642   3.790   2.617  0.0754  0.6092 -1.6953
 2366TIP3    H228514   1.699   3.658   2.570  0.0770  0.8658 -2.4337
 2367TIP3   OH228515   0.985   2.067  10.116 -0.2320  0.0449  0.0461
 2367TIP3    H128516   0.950   2.156  10.113 -1.4895 -0.4781 -1.7507
 2367TIP3    H228517   0.909   2.010  10.107  0.7540 -1.1718 -1.0183
 2368TIP3   OH228518   4.253   3.212  10.834 -0.0307  0.2251 -0.6879
 2368TIP3    H128519   4.165   3.224  10.797  0.3750  0.7960 -1.4766
 2368TIP3    H228520   4.261   3.282  10.898 -0.6647 -0.6600  0.4206
 2369TIP3   OH228521   6.861   5.996  10.373  0.0277 -0.1093 -0.1437
 2369TIP3    H128522   6.940   6.013  10.321  0.4089 -1.0718  0.0956
 2369TIP3    H228523   6.840   5.904  10.354 -0.1749 -0.2933  0.9468
 2370TIP3   OH228524   3.650   1.293  13.189 -0.1030 -0.2621  0.2837
 2370TIP3    H128525   3.575   1.250  13.147  0.0005 -1.0629  0.8957
 2370TIP3    H228526   3.727   1.250  13.152 -0.0192 -1.2500  1.5490
 2371TIP3   OH228527   4.308   2.007  10.862  0.2370  0.4238 -0.5353
 2371TIP3    H128528   4.360   1.983  10.785  1.2946  0.6724  0.0916
 2371TIP3    H228529   4.336   1.945  10.930  0.2634  1.0429  0.0215
 2372TIP3   OH228530   6.244   5.478   3.154  0.1663 -0.0024  0.5839
 2372TIP3    H128531   6.307   5.436   3.094  0.3235 -1.6900  1.8699
 2372TIP3    H228532   6.209   5.551   3.103  1.5416 -0.3439 -0.9629
 2373TIP3   OH228533   1.669   6.865  10.615  0.3158  0.3182  0.5479
 2373TIP3    H128534   1.748   6.918  10.627  1.2265 -0.9704  0.5159
 2373TIP3    H228535   1.684   6.818  10.533 -1.0768  1.0108 -0.1303
 2374TIP3   OH228536   2.982   6.875  11.367 -0.2628  0.1735 -0.2388
 2374TIP3    H128537   2.908   6.860  11.426  0.0374 -0.3275  0.0147
 2374TIP3    H228538   2.957   6.831  11.285 -0.3654  0.2468 -0.2468
 2375TIP3   OH228539   3.460   3.677  16.067 -0.5304 -0.6318  0.0369
 2375TIP3    H128540   3.486   3.611  16.130  1.2254 -1.4067 -1.4172
 2375TIP3    H228541   3.541   3.723  16.044 -0.8302 -1.1933 -2.5235
 2376TIP3   OH228542   3.055   5.691   1.277  0.3870 -0.4283 -0.6806
 2376TIP3    H128543   3.005   5.615   1.307  1.9776 -1.3350 -0.1851
 2376TIP3    H228544   3.110   5.714   1.352  0.3680  0.8529 -1.0376
 2377TIP3   OH228545   0.496   0.677   5.759 -0.8942 -0.1579  0.2892
 2377TIP3    H128546   0.427   0.611   5.755 -1.3051 -0.0097  2.8579
 2377TIP3    H228547   0.560   0.642   5.821 -0.3504  1.1843  0.5298
 2378TIP3   OH228548   1.479   3.842  12.409  0.1453  0.1284  0.1982
 2378TIP3    H128549   1.518   3.929  12.414 -2.3347  1.3003  0.6261
 2378TIP3    H228550   1.454   3.832  12.317 -0.8866  0.5037  0.4305
 2379TIP3   OH228551   0.406   5.686  13.226  0.1177  0.6120 -0.4958
 2379TIP3    H128552   0.467   5.613  13.232 -0.7384 -0.1794 -1.1210
 2379TIP3    H228553   0.383   5.705  13.317 -0.8103 -0.9267 -0.3645
 2380TIP3   OH228554   4.062   1.433   3.654 -0.0831 -0.2089  0.1511
 2380TIP3    H128555   4.096   1.368   3.593  0.9799  0.7850 -0.3559
 2380TIP3    H228556   4.117   1.510   3.640 -3.1401  1.8792 -1.4734
 2381TIP3   OH228557   4.227   5.017   2.099  0.4877  0.8479  0.6038
 2381TIP3    H128558   4.241   4.923   2.115 -2.1969  0.1748 -0.5600
 2381TIP3    H228559   4.147   5.038   2.146 -0.5318  1.8527 -1.4676
 2382TIP3   OH228560   1.142   1.224  14.377 -0.3165  0.5369 -0.4582
 2382TIP3    H128561   1.075   1.247  14.313 -1.4797 -0.2452  0.4337
 2382TIP3    H228562   1.115   1.138  14.410 -0.1503  1.2206  1.5711
 2383TIP3   OH228563   3.924   4.866   5.523  0.8840 -0.1412 -0.0647
 2383TIP3    H128564   4.010   4.825   5.518 -0.1530 -2.4377 -0.2463
 2383TIP3    H228565   3.868   4.814   5.465 -0.3763  2.0680 -0.9590
 2384TIP3   OH228566   4.373   1.440  14.574 -0.0524 -0.1346 -0.0425
 2384TIP3    H128567   4.352   1.346  14.577  2.0891 -0.6508  0.4939
 2384TIP3    H228568   4.291   1.483  14.599 -1.2694 -1.8030 -0.8687
 2385TIP3   OH228569   6.587   4.559   0.452  0.7077 -0.3050  0.7716
 2385TIP3    H128570   6.508   4.520   0.415  0.5569  0.1370  0.6117
 2385TIP3    H228571   6.596   4.643   0.405  1.7105 -0.6976  0.2150
 2386TIP3   OH228572   4.221   5.481   3.125  0.0622 -0.2757 -0.4849
 2386TIP3    H128573   4.136   5.472   3.168 -0.2381  0.9384 -0.7822
 2386TIP3    H228574   4.219   5.569   3.086  0.9020 -0.7676 -1.7036
 2387TIP3   OH228575   3.762   0.333  12.408 -0.1686  0.1230 -0.5272
 2387TIP3    H128576   3.795   0.265  12.466 -0.6642 -1.4392 -1.9764
 2387TIP3    H228577   3.770   0.414  12.458 -0.4322 -1.1111  1.6250
 2388TIP3   OH228578   0.347   0.682   4.105 -0.1469  0.1977 -0.1454
 2388TIP3    H128579   0.281   0.750   4.098 -0.5473 -0.2352 -0.6134
 2388TIP3    H228580   0.317   0.626   4.176  0.2431  0.5713  0.3182
 2389TIP3   OH228581   6.823   2.286   4.028 -0.1820  0.4782  0.2675
 2389TIP3    H128582   6.906   2.242   4.011 -0.8670 -0.4146 -0.9032
 2389TIP3    H228583   6.839   2.377   4.003  0.7031  0.5364  0.9693
 2390TIP3   OH228584   0.664   4.800  13.440  0.0452 -0.0196  0.0242
 2390TIP3    H128585   0.732   4.861  13.473 -1.0364  0.3614  1.6961
 2390TIP3    H228586   0.593   4.857  13.412 -0.1129 -0.4603 -0.4803
 2391TIP3   OH228587   4.060   4.052   2.360 -0.4917  0.0019 -0.7013
 2391TIP3    H128588   3.965   4.056   2.355 -0.5885 -1.9917 -1.1172
 2391TIP3    H228589   4.090   4.069   2.271 -0.3152  2.2637 -0.2845
 2392TIP3   OH228590   4.706   2.517   3.479 -0.0218  0.5938  0.5067
 2392TIP3    H128591   4.796   2.491   3.461 -0.2125  0.9007 -1.0532
 2392TIP3    H228592   4.713   2.586   3.545  0.8692  0.5022  0.5187
 2393TIP3   OH228593   4.025   5.674  14.894  0.5119 -0.0955 -0.1715
 2393TIP3    H128594   4.094   5.738  14.913  1.2124 -0.7926 -0.3281
 2393TIP3    H228595   3.986   5.705  14.812 -1.9477  2.4395  1.7389
 2394TIP3   OH228596   1.801   2.043   0.809 -0.3674 -0.7122  0.5530
 2394TIP3    H128597   1.865   1.990   0.857 -0.1628  0.0343  1.1258
 2394TIP3    H228598   1.722   1.989   0.806 -0.1600 -1.0524  1.1202
 2395TIP3   OH228599   1.745   2.274  10.717 -0.4241 -0.3112  0.7931
 2395TIP3    H128600   1.657   2.239  10.700 -0.4648  0.7993 -1.7560
 2395TIP3    H228601   1.803   2.218  10.665  0.0043  0.6148  0.2305
 2396TIP3   OH228602   5.431   2.082   3.954 -0.1191 -0.4752  0.0780
 2396TIP3    H128603   5.453   2.091   3.862 -1.2262 -1.9303 -0.3696
 2396TIP3    H228604   5.508   2.042   3.994  0.0137 -0.7115 -0.4087
 2397TIP3   OH228605   1.612   5.585   0.801 -0.8181  0.1809 -0.3449
 2397TIP3    H128606   1.549   5.605   0.870  0.7265 -0.6175  1.3719
 2397TIP3    H228607   1.696   5.576   0.847  0.2426 -0.5232 -2.3102
 2398TIP3   OH228608   4.616   5.892  13.718 -0.0121  0.0029 -0.2689
 2398TIP3    H128609   4.627   5.840  13.638 -0.0629 -0.8031  0.2301
 2398TIP3    H228610   4.702   5.891  13.759 -0.6314 -2.1234  1.1604
 2399TIP3   OH228611   1.137   1.871   2.054 -0.0030 -0.2377 -0.4341
 2399TIP3    H128612   1.102   1.923   1.982 -0.3334 -0.4406 -0.4205
 2399TIP3    H228613   1.206   1.926   2.092 -1.2909  0.7983  0.4803
 2400TIP3   OH228614   0.922   5.557  10.555  0.0225  0.1229  0.0613
 2400TIP3    H128615   1.006   5.515  10.536  0.0755  1.3139 -2.9771
 2400TIP3    H228616   0.938   5.606  10.635  2.7742  1.4895 -1.1708
 2401TIP3   OH228617   3.109   6.662   3.441  0.1853 -0.4116  0.5513
 2401TIP3    H128618   3.022   6.691   3.470 -0.2193 -0.6875 -0.3425
 2401TIP3    H228619   3.142   6.610   3.514  0.4801  1.3606  1.7583
 2402TIP3   OH228620   4.020   0.021   2.666 -0.8783  0.2578  0.2513
 2402TIP3    H128621   3.976  -0.039   2.607 -1.9409  1.2313  0.0159
 2402TIP3    H228622   4.113  -0.003   2.661 -1.0710 -0.2447 -1.1267
 2403TIP3   OH228623   0.992   1.745   0.484 -0.0798 -0.7957 -0.3324
 2403TIP3    H128624   1.058   1.799   0.442 -1.2675  0.1827 -0.9929
 2403TIP3    H228625   0.954   1.694   0.413 -1.0510 -0.2648 -0.2014
 2404TIP3   OH228626   4.030   5.126   6.305  0.4729  0.0675 -0.3617
 2404TIP3    H128627   4.102   5.157   6.250 -0.8850  1.4531 -1.4504
 2404TIP3    H228628   3.980   5.067   6.248 -0.4820  0.8530 -0.3569
 2405TIP3   OH228629   0.571   1.253   5.906 -0.1451  0.3059  0.0923
 2405TIP3    H128630   0.557   1.328   5.848  1.2265 -0.1176 -0.8348
 2405TIP3    H228631   0.657   1.268   5.945 -0.4513 -0.1131  0.9770
 2406TIP3   OH228632   0.794   3.994  12.781  0.6457  0.0398 -0.3970
 2406TIP3    H128633   0.836   3.998  12.695 -0.1705 -0.2896 -0.8199
 2406TIP3    H228634   0.838   3.922  12.826 -0.2773 -1.0875 -1.2783
 2407TIP3   OH228635   1.116   6.699  13.691  0.2707  0.7801 -0.2842
 2407TIP3    H128636   1.099   6.681  13.598 -0.8384 -0.5708  0.1537
 2407TIP3    H228637   1.029   6.716  13.728  0.7343  1.6114  0.4588
 2408TIP3   OH228638   0.691   3.560  12.407 -0.5298  0.4257 -0.5191
 2408TIP3    H128639   0.661   3.626  12.344 -1.9907 -0.5270 -0.8540
 2408TIP3    H228640   0.763   3.516  12.362 -0.0956  1.2174 -0.6226
 2409TIP3   OH228641   5.051   5.419   5.861 -0.4375  0.0147  0.2493
 2409TIP3    H128642   5.070   5.454   5.774  0.8552 -0.5994  0.2637
 2409TIP3    H228643   5.024   5.496   5.912 -0.3288  0.5248 -0.4464
 2410TIP3   OH228644   1.107   5.831  12.674  0.3673 -0.4549  0.6454
 2410TIP3    H128645   1.073   5.745  12.699 -0.3387  0.1770  1.9656
 2410TIP3    H228646   1.044   5.865  12.611  0.8122 -1.0169 -0.1183
 2411TIP3   OH228647   6.574   4.944  13.211  0.1328 -0.0107  0.2245
 2411TIP3    H128648   6.583   4.912  13.121  0.4789  0.3783  0.1187
 2411TIP3    H228649   6.655   4.916  13.254  0.7199  1.2159 -0.0280
 2412TIP3   OH228650   3.554   4.900   2.134  0.2229 -0.4038 -0.1007
 2412TIP3    H128651   3.473   4.872   2.176  0.6119 -1.2255  0.1200
 2412TIP3    H228652   3.535   4.897   2.040 -0.7009  1.5953 -0.0341
 2413TIP3   OH228653   0.524   2.467  13.069 -0.1206 -0.2552  0.0511
 2413TIP3    H128654   0.456   2.470  13.136  3.0350  0.7957  3.5062
 2413TIP3    H228655   0.568   2.551  13.075  1.7254 -1.0085 -1.7772
 2414TIP3   OH228656   4.069   6.012  13.353 -0.4336  0.0229 -0.3294
 2414TIP3    H128657   4.007   6.076  13.317  0.5833  0.4372 -1.3985
 2414TIP3    H228658   4.155   6.043  13.325  0.1997 -0.9952  0.4273
 2415TIP3   OH228659   1.704   0.229  13.625 -0.2962 -0.0379  0.0604
 2415TIP3    H128660   1.611   0.230  13.603 -0.5406 -0.6584  1.0061
 2415TIP3    H228661   1.706   0.231  13.720  0.6548 -0.2297  0.0522
 2416TIP3   OH228662   5.552   6.769   1.072  0.0111 -0.0153  0.3201
 2416TIP3    H128663   5.492   6.767   1.146 -0.8438 -0.7649 -0.3805
 2416TIP3    H228664   5.543   6.684   1.030  1.7348 -0.2384  0.3169
 2417TIP3   OH228665   4.024   2.055  12.666  0.2923  0.1015  0.5422
 2417TIP3    H128666   4.069   1.971  12.678 -0.1848 -0.0475  1.4179
 2417TIP3    H228667   4.024   2.094  12.754 -0.5758  0.4558  0.3909
 2418TIP3   OH228668   6.254   5.000   2.962  0.0947  0.7752  0.0332
 2418TIP3    H128669   6.253   4.934   2.892 -0.2878 -0.7880  1.4275
 2418TIP3    H228670   6.346   5.004   2.990  0.0060  0.2944  0.4076
 2419TIP3   OH228671   3.229   3.267  12.889  0.0467  0.1822  0.3503
 2419TIP3    H128672   3.233   3.220  12.973 -0.9164  0.4114  0.5333
 2419TIP3    H228673   3.136   3.267  12.866  0.0321  1.9335  0.3161
 2420TIP3   OH228674   6.855   2.664   3.365  0.0679 -0.0412 -0.4464
 2420TIP3    H128675   6.831   2.754   3.347 -0.5922  0.3272  1.9405
 2420TIP3    H228676   6.773   2.615   3.355 -0.2708  0.1431  1.1352
 2421TIP3   OH228677   4.593   4.209   5.103  0.1989 -0.2236  0.7698
 2421TIP3    H128678   4.532   4.172   5.039 -0.3809 -0.8390  1.6557
 2421TIP3    H228679   4.659   4.254   5.050  0.0553 -1.2171 -0.2849
 2422TIP3   OH228680   2.933   6.331  13.759  0.0590 -0.5141  0.4302
 2422TIP3    H128681   2.976   6.417  13.755  1.5458 -1.2593 -1.1709
 2422TIP3    H228682   2.945   6.294  13.671 -0.9805 -2.1652  0.9297
 2423TIP3   OH228683   3.132   2.583   1.763 -0.2117 -0.7821  0.3159
 2423TIP3    H128684   3.207   2.588   1.705 -0.6582  1.9914 -0.1616
 2423TIP3    H228685   3.056   2.577   1.705 -0.5765  0.5704  0.6264
 2424TIP3   OH228686   5.705   3.632  14.811 -0.3411 -0.2571  0.7302
 2424TIP3    H128687   5.631   3.649  14.869 -2.1263 -3.0834 -0.5087
 2424TIP3    H228688   5.703   3.537  14.796  0.6710  0.1427 -2.9981
 2425TIP3   OH228689   5.107   0.917  14.759  0.4197 -0.0046 -0.3267
 2425TIP3    H128690   5.024   0.915  14.807  0.9869  2.1683  0.9063
 2425TIP3    H228691   5.086   0.963  14.678  0.4150  0.6621  0.0432
 2426TIP3   OH228692   2.767   1.017   4.997  0.0289 -0.2109 -0.0217
 2426TIP3    H128693   2.809   0.961   5.062  0.9617 -1.5078 -1.6759
 2426TIP3    H228694   2.831   1.087   4.983  0.7231 -1.0079 -0.9556
 2427TIP3   OH228695   4.872   5.030   0.249 -0.4116 -0.2545  0.2541
 2427TIP3    H128696   4.845   5.012   0.159 -0.8506 -0.1661  0.3657
 2427TIP3    H228697   4.904   4.946   0.281  0.9855 -0.0039 -0.3999
 2428TIP3   OH228698   6.005   3.985  13.572  0.4393 -0.2131  0.2541
 2428TIP3    H128699   5.969   3.977  13.483  0.0721 -2.8303  0.5415
 2428TIP3    H228700   6.038   4.074  13.577  0.2983  0.0792 -2.4484
 2429TIP3   OH228701   5.132   0.462   3.197 -0.3156  0.2759 -0.1332
 2429TIP3    H128702   5.107   0.410   3.273  0.4134  0.6507  0.3681
 2429TIP3    H228703   5.216   0.500   3.220 -0.6716  1.4003 -0.6395
 2430TIP3   OH228704   6.591   2.532   3.152 -0.0280  0.4152  0.1341
 2430TIP3    H128705   6.665   2.575   3.109  0.9392 -1.8409 -0.5639
 2430TIP3    H228706   6.521   2.532   3.086  0.1806  0.3339 -0.0856
 2431TIP3   OH228707   0.976   0.775   0.744  0.2925  0.0890 -0.0757
 2431TIP3    H128708   1.038   0.741   0.810  0.8457 -2.3230 -1.6809
 2431TIP3    H228709   0.976   0.869   0.757  2.3227 -0.0803  1.7173
 2432TIP3   OH228710   6.676   0.464   3.840  0.0152 -0.0345 -0.5643
 2432TIP3    H128711   6.709   0.375   3.824 -0.6898 -0.2652 -0.7623
 2432TIP3    H228712   6.665   0.501   3.753  0.1593  0.1891 -0.4863
 2433TIP3   OH228713   0.130   0.832   3.366  0.4207 -0.0846  0.3561
 2433TIP3    H128714   0.093   0.795   3.286 -0.0187  0.6015  0.2356
 2433TIP3    H228715   0.219   0.798   3.369 -0.4476 -2.5361  1.1198
 2434TIP3   OH228716   3.208   3.411   4.729 -0.1581  0.8569  0.7849
 2434TIP3    H128717   3.200   3.381   4.638  0.0919  0.6011  0.8458
 2434TIP3    H228718   3.298   3.389   4.753  0.1664  2.0403  0.7001
 2435TIP3   OH228719   6.056   5.264  13.699 -0.0927 -0.5793  0.6975
 2435TIP3    H128720   5.979   5.247  13.646  1.8938  1.5388 -3.3127
 2435TIP3    H228721   6.039   5.349  13.740 -0.0367 -0.2215 -0.0021
 2436TIP3   OH228722   1.824   3.089   6.618  0.0388 -0.3422 -0.5047
 2436TIP3    H128723   1.802   3.181   6.606 -0.8404 -0.5661 -0.7459
 2436TIP3    H228724   1.739   3.046   6.633  0.2848 -1.2800 -1.5800
 2437TIP3   OH228725   2.978   2.071   3.505  0.3908  0.1349  0.0538
 2437TIP3    H128726   2.945   2.069   3.415 -2.5052  0.4770  1.0122
 2437TIP3    H228727   2.915   2.019   3.555  1.2812  0.9042  2.0927
 2438TIP3   OH228728   1.623   2.255  12.204  0.6086 -1.1064 -0.6920
 2438TIP3    H128729   1.555   2.313  12.172 -0.2851 -1.6108  0.2138
 2438TIP3    H228730   1.699   2.273  12.149  0.0116  0.1012 -1.1465
 2439TIP3   OH228731   5.676   2.263  14.106  0.0301 -0.1772  0.0714
 2439TIP3    H128732   5.623   2.341  14.121  0.5075  0.2752 -0.5588
 2439TIP3    H228733   5.704   2.236  14.194 -0.1717  0.3329  0.2933
 2440TIP3   OH228734   0.606   6.284   4.946  0.3246  0.2407  0.2424
 2440TIP3    H128735   0.674   6.233   4.902 -1.7341 -1.6237 -1.0368
 2440TIP3    H228736   0.629   6.375   4.930  2.8041 -0.2875  0.4291
 2441TIP3   OH228737   6.324   3.310  12.119 -0.1030 -0.0901  0.3737
 2441TIP3    H128738   6.273   3.364  12.180 -0.9628  1.2446 -1.4290
 2441TIP3    H228739   6.300   3.220  12.141 -0.3666  0.3455  2.0043
 2442TIP3   OH228740   5.986   2.666   2.982  0.9341  0.4770 -0.4351
 2442TIP3    H128741   6.079   2.687   2.977  1.2720 -0.7145  0.5171
 2442TIP3    H228742   5.983   2.573   3.002 -0.4463  0.7507  0.8034
 2443TIP3   OH228743   4.020   1.313  11.557  0.1672  0.0256 -0.2897
 2443TIP3    H128744   3.928   1.287  11.567 -0.3605  1.7118 -0.4356
 2443TIP3    H228745   4.066   1.263  11.624 -1.3687  1.4661  1.9985
 2444TIP3   OH228746   1.108   0.244  12.415  0.6204 -0.2273  0.5335
 2444TIP3    H128747   1.127   0.153  12.391  2.1134  0.0153  0.7261
 2444TIP3    H228748   1.095   0.242  12.510  0.6216 -0.2320  0.5334
 2445TIP3   OH228749   2.302   0.672  16.258 -0.1198  0.2267 -0.3195
 2445TIP3    H128750   2.397   0.677  16.252 -0.2264  0.9861 -1.9650
 2445TIP3    H228751   2.279   0.595  16.205 -0.4148 -0.1329  0.3173
 2446TIP3   OH228752   0.720   6.019   5.156  0.0024  0.2057 -0.0213
 2446TIP3    H128753   0.717   5.983   5.068  1.7269  1.6721 -0.7439
 2446TIP3    H228754   0.769   5.955   5.207 -0.3186 -0.2785 -0.3214
 2447TIP3   OH228755   3.403   1.317   2.970 -0.2572  0.3110  0.4454
 2447TIP3    H128756   3.447   1.240   3.007  0.5746  0.5175 -0.0815
 2447TIP3    H228757   3.328   1.332   3.027  0.3693 -0.0499  1.3853
 2448TIP3   OH228758   3.508   0.785   4.916  0.4306 -0.2627  0.0780
 2448TIP3    H128759   3.461   0.737   4.848 -1.4297  1.5351 -0.0112
 2448TIP3    H228760   3.569   0.841   4.869  0.9925 -0.8948  0.0512
 2449TIP3   OH228761   2.526   0.015  14.135  1.2541  0.3613 -0.1831
 2449TIP3    H128762   2.577  -0.064  14.120 -0.1278 -0.6954  0.4585
 2449TIP3    H228763   2.591   0.085  14.144  2.5657 -0.8901  0.3654
 2450TIP3   OH228764   1.335   6.598  12.965  0.0395  0.2747 -0.0550
 2450TIP3    H128765   1.260   6.563  13.013  1.0707 -0.9543  0.7383
 2450TIP3    H228766   1.410   6.549  12.999  1.1119  0.9370 -1.3634
 2451TIP3   OH228767   0.492   1.586   0.907 -0.2586 -0.0456 -0.2385
 2451TIP3    H128768   0.582   1.619   0.909  0.0234 -0.7913 -0.0663
 2451TIP3    H228769   0.439   1.661   0.880  0.4311  0.3686 -0.4716
 2452TIP3   OH228770   6.384   0.434   1.272  0.4950 -0.0834  0.0241
 2452TIP3    H128771   6.444   0.389   1.331 -0.9379 -0.6643  1.0904
 2452TIP3    H228772   6.303   0.384   1.276 -0.8383  1.9641  0.4476
 2453TIP3   OH228773   5.098   0.945  16.560 -0.9287  0.6866  0.0541
 2453TIP3    H128774   5.164   0.876  16.567 -1.8315 -0.3243 -0.9896
 2453TIP3    H228775   5.132   1.003  16.491 -1.3077 -0.0849 -0.8133
 2454TIP3   OH228776   1.569   5.562  15.610  0.4372  0.2985  0.2460
 2454TIP3    H128777   1.476   5.550  15.592  0.5935 -0.5043 -0.0795
 2454TIP3    H228778   1.572   5.608  15.693 -0.2549 -0.1744  0.5416
 2455TIP3   OH228779   2.882   6.185  12.037 -0.0627 -0.5198  0.1250
 2455TIP3    H128780   2.818   6.146  12.097  1.3688  1.5124  3.2230
 2455TIP3    H228781   2.846   6.270  12.015  1.0624  0.2675  1.1728
 2456TIP3   OH228782   0.119   6.161  13.710  0.4097  1.0224 -0.0473
 2456TIP3    H128783   0.186   6.223  13.679  1.1968  0.7226  1.0154
 2456TIP3    H228784   0.156   6.123  13.789 -0.3973 -0.2580 -0.2592
 2457TIP3   OH228785   3.878   3.492   3.346  0.1359 -0.1581  0.7647
 2457TIP3    H128786   3.864   3.585   3.326  1.6960  0.5347  2.6007
 2457TIP3    H228787   3.903   3.453   3.262  1.3087  1.4880  0.3012
 2458TIP3   OH228788   5.415   2.666   4.774 -0.1564  0.1869  0.5777
 2458TIP3    H128789   5.497   2.679   4.823  0.0327  0.7627  0.1187
 2458TIP3    H228790   5.383   2.581   4.804  1.2199 -0.5990 -0.0955
 2459TIP3   OH228791   4.618   6.602  15.532  0.6211  0.2770 -0.9642
 2459TIP3    H128792   4.560   6.541  15.575  0.7897  0.8034  0.0469
 2459TIP3    H228793   4.563   6.677  15.509  0.2436 -0.5273 -2.9042
 2460TIP3   OH228794   0.037   6.841   3.059  0.2487 -0.3350 -0.0725
 2460TIP3    H128795  -0.009   6.884   3.131 -1.2073 -1.2931 -0.3691
 2460TIP3    H228796   0.062   6.756   3.095  0.0442 -0.5797 -0.5021
 2461TIP3   OH228797   2.917   0.163   4.076 -0.2031  0.7429  0.4800
 2461TIP3    H128798   2.962   0.168   4.161  1.4918 -2.5824 -0.0610
 2461TIP3    H228799   2.985   0.181   4.012 -1.0460  1.3977 -0.2563
 2462TIP3   OH228800   6.836   3.390  14.474  0.3872 -0.3099 -0.5179
 2462TIP3    H128801   6.808   3.313  14.425 -1.7160  0.8792 -1.3338
 2462TIP3    H228802   6.871   3.450  14.408 -1.1273  0.7273 -0.4395
 2463TIP3   OH228803   4.924   4.333   1.154 -0.4512  0.0680  0.3665
 2463TIP3    H128804   4.901   4.278   1.229 -1.0257 -0.4309 -0.1633
 2463TIP3    H228805   5.017   4.316   1.140 -0.6979 -1.0756 -0.0198
 2464TIP3   OH228806   6.768   4.839  16.522 -0.6597  0.4241  0.1082
 2464TIP3    H128807   6.857   4.826  16.553 -0.8159 -1.0749  0.0362
 2464TIP3    H228808   6.731   4.750  16.519 -1.8891  0.9339 -0.6189
 2465TIP3   OH228809   0.776   6.567  14.526 -0.5145 -0.5220  0.1384
 2465TIP3    H128810   0.696   6.528  14.491 -0.9404  0.1627  0.3424
 2465TIP3    H228811   0.749   6.607  14.609  0.0023 -0.1416  0.1285
 2466TIP3   OH228812   6.221   4.426  10.409  0.0908  0.9584  0.4852
 2466TIP3    H128813   6.255   4.336  10.402  1.8727  1.6173  0.2298
 2466TIP3    H228814   6.285   4.471  10.464 -0.3463  2.2749 -0.0693
 2467TIP3   OH228815   2.340   4.596  15.701 -0.7263  0.2851  0.0438
 2467TIP3    H128816   2.319   4.599  15.794  1.2532 -0.7231  0.5619
 2467TIP3    H228817   2.381   4.511  15.688 -2.6191 -0.4009 -2.1620
 2468TIP3   OH228818   4.587   3.717  11.256 -0.0890 -0.1323  0.1731
 2468TIP3    H128819   4.589   3.752  11.345  1.1811  1.2641 -0.3560
 2468TIP3    H228820   4.597   3.622  11.268  1.2553  0.1271  1.4995
 2469TIP3   OH228821   1.699   3.204   4.282 -0.0893 -0.1260 -0.3159
 2469TIP3    H128822   1.722   3.165   4.198 -0.2166  0.6120 -0.6981
 2469TIP3    H228823   1.663   3.131   4.333 -2.1997 -0.1586 -1.7064
 2470TIP3   OH228824   6.874   1.111   0.759  0.2885 -0.3332  0.2258
 2470TIP3    H128825   6.939   1.041   0.767  1.6120  0.7733 -0.4213
 2470TIP3    H228826   6.859   1.119   0.664 -1.8878 -1.4923  0.4027
 2471TIP3   OH228827   6.232   4.016   1.919  0.4257 -0.5267 -0.4705
 2471TIP3    H128828   6.195   3.930   1.899 -0.0201 -0.4145 -0.1467
 2471TIP3    H228829   6.273   4.006   2.005  1.2377 -0.6744 -0.8683
 2472TIP3   OH228830   3.257   6.264   5.443 -0.4741 -0.3954 -0.1350
 2472TIP3    H128831   3.232   6.172   5.433  1.5035 -0.9480 -0.2394
 2472TIP3    H228832   3.176   6.312   5.423 -1.6365 -2.0870  0.2122
 2473TIP3   OH228833   2.672   2.064  13.971  0.2618 -0.2352 -0.1442
 2473TIP3    H128834   2.730   2.102  13.904  0.0941  1.5588  0.6902
 2473TIP3    H228835   2.732   2.021  14.032  0.7135  1.1162  0.4037
 2474TIP3   OH228836   1.971   2.356  12.840 -0.0065  0.0771 -0.3446
 2474TIP3    H128837   2.047   2.373  12.784  0.0543 -0.7150 -0.5198
 2474TIP3    H228838   1.911   2.428  12.822  0.1802  0.0418 -1.1400
 2475TIP3   OH228839   5.797   0.454   5.188  0.6162  0.0557  0.4058
 2475TIP3    H128840   5.764   0.368   5.163 -0.8688  0.5749  0.4791
 2475TIP3    H228841   5.775   0.511   5.114  2.0191  0.3043  0.1449
 2476TIP3   OH228842   5.111   3.409   1.981 -0.2827  0.5812 -0.0530
 2476TIP3    H128843   5.155   3.490   1.952 -1.2729  0.7871 -1.0488
 2476TIP3    H228844   5.021   3.436   1.999 -1.0122 -0.5487 -1.7912
 2477TIP3   OH228845   0.587   5.933  15.496 -0.5139 -0.5676  0.3037
 2477TIP3    H128846   0.586   6.026  15.521 -1.2322 -0.3819 -0.3520
 2477TIP3    H228847   0.513   5.924  15.436 -0.1195 -1.4495 -0.0690
 2478TIP3   OH228848   0.844   5.689  10.345 -0.8583 -0.0463  0.0984
 2478TIP3    H128849   0.853   5.668  10.438  0.6581  0.2567  0.0438
 2478TIP3    H228850   0.878   5.612  10.300  0.8267  0.7911 -0.1451
 2479TIP3   OH228851   4.945   4.403   3.100 -0.1807 -0.7004 -0.7930
 2479TIP3    H128852   4.935   4.485   3.149 -1.3752 -1.0063 -0.4957
 2479TIP3    H228853   4.857   4.383   3.067 -0.0131 -2.1060 -0.4636
 2480TIP3   OH228854   4.074   0.174   1.572 -0.2232 -0.1790 -0.7535
 2480TIP3    H128855   4.100   0.133   1.655 -0.6324  2.5331  0.8281
 2480TIP3    H228856   3.980   0.185   1.579 -0.5355 -1.4698 -2.3948
 2481TIP3   OH228857   4.230   1.798   3.290  0.2573  0.2248  0.4230
 2481TIP3    H128858   4.248   1.757   3.206  0.1548  0.4417  0.2933
 2481TIP3    H228859   4.315   1.828   3.321  0.2515  0.4184  0.2520
 2482TIP3   OH228860   1.871   2.352  12.049 -0.5821 -0.0976 -0.1465
 2482TIP3    H128861   1.964   2.329  12.050 -0.5979 -0.3254 -1.6576
 2482TIP3    H228862   1.865   2.422  11.985 -1.5692 -0.6219 -0.6465
 2483TIP3   OH228863   3.125   4.293   5.055  0.7130 -0.0296 -0.4977
 2483TIP3    H128864   3.055   4.350   5.087 -1.1036 -2.1717 -0.4008
 2483TIP3    H228865   3.186   4.287   5.129 -0.5261 -0.4021  0.5417
 2484TIP3   OH228866   1.298   2.586  14.219  0.0741  0.6186 -0.0778
 2484TIP3    H128867   1.275   2.511  14.164 -1.4646  2.0479 -1.5001
 2484TIP3    H228868   1.227   2.591  14.283  0.6336  0.3758  0.5774
 2485TIP3   OH228869   1.538   3.916   3.663  0.1284  0.1909 -0.1713
 2485TIP3    H128870   1.487   3.841   3.634 -0.5173 -0.3438  2.1460
 2485TIP3    H228871   1.628   3.896   3.639 -0.1222 -1.0477 -0.1110
 2486TIP3   OH228872   4.899   5.642  14.378 -0.1576 -0.8554  0.1239
 2486TIP3    H128873   4.914   5.681  14.465  0.9888  0.1937 -0.5035
 2486TIP3    H228874   4.950   5.561  14.379  0.2587 -0.5935  0.2615
 2487TIP3   OH228875   6.335   6.854  11.426 -0.2222  0.2418 -0.4332
 2487TIP3    H128876   6.384   6.834  11.506 -1.7680  1.7785  1.0016
 2487TIP3    H228877   6.399   6.897  11.369  0.3873  1.3540  0.9983
 2488TIP3   OH228878   1.914   3.414  13.048  0.2197  0.1512  0.4660
 2488TIP3    H128879   1.855   3.402  13.122 -0.7516  2.0612  0.0812
 2488TIP3    H228880   1.914   3.330  13.003 -0.2346 -0.6330  1.8645
 2489TIP3   OH228881   1.409   2.593   1.828 -0.4490 -0.5148 -0.3163
 2489TIP3    H128882   1.438   2.528   1.891 -0.8981 -0.2345  0.1929
 2489TIP3    H228883   1.320   2.616   1.857 -0.1545  0.5983 -0.2510
 2490TIP3   OH228884   1.971   2.100   3.612 -0.7355 -0.5707 -0.2270
 2490TIP3    H128885   1.996   2.155   3.687 -1.3114  1.5345 -1.4820
 2490TIP3    H228886   2.053   2.086   3.564 -0.5200 -1.1388  0.3018
 2491TIP3   OH228887   4.375   1.861  11.070 -0.1818  0.1198 -0.3152
 2491TIP3    H128888   4.374   1.927  11.140  0.5743  0.5883 -0.7399
 2491TIP3    H228889   4.439   1.797  11.099 -1.2599 -0.7168  0.3287
 2492TIP3   OH228890   2.948   2.089   1.519  0.2556 -0.1502  0.1113
 2492TIP3    H128891   3.026   2.144   1.531  0.4412 -0.3160 -0.3314
 2492TIP3    H228892   2.875   2.149   1.530  0.4577  0.1818 -0.3407
 2493TIP3   OH228893   4.598   6.272  10.028  0.5061 -0.1919 -0.3768
 2493TIP3    H128894   4.606   6.198  10.088  0.1558 -1.0180 -1.3119
 2493TIP3    H228895   4.525   6.323  10.063  1.7621  0.6343  1.1881
 2494TIP3   OH228896   3.193   3.226  12.121 -0.2873 -0.6164  0.5297
 2494TIP3    H128897   3.244   3.273  12.187 -0.0183 -0.2591  0.0754
 2494TIP3    H228898   3.176   3.141  12.160 -2.9204  0.6446  2.4229
 2495TIP3   OH228899   6.030   6.132  12.085  0.4982  0.0019 -0.2432
 2495TIP3    H128900   6.089   6.163  12.016  0.4606  1.0085  0.1571
 2495TIP3    H228901   5.950   6.182  12.071  0.2455 -0.3004  0.1060
 2496TIP3   OH228902   3.950   0.696   1.062 -0.0233  1.1387  0.4784
 2496TIP3    H128903   3.934   0.644   1.140  0.4621 -1.0280 -0.8023
 2496TIP3    H228904   4.045   0.707   1.058  0.0859  0.0167 -0.5208
 2497TIP3   OH228905   4.050   3.699  11.208  0.5907  0.3927  0.6359
 2497TIP3    H128906   3.962   3.737  11.210  0.4533  0.0686  0.6609
 2497TIP3    H228907   4.041   3.614  11.251 -0.1409 -1.9476 -3.6443
 2498TIP3   OH228908   4.059   2.027   3.819  0.0398  0.0347 -0.0712
 2498TIP3    H128909   4.104   2.071   3.892 -0.5168 -1.7819  1.4233
 2498TIP3    H228910   4.130   1.995   3.763  0.4943  0.5658  0.1905
 2499TIP3   OH228911   1.585   4.900  12.421  0.3125 -0.2890 -0.0694
 2499TIP3    H128912   1.510   4.944  12.381  1.9918  1.6838 -1.2325
 2499TIP3    H228913   1.592   4.939  12.508  0.8421  0.6741 -0.5194
 2500TIP3   OH228914   6.372   2.055   1.096 -0.1171 -0.3256 -0.0874
 2500TIP3    H128915   6.331   2.141   1.087  1.0497  0.1583 -1.0071
 2500TIP3    H228916   6.372   2.038   1.190 -0.9114  0.3869  0.0523
 2501TIP3   OH228917   2.766   5.596   9.934 -0.2849  0.7619 -0.0177
 2501TIP3    H128918   2.825   5.546   9.877 -0.3096  2.8977 -2.0745
 2501TIP3    H228919   2.802   5.684   9.935 -1.2420  1.1885  1.9938
 2502TIP3   OH228920   1.815   0.157  15.780 -0.0152 -0.0277  0.2258
 2502TIP3    H128921   1.825   0.207  15.699  0.3268 -0.0308  0.2634
 2502TIP3    H228922   1.724   0.172  15.806  0.6859  2.5021  1.5074
 2503TIP3   OH228923   5.257   2.104  10.691 -0.2584 -0.0582 -0.2143
 2503TIP3    H128924   5.237   2.127  10.600  1.6179  1.0009 -0.4059
 2503TIP3    H228925   5.171   2.103  10.735 -1.0050  1.5042 -1.5304
 2504TIP3   OH228926   0.055   5.924  14.743 -0.1577 -0.0527 -0.1700
 2504TIP3    H128927   0.079   5.867  14.815 -1.6475 -1.2731 -0.5849
 2504TIP3    H228928   0.122   5.911  14.677 -0.8663 -1.9435 -0.5621
 2505TIP3   OH228929   0.620   5.359   5.225  0.1889  0.0696  0.6064
 2505TIP3    H128930   0.566   5.404   5.160  0.9783  1.9232  1.1862
 2505TIP3    H228931   0.593   5.267   5.217 -2.8857  0.8353  0.7055
 2506TIP3   OH228932   6.685   0.260  14.278 -0.2971 -0.5383  0.0274
 2506TIP3    H128933   6.650   0.268  14.189  0.0345  0.2252 -0.0351
 2506TIP3    H228934   6.767   0.211  14.267 -0.3401 -0.5888 -0.0667
 2507TIP3   OH228935   3.964   5.807  11.346 -0.5971 -0.3459  0.0275
 2507TIP3    H128936   4.012   5.757  11.280  1.8698 -1.4045  2.4719
 2507TIP3    H228937   3.890   5.751  11.369 -0.9823 -0.3570 -1.1398
 2508TIP3   OH228938   3.740   1.375  12.714  0.2835  0.0389 -0.2914
 2508TIP3    H128939   3.799   1.299  12.717 -0.2868 -0.4948 -1.6602
 2508TIP3    H228940   3.797   1.450  12.698  1.0838  0.2451  2.8375
 2509TIP3   OH228941   2.620   2.989  12.655  0.7606  0.6254 -0.2094
 2509TIP3    H128942   2.636   2.903  12.615 -1.4433  0.7358 -1.5402
 2509TIP3    H228943   2.643   3.052  12.586 -0.3420  0.9441 -0.3095
 2510TIP3   OH228944   1.894   2.544  15.548  0.0741  0.4785 -0.5001
 2510TIP3    H128945   1.968   2.505  15.503  0.0736 -1.1439  0.7877
 2510TIP3    H228946   1.932   2.608  15.608  0.0577  2.8212 -2.8253
 2511TIP3   OH228947   6.890   0.806  12.960 -0.3336  0.5011  0.4802
 2511TIP3    H128948   6.821   0.868  12.982 -1.0221 -0.4463  1.0935
 2511TIP3    H228949   6.855   0.721  12.986  0.6625 -0.1291 -0.1474
 2512TIP3   OH228950   1.479   3.967  16.568 -0.3345  0.4581 -0.1511
 2512TIP3    H128951   1.517   3.967  16.656  0.1653  0.1585 -0.3608
 2512TIP3    H228952   1.386   3.987  16.582 -1.2019 -3.3858  0.8895
 2513TIP3   OH228953   0.468   3.848   4.514 -0.1075 -0.1752  0.7276
 2513TIP3    H128954   0.483   3.837   4.608 -0.5164  1.4699  1.0162
 2513TIP3    H228955   0.523   3.922   4.490  0.0347 -0.6125 -0.3655
 2514TIP3   OH228956   6.631   1.248  13.702 -0.6795 -0.0858  0.0624
 2514TIP3    H128957   6.654   1.258  13.609  0.4372 -1.0650  0.2210
 2514TIP3    H228958   6.542   1.284  13.708 -1.6345 -1.9091 -1.8069
 2515TIP3   OH228959   0.771   2.422   4.697  0.1715 -0.0077 -0.0758
 2515TIP3    H128960   0.700   2.470   4.654 -0.5167 -2.9935 -2.6312
 2515TIP3    H228961   0.820   2.383   4.625  2.6449 -0.4908  1.7548
 2516TIP3   OH228962   0.157   5.593  10.235  0.5837 -0.3224  0.2189
 2516TIP3    H128963   0.089   5.661  10.235  1.1763  0.2835 -0.5655
 2516TIP3    H228964   0.226   5.628  10.179  1.7303 -0.7545  1.3272
 2517TIP3   OH228965   5.424   6.358   4.780  0.0868 -0.6000  0.3779
 2517TIP3    H128966   5.452   6.428   4.839 -0.2855 -2.0308  2.3496
 2517TIP3    H228967   5.445   6.277   4.827 -0.8226 -1.8072 -1.1932
 2518TIP3   OH228968   0.182   4.407  14.719 -0.5284 -0.1459 -0.2586
 2518TIP3    H128969   0.164   4.316  14.742 -0.4208 -0.3715 -1.0514
 2518TIP3    H228970   0.277   4.414  14.721 -0.5088 -0.2232 -0.8343
 2519TIP3   OH228971   5.630   0.171  10.264 -1.0169  0.0091 -0.1862
 2519TIP3    H128972   5.693   0.190  10.333 -2.0821  1.1624  0.5018
 2519TIP3    H228973   5.618   0.076  10.268  0.1593 -0.1434  0.0959
 2520TIP3   OH228974   5.819   0.298   1.651 -0.5144 -0.0682  0.1207
 2520TIP3    H128975   5.750   0.253   1.602 -1.7411  1.7396  0.1358
 2520TIP3    H228976   5.900   0.254   1.622 -1.6989 -3.6227  1.6236
 2521TIP3   OH228977   2.601   2.677   4.058 -0.6040 -0.3570 -0.4055
 2521TIP3    H128978   2.640   2.652   4.141 -1.8893 -1.6729 -0.1488
 2521TIP3    H228979   2.557   2.760   4.076  1.8174  1.0475 -0.6603
 2522TIP3   OH228980   1.826   5.840  16.568  0.2127 -0.0204 -0.2885
 2522TIP3    H128981   1.737   5.869  16.589 -0.2277  0.8775 -3.1003
 2522TIP3    H228982   1.826   5.747  16.591 -0.8927  0.3150  1.2900
 2523TIP3   OH228983   6.531   1.507   3.033 -0.2073 -0.1055 -0.0063
 2523TIP3    H128984   6.624   1.525   3.025 -0.2976  0.8220  0.7567
 2523TIP3    H228985   6.525   1.427   3.085  0.1665 -0.2658 -0.2149
 2524TIP3   OH228986   5.309   5.851   5.239 -0.1000 -0.2119 -0.0913
 2524TIP3    H128987   5.348   5.932   5.271  1.9057 -0.3178 -2.0187
 2524TIP3    H228988   5.360   5.782   5.280 -0.3823 -0.4525 -0.1391
 2525TIP3   OH228989   4.004   1.065   3.158  0.6898  0.3876  0.4089
 2525TIP3    H128990   3.971   1.127   3.223  0.6028  1.5843 -0.7387
 2525TIP3    H228991   4.084   1.031   3.197  0.2209  0.4672  1.4876
 2526TIP3   OH228992   3.171   0.639   5.942 -0.0133 -0.1046  0.5348
 2526TIP3    H128993   3.204   0.550   5.942 -0.3417 -0.2284 -0.1868
 2526TIP3    H228994   3.079   0.631   5.969  0.4656  0.2288  2.4438
 2527TIP3   OH228995   3.805   3.352   2.797 -0.2848  0.2926  0.2265
 2527TIP3    H128996   3.834   3.348   2.706  0.4414 -0.7183  0.4840
 2527TIP3    H228997   3.757   3.434   2.803 -1.9865 -0.5042 -1.5307
 2528TIP3   OH228998   3.755   6.222   4.259  0.1094  0.3403  0.3092
 2528TIP3    H128999   3.720   6.293   4.313 -0.3883  0.6061 -0.3454
 2528TIP3    H229000   3.835   6.258   4.221 -0.4365  0.7568 -0.4633
 2529TIP3   OH229001   1.823   5.020  15.804 -0.0172 -0.0437 -0.0108
 2529TIP3    H129002   1.896   4.961  15.792  1.9110  1.8246  1.6606
 2529TIP3    H229003   1.819   5.070  15.722  0.1433 -0.5808 -0.3514
 2530TIP3   OH229004   3.241   6.152  13.741  0.1253 -0.4395 -0.0912
 2530TIP3    H129005   3.258   6.111  13.656  0.1214 -1.4469  0.3837
 2530TIP3    H229006   3.193   6.086  13.790 -0.5040  0.4022  0.4557
 2531TIP3   OH229007   0.680   2.396  11.185 -0.0174  0.0392 -0.4346
 2531TIP3    H129008   0.709   2.311  11.150  0.4425 -0.5495  1.2898
 2531TIP3    H229009   0.606   2.420  11.130 -0.7221 -1.9344 -0.4179
 2532TIP3   OH229010   1.076   1.300   0.886  0.0761 -0.4290  0.1034
 2532TIP3    H129011   1.045   1.270   0.971  0.4386 -2.1738 -0.3470
 2532TIP3    H229012   1.002   1.349   0.849 -0.0823  0.3501  1.3854
 2533TIP3   OH229013   4.634   5.674   5.374 -0.2498 -0.0057  0.3066
 2533TIP3    H129014   4.645   5.620   5.296 -2.7242 -0.5608  0.2650
 2533TIP3    H229015   4.650   5.615   5.448  0.1309  0.0246  0.2530
 2534TIP3   OH229016   3.063   3.103  10.648 -0.3917  0.0538 -0.0719
 2534TIP3    H129017   3.139   3.133  10.698  0.6897 -0.6954 -1.2267
 2534TIP3    H229018   3.069   3.149  10.565  0.1714 -1.7820 -1.1033
 2535TIP3   OH229019   5.869   6.752  13.297 -0.2945 -0.1327 -0.4723
 2535TIP3    H129020   5.884   6.670  13.345 -0.9725  0.8347  1.5258
 2535TIP3    H229021   5.837   6.725  13.211 -0.2649 -1.9559  0.0569
 2536TIP3   OH229022   5.042   4.669  11.989  0.0294 -0.0503  0.0549
 2536TIP3    H129023   4.949   4.647  11.982 -0.4351  1.9390 -0.5444
 2536TIP3    H229024   5.071   4.678  11.898  1.2356 -2.1306  0.1705
 2537TIP3   OH229025   5.298   5.302  15.308 -0.0116 -0.3107 -0.0829
 2537TIP3    H129026   5.368   5.247  15.342  1.3248  0.7574 -0.9607
 2537TIP3    H229027   5.318   5.390  15.341  0.6051  0.5137 -2.3921
 2538TIP3   OH229028   2.093   2.811  13.818  0.4614 -0.6808 -0.0212
 2538TIP3    H129029   2.014   2.819  13.765 -0.5600 -0.2328  1.4968
 2538TIP3    H229030   2.101   2.896  13.862  1.0736 -1.1553  0.8114
 2539TIP3   OH229031   1.327   6.300  16.245  0.1389 -0.2108  0.3452
 2539TIP3    H129032   1.262   6.294  16.176 -0.0961  2.4767  0.2314
 2539TIP3    H229033   1.367   6.386  16.233  1.0500 -0.2249  2.7224
 2540TIP3   OH229034   0.536   3.235   3.471 -0.3811 -0.5951  0.1055
 2540TIP3    H129035   0.513   3.242   3.378  0.3690  0.8373 -0.0042
 2540TIP3    H229036   0.457   3.199   3.513 -1.0351 -0.4451 -0.9579
 2541TIP3   OH229037   2.560   0.932  15.011  0.0349 -0.3282 -0.1859
 2541TIP3    H129038   2.587   0.854  14.963 -1.0534  0.0168 -1.4113
 2541TIP3    H229039   2.466   0.941  14.993  0.2536  1.6080 -0.6264
 2542TIP3   OH229040   5.025   5.417  15.644  0.0038 -0.1956 -0.0050
 2542TIP3    H129041   5.082   5.351  15.606 -1.5028 -1.1718 -0.6524
 2542TIP3    H229042   5.059   5.430  15.733  0.9613 -1.0436 -0.2330
 2543TIP3   OH229043   1.078   1.406   5.262  0.6923  0.0766  0.0528
 2543TIP3    H129044   1.080   1.323   5.216 -2.1374  0.0446 -0.1734
 2543TIP3    H229045   0.985   1.422   5.279  1.2163  2.7739  0.8544
 2544TIP3   OH229046   0.618   3.696  12.798 -0.5009  0.1972 -0.4747
 2544TIP3    H129047   0.544   3.750  12.767 -0.8153 -0.2081 -0.4467
 2544TIP3    H229048   0.696   3.740  12.765 -0.7078  1.0950  0.2091
 2545TIP3   OH229049   4.259   6.668   5.283  0.1589  0.3860 -0.0496
 2545TIP3    H129050   4.282   6.727   5.212 -1.1687 -0.1945 -1.0045
 2545TIP3    H229051   4.217   6.593   5.240  0.0210 -0.3325  1.2819
 2546TIP3   OH229052   0.602   0.801   5.317 -0.2043 -0.0748  0.1501
 2546TIP3    H129053   0.577   0.891   5.338  2.1857  1.3296 -2.3670
 2546TIP3    H229054   0.529   0.768   5.264 -0.7354  0.6839  0.3860
 2547TIP3   OH229055   2.797   2.430   6.163 -0.1893  0.0386  0.0416
 2547TIP3    H129056   2.766   2.463   6.248  0.8503  0.7585  0.1616
 2547TIP3    H229057   2.771   2.498   6.101 -0.4693 -0.2304 -0.1369
 2548TIP3   OH229058   5.616   2.293  16.326 -0.5732  0.2370 -0.2292
 2548TIP3    H129059   5.649   2.367  16.376 -0.5231 -1.2845  2.1747
 2548TIP3    H229060   5.628   2.317  16.234  0.3262  2.7471  0.4855
 2549TIP3   OH229061   4.966   3.058  16.505 -0.4261 -0.1738  0.2356
 2549TIP3    H129062   4.950   3.118  16.432 -0.8810 -0.6363 -0.0504
 2549TIP3    H229063   5.061   3.043  16.503  0.0110  1.9740  1.4567
 2550TIP3   OH229064   5.391   3.103   2.488  0.3340  0.0110 -0.2818
 2550TIP3    H129065   5.371   3.035   2.423  0.7694 -1.1778  0.7939
 2550TIP3    H229066   5.486   3.116   2.481  0.4214 -0.3054  0.2813
 2551TIP3   OH229067   3.719   4.444  10.539 -0.2112 -0.0482  0.1538
 2551TIP3    H129068   3.729   4.515  10.474  0.5338 -0.5413 -0.2876
 2551TIP3    H229069   3.739   4.485  10.622 -1.5998  0.7030  0.1514
 2552TIP3   OH229070   1.283   2.204   0.049 -0.3056 -0.2721 -0.0162
 2552TIP3    H129071   1.357   2.162   0.092 -1.6068 -2.8545 -0.1381
 2552TIP3    H229072   1.320   2.282   0.008  1.6828  0.2817  2.5849
 2553TIP3   OH229073   0.862   0.836  15.714 -0.8056  0.8293  0.3185
 2553TIP3    H129074   0.912   0.916  15.732 -2.4842  1.4103  2.9492
 2553TIP3    H229075   0.837   0.804  15.800 -3.0782 -0.6415 -0.7949
 2554TIP3   OH229076   5.543   3.200   0.726  0.0230  0.5158 -0.6453
 2554TIP3    H129077   5.512   3.290   0.716  0.5731  0.7496 -0.2697
 2554TIP3    H229078   5.638   3.206   0.715  0.1026  0.0388 -0.2474
 2555TIP3   OH229079   1.414   3.103   5.379  0.1082  0.6392 -0.0215
 2555TIP3    H129080   1.340   3.100   5.319 -0.5558 -0.0060  0.8145
 2555TIP3    H229081   1.376   3.126   5.464  0.3469 -2.5414  1.0983
 2556TIP3   OH229082   3.937   6.469  15.574 -0.1319 -0.2047 -0.2757
 2556TIP3    H129083   3.891   6.553  15.564 -0.5578 -0.2645  0.9744
 2556TIP3    H229084   4.021   6.492  15.613 -0.5495 -0.4026  0.7813
 2557TIP3   OH229085   5.104   2.359   1.159 -0.3250  0.2844  0.7645
 2557TIP3    H129086   5.142   2.446   1.147 -0.0361  0.2468  1.3820
 2557TIP3    H229087   5.097   2.348   1.254  2.9915 -1.7628  0.9429
 2558TIP3   OH229088   1.826   6.424  11.551 -0.2870  0.0397  0.3538
 2558TIP3    H129089   1.869   6.370  11.617  2.1262  1.4828  0.1019
 2558TIP3    H229090   1.872   6.508  11.556  0.0555  0.2016 -3.1731
 2559TIP3   OH229091   4.740   1.774   0.480 -0.2728  0.3610  0.1553
 2559TIP3    H129092   4.749   1.737   0.392  0.5021 -1.3492  0.9023
 2559TIP3    H229093   4.694   1.856   0.467 -1.2517 -0.4282 -1.7139
 2560TIP3   OH229094   5.422   6.721   0.148 -0.8437  0.2319  0.3546
 2560TIP3    H129095   5.499   6.753   0.101 -0.1991 -0.7931  0.6774
 2560TIP3    H229096   5.363   6.692   0.079 -0.3494 -0.2693  0.1289
 2561TIP3   OH229097   5.075   0.724  15.077 -0.2233  0.3716 -0.3031
 2561TIP3    H129098   5.151   0.761  15.033 -0.8493  0.3012 -1.4673
 2561TIP3    H229099   5.089   0.745  15.170  1.8121 -0.7055 -0.2931
 2562TIP3   OH229100   2.897   5.465  11.814  0.2810 -0.1464 -0.1793
 2562TIP3    H129101   2.803   5.465  11.830  0.3303 -1.4966  0.2731
 2562TIP3    H229102   2.936   5.475  11.901  0.5812  1.7624 -0.4924
 2563TIP3   OH229103   1.340   6.816  14.420  0.3911 -0.3644  0.2385
 2563TIP3    H129104   1.330   6.736  14.471 -1.1555 -1.3814 -1.5286
 2563TIP3    H229105   1.363   6.786  14.332 -0.1817  1.1178 -0.4580
 2564TIP3   OH229106   4.196   5.340   4.965 -0.3750  0.8076  0.0411
 2564TIP3    H129107   4.224   5.296   4.884 -0.2473 -0.5938  0.8133
 2564TIP3    H229108   4.120   5.289   4.995 -0.5537  1.4413  0.6980
 2565TIP3   OH229109   0.505   5.925  16.515  0.4326  0.4437 -0.0385
 2565TIP3    H129110   0.491   6.013  16.550 -0.8541 -0.6198  2.3670
 2565TIP3    H229111   0.443   5.918  16.442 -1.0515  0.8518  1.1282
 2566TIP3   OH229112   1.309   3.007   0.585  0.3449  0.4860 -0.2049
 2566TIP3    H129113   1.375   3.063   0.543  0.2067  0.9325  0.1573
 2566TIP3    H229114   1.329   3.014   0.679  1.6059 -1.6944 -0.2332
 2567TIP3   OH229115   1.667   5.611  13.567  0.1522 -0.1668 -0.4070
 2567TIP3    H129116   1.642   5.688  13.516 -2.3626  1.0109  2.3364
 2567TIP3    H229117   1.620   5.538  13.526 -0.1731  0.3819 -1.0213
 2568TIP3   OH229118   1.465   3.547   1.300 -0.2890 -0.0628 -0.2066
 2568TIP3    H129119   1.464   3.465   1.252  0.7706  0.3809 -1.0336
 2568TIP3    H229120   1.432   3.612   1.237 -0.6094  0.2400  0.2628
 2569TIP3   OH229121   1.514   6.648   4.238 -0.5152 -0.0471 -0.1753
 2569TIP3    H129122   1.595   6.644   4.188 -0.8872 -1.1942 -0.7368
 2569TIP3    H229123   1.500   6.558   4.269 -1.5527  0.1299 -0.0808
 2570TIP3   OH229124   1.145   4.940  11.963  0.4192  0.1683  0.1995
 2570TIP3    H129125   1.050   4.928  11.958  0.4182  0.2767 -0.0374
 2570TIP3    H229126   1.171   4.969  11.876  0.8705 -1.1985 -0.1482
 2571TIP3   OH229127   6.663   0.574  11.447  0.4768 -0.1226 -0.8449
 2571TIP3    H129128   6.600   0.548  11.514  0.1945 -1.0088 -1.4276
 2571TIP3    H229129   6.668   0.669  11.453  0.3625 -0.1778  0.3352
 2572TIP3   OH229130   4.722   1.648  12.063 -0.3007 -0.4128  0.2095
 2572TIP3    H129131   4.692   1.600  11.986 -1.4868  0.6366 -0.0163
 2572TIP3    H229132   4.704   1.740  12.043  3.3114  0.3993 -0.0169
 2573TIP3   OH229133   4.987   2.868   3.211 -0.1166 -0.2474  0.2095
 2573TIP3    H129134   5.039   2.813   3.270  0.0853 -0.9448 -0.5941
 2573TIP3    H229135   5.043   2.879   3.134 -0.1950  1.0197  0.3194
 2574TIP3   OH229136   4.627   0.968  15.554 -0.1465 -0.5615 -0.0968
 2574TIP3    H129137   4.639   0.995  15.463  3.4266  0.2128  0.4476
 2574TIP3    H229138   4.608   1.049  15.601 -0.2717 -0.6923  0.0794
 2575TIP3   OH229139   1.878   6.436  14.962 -0.1717 -0.2292 -0.1225
 2575TIP3    H129140   1.965   6.436  14.922  0.5874 -1.7404  1.4006
 2575TIP3    H229141   1.853   6.528  14.964  1.8830  0.3866  0.3716
 2576TIP3   OH229142   6.627   2.651  15.012 -0.2730  0.0135  0.3735
 2576TIP3    H129143   6.585   2.734  14.992  0.3862  0.3248  0.2705
 2576TIP3    H229144   6.720   2.665  14.995 -0.1344 -0.7053  0.4732
 2577TIP3   OH229145   0.475   1.898  14.281  0.1603 -0.4634  0.4539
 2577TIP3    H129146   0.535   1.963  14.319  1.4240 -1.0365 -0.5138
 2577TIP3    H229147   0.404   1.892  14.345  0.9999  0.4183  1.5196
 2578TIP3   OH229148   3.644   3.230  10.162  0.1095  0.1850 -0.0760
 2578TIP3    H129149   3.646   3.139  10.190  0.4553  0.2075 -0.0220
 2578TIP3    H229150   3.583   3.232  10.089  1.6444 -0.4779 -1.4407
 2579TIP3   OH229151   2.194   3.055  13.926 -0.4539 -0.0402  0.1698
 2579TIP3    H129152   2.246   3.127  13.960  0.4623 -0.7902  0.4077
 2579TIP3    H229153   2.155   3.089  13.846  1.0343  0.3274 -0.4369
 2580TIP3   OH229154   3.855   6.439   1.378  0.3620  0.1779 -0.1652
 2580TIP3    H129155   3.873   6.507   1.443  1.5025  1.0512 -1.3441
 2580TIP3    H229156   3.813   6.485   1.305 -1.4053 -0.8720  0.1040
 2581TIP3   OH229157   2.961   2.377  12.195  0.2299  0.4510  0.0576
 2581TIP3    H129158   2.893   2.313  12.218  0.1780  0.2450 -0.6358
 2581TIP3    H229159   3.030   2.363  12.260 -0.8609  1.4474  1.4839
 2582TIP3   OH229160   4.856   0.299  14.038 -0.1012  0.3650  0.2100
 2582TIP3    H129161   4.848   0.230  13.972 -2.5980  0.2349  0.5278
 2582TIP3    H229162   4.783   0.284  14.098  0.9204  1.6627  1.8912
 2583TIP3   OH229163   4.529   4.701   1.979  0.4730 -0.6459 -0.2265
 2583TIP3    H129164   4.468   4.711   2.052 -0.4922  1.1995 -1.1805
 2583TIP3    H229165   4.609   4.745   2.008  0.2829 -0.3988 -0.0734
 2584TIP3   OH229166   5.697   4.462   2.921 -0.3981  0.1538 -0.6213
 2584TIP3    H129167   5.681   4.553   2.947  0.2906 -0.2262  1.2992
 2584TIP3    H229168   5.780   4.466   2.873  0.5201  0.3634  0.9073
 2585TIP3   OH229169   0.250   0.980  16.470  0.4790  0.5873 -0.1204
 2585TIP3    H129170   0.182   0.953  16.532 -1.4165  1.3650 -1.7562
 2585TIP3    H229171   0.263   0.903  16.415 -0.0875  0.8674 -0.6530
 2586TIP3   OH229172   6.692   4.121   5.340  0.0124  0.5848  0.4402
 2586TIP3    H129173   6.700   4.029   5.367  0.9225  0.7833  0.8670
 2586TIP3    H229174   6.617   4.154   5.389 -0.2308  0.1121  0.3921
 2587TIP3   OH229175   3.296   4.503  13.990  0.0367 -0.3022  0.2849
 2587TIP3    H129176   3.381   4.497  13.947  1.2217 -1.6955  2.6515
 2587TIP3    H229177   3.250   4.423  13.965  0.4214 -0.7388  0.9458
 2588TIP3   OH229178   5.024   2.263  10.484  0.2497  0.4341 -0.5275
 2588TIP3    H129179   5.042   2.196  10.418  2.0937 -1.4295  1.6851
 2588TIP3    H229180   5.104   2.314  10.488 -0.4027  1.4975 -0.7447
 2589TIP3   OH229181   1.354   4.276  11.619  0.0711  0.3989 -0.0929
 2589TIP3    H129182   1.280   4.216  11.606  0.0361  0.5804 -0.7692
 2589TIP3    H229183   1.324   4.359  11.583  0.1778  0.7960  0.7053
 2590TIP3   OH229184   2.623   4.531  13.887  0.2094  0.0636 -0.1005
 2590TIP3    H129185   2.646   4.489  13.970  3.2954 -0.8238 -1.2919
 2590TIP3    H229186   2.700   4.584  13.865 -1.1759  1.5549 -1.6720
 2591TIP3   OH229187   5.417   5.213   2.082  0.0926 -0.0152 -0.0043
 2591TIP3    H129188   5.429   5.156   2.158 -1.8111 -1.2312 -0.5721
 2591TIP3    H229189   5.445   5.161   2.007  0.0739  0.4629 -0.3524
 2592TIP3   OH229190   5.351   1.487  12.393 -0.3049 -0.2168 -0.0502
 2592TIP3    H129191   5.424   1.425  12.400 -0.5098 -0.5711 -0.9303
 2592TIP3    H229192   5.386   1.559  12.341 -0.1007  0.3734  0.8849
 2593TIP3   OH229193   4.739   5.587  11.340 -0.2588  0.0018 -0.1578
 2593TIP3    H129194   4.688   5.506  11.343 -0.3444  0.0270 -0.8586
 2593TIP3    H229195   4.823   5.561  11.302  0.0129  0.0913  0.3643
 2594TIP3   OH229196   2.239   2.198  14.971 -0.0156  0.4117 -0.1011
 2594TIP3    H129197   2.310   2.263  14.967 -0.1284  0.5021 -3.2701
 2594TIP3    H229198   2.160   2.247  14.951 -1.0988  0.2620  3.1889
 2595TIP3   OH229199   5.718   4.683  14.045  0.5879 -0.0747  1.2667
 2595TIP3    H129200   5.807   4.666  14.015  0.4276 -0.3177  0.9267
 2595TIP3    H229201   5.706   4.777  14.033  0.3152 -0.2496 -0.0330
 2596TIP3   OH229202   0.077   4.967  16.685 -0.0083 -0.2633 -0.1558
 2596TIP3    H129203   0.150   4.969  16.623  0.1117 -0.7131 -0.0281
 2596TIP3    H229204   0.023   5.042  16.659 -0.0393 -0.5296 -0.9070
 2597TIP3   OH229205   4.929   5.705  11.946  0.0113 -0.3628 -0.1196
 2597TIP3    H129206   4.862   5.763  11.982  0.1300 -1.2060  1.5940
 2597TIP3    H229207   4.882   5.645  11.889 -0.9149 -1.4934  1.7229
 2598TIP3   OH229208   5.601   2.515   3.133 -0.1286 -0.0033  0.2308
 2598TIP3    H129209   5.591   2.561   3.217  0.2329 -0.1139  0.3370
 2598TIP3    H229210   5.687   2.472   3.140  0.4415  0.9533 -0.6590
 2599TIP3   OH229211   6.036   4.668  14.877 -0.4300  0.3968  0.6346
 2599TIP3    H129212   6.129   4.650  14.865 -0.3719  1.3059 -0.5107
 2599TIP3    H229213   6.013   4.725  14.803 -1.9677 -0.0667  0.7227
 2600TIP3   OH229214   2.327   1.526  16.671 -0.1091  1.1527 -0.2627
 2600TIP3    H129215   2.328   1.447  16.726 -1.6847  1.5291  0.3639
 2600TIP3    H229216   2.401   1.515  16.612  0.1494 -0.4483  0.3109
 2601TIP3   OH229217   5.749   5.023   3.586  0.1225  0.5709 -0.3898
 2601TIP3    H129218   5.832   5.036   3.631  0.9859  0.8682 -1.9878
 2601TIP3    H229219   5.695   4.973   3.648  0.8631  1.8261  1.3409
 2602TIP3   OH229220   0.176   0.824  12.194 -0.3131 -0.4760 -0.1163
 2602TIP3    H129221   0.251   0.842  12.137  0.4545  1.3336  1.3744
 2602TIP3    H229222   0.214   0.793  12.276 -0.9705  2.2981  1.3550
 2603TIP3   OH229223   4.017   6.837   3.616  0.1155  0.2403 -0.1051
 2603TIP3    H129224   3.951   6.904   3.627 -1.1601 -0.6280 -1.9908
 2603TIP3    H229225   4.026   6.797   3.702 -0.1071  1.8794  0.7050
 2604TIP3   OH229226   3.455   3.728  10.932 -0.0926 -0.1576 -0.3297
 2604TIP3    H129227   3.475   3.680  11.012 -1.0873  2.2962  1.5420
 2604TIP3    H229228   3.364   3.706  10.913 -0.8473  1.4620  1.0473
 2605TIP3   OH229229   3.203   5.820   5.614 -0.7476 -0.0859  0.2099
 2605TIP3    H129230   3.277   5.773   5.576 -0.7068  1.2419 -1.4711
 2605TIP3    H229231   3.144   5.751   5.645 -1.2635 -1.3800 -3.2562
 2606TIP3   OH229232   0.692   4.827   2.549  0.3296  0.3877 -0.4726
 2606TIP3    H129233   0.730   4.809   2.635  3.1170  2.5586 -1.1202
 2606TIP3    H229234   0.634   4.902   2.564 -1.9252 -1.3413  0.0318
 2607TIP3   OH229235   2.823   1.576  15.149 -0.0986  0.5876  0.0040
 2607TIP3    H129236   2.830   1.670  15.165 -1.3695  0.6318  0.4715
 2607TIP3    H229237   2.755   1.547  15.210 -1.9574 -0.0813 -2.2294
 2608TIP3   OH229238   1.284   0.866  14.004  0.5087  0.1644 -0.0732
 2608TIP3    H129239   1.332   0.948  13.990 -0.2656  0.9113  1.3950
 2608TIP3    H229240   1.317   0.834  14.088 -0.8444  0.1968  0.4955
 2609TIP3   OH229241   1.836   4.632   1.995 -0.2825 -0.6356  0.4502
 2609TIP3    H129242   1.824   4.623   2.089 -0.9786 -2.3120  0.2264
 2609TIP3    H229243   1.837   4.542   1.962 -0.4600 -0.0611 -1.1940
 2610TIP3   OH229244   2.157   6.200  13.415 -0.6517 -0.5055 -0.3493
 2610TIP3    H129245   2.245   6.219  13.383 -0.5702  1.5529  0.9272
 2610TIP3    H229246   2.101   6.209  13.338 -0.0125  0.5312 -0.7040
 2611TIP3   OH229247   3.808   3.753   3.344 -0.7667  0.3077  0.5762
 2611TIP3    H129248   3.757   3.818   3.393 -1.3162  0.3182 -0.0015
 2611TIP3    H229249   3.851   3.803   3.275 -1.8738 -0.0580 -0.4012
 2612TIP3   OH229250   5.465   1.146   2.533  0.1220  0.7755  0.1516
 2612TIP3    H129251   5.537   1.200   2.502  1.2523  0.6100  2.2658
 2612TIP3    H229252   5.504   1.091   2.601 -1.9305  0.4474  1.1572
 2613TIP3   OH229253   6.666   4.506   4.455  0.5417 -0.2798  0.1086
 2613TIP3    H129254   6.578   4.468   4.445  0.6653 -0.7387  0.7182
 2613TIP3    H229255   6.705   4.497   4.368  1.0572 -2.8534  0.5148
 2614TIP3   OH229256   3.792   2.194  12.167  0.6196 -0.8103 -0.2403
 2614TIP3    H129257   3.829   2.176  12.254  0.2078 -2.5409 -0.3829
 2614TIP3    H229258   3.867   2.219  12.113  0.6370  2.4444  1.0583
 2615TIP3   OH229259   0.543   5.491  11.635 -0.2190  0.0027  0.2769
 2615TIP3    H129260   0.540   5.418  11.573 -1.6000  1.3637 -1.3655
 2615TIP3    H229261   0.635   5.518  11.636  0.2761 -1.6158  0.7733
 2616TIP3   OH229262   0.333   1.536   3.328  0.5437  0.3206  0.2838
 2616TIP3    H129263   0.320   1.519   3.421 -0.2375  0.0529  0.1328
 2616TIP3    H229264   0.339   1.631   3.322 -0.6049  0.4174  0.4724
 2617TIP3   OH229265   5.845   3.479  12.730  0.0682  0.0422  0.6445
 2617TIP3    H129266   5.922   3.520  12.768  0.5993  2.9401 -3.0179
 2617TIP3    H229267   5.774   3.542  12.743  0.4624  1.6374 -3.4253
 2618TIP3   OH229268   3.262   2.657   1.360  0.2140  0.6819  0.4155
 2618TIP3    H129269   3.278   2.712   1.437  1.5874  0.2908  0.4446
 2618TIP3    H229270   3.339   2.671   1.305 -0.1389 -0.0505 -0.2802
 2619TIP3   OH229271   6.717   6.001   2.661 -0.0546  0.1020 -0.0292
 2619TIP3    H129272   6.788   5.985   2.723 -0.3319 -0.0303  0.2605
 2619TIP3    H229273   6.638   5.980   2.710 -0.4896  2.5447  0.4628
 2620TIP3   OH229274   3.291   1.632   1.763  0.6670 -0.9697  0.2114
 2620TIP3    H129275   3.383   1.658   1.768  0.5979 -0.9970  2.2105
 2620TIP3    H229276   3.275   1.622   1.669  1.7238  2.4857 -0.4899
 2621TIP3   OH229277   5.718   0.460  10.931 -0.4809  0.3236 -0.3460
 2621TIP3    H129278   5.789   0.478  10.991 -2.2316  1.9060  1.3856
 2621TIP3    H229279   5.674   0.383  10.968 -0.6016  0.3179 -0.4986
 2622TIP3   OH229280   0.182   4.688  11.594 -0.8041  0.2635 -0.5122
 2622TIP3    H129281   0.106   4.674  11.538 -1.4420  0.9387  0.1598
 2622TIP3    H229282   0.234   4.753  11.546 -0.2080 -0.8028 -1.3683
 2623TIP3   OH229283   1.965   5.272  12.007  0.2180 -0.2737 -0.1447
 2623TIP3    H129284   1.963   5.178  12.027 -1.8932  0.2302  2.6776
 2623TIP3    H229285   2.004   5.312  12.085 -0.7824  1.3023 -0.3994
 2624TIP3   OH229286   6.404   0.033   6.190  0.6241 -0.4039 -0.0131
 2624TIP3    H129287   6.494   0.017   6.217  0.3698  0.0202  1.1396
 2624TIP3    H229288   6.388   0.125   6.209 -0.2993 -0.6625  0.5434
 2625TIP3   OH229289   1.227   1.652   1.447 -0.3744 -0.0692 -0.5481
 2625TIP3    H129290   1.215   1.630   1.540  0.2902 -1.2637 -0.7329
 2625TIP3    H229291   1.141   1.642   1.408 -0.4336 -0.6441 -0.2745
 2626TIP3   OH229292   2.941   2.347   1.979  0.6033  0.1658  0.1645
 2626TIP3    H129293   2.937   2.299   2.062  0.6573 -1.0942 -0.5352
 2626TIP3    H229294   2.866   2.314   1.929  0.5712  0.9147 -0.2839
 2627TIP3   OH229295   6.780   5.302   6.154 -0.4585 -0.4988 -0.2016
 2627TIP3    H129296   6.688   5.314   6.128 -0.0585 -0.6764 -1.8319
 2627TIP3    H229297   6.828   5.302   6.071  1.4216  2.7350  0.7292
 2628TIP3   OH229298   1.754   6.735  13.912 -0.2008  0.7535 -0.2014
 2628TIP3    H129299   1.815   6.723  13.985 -1.7408  0.6174  1.1173
 2628TIP3    H229300   1.805   6.780  13.845  1.5040  0.1120  0.6079
 2629TIP3   OH229301   3.214   1.049  15.589 -0.0727 -0.0194 -0.0707
 2629TIP3    H129302   3.303   1.020  15.569 -0.7258 -1.2565 -1.3572
 2629TIP3    H229303   3.219   1.145  15.589  0.9877 -0.0501 -1.4089
 2630TIP3   OH229304   4.332   2.651   4.578  0.0952 -0.1785  0.0644
 2630TIP3    H129305   4.422   2.657   4.546 -0.7682  0.9489 -2.3173
 2630TIP3    H229306   4.308   2.740   4.600 -0.9069 -0.2455 -0.7081
 2631TIP3   OH229307   3.974   2.312  12.439 -0.2206  0.3305 -0.1906
 2631TIP3    H129308   3.979   2.403  12.409 -1.9755 -0.1470 -2.1892
 2631TIP3    H229309   3.907   2.312  12.507  0.3083  0.6371  0.3363
 2632TIP3   OH229310   1.857   3.831   0.029 -0.0684  0.1034 -0.4526
 2632TIP3    H129311   1.911   3.877   0.094  0.6521  1.6632 -2.0771
 2632TIP3    H229312   1.769   3.866   0.043  0.7205  3.4249 -2.7036
 2633TIP3   OH229313   1.189   0.232   4.917 -0.3470  0.2524  0.7317
 2633TIP3    H129314   1.221   0.152   4.875 -3.2454 -0.5464 -0.1834
 2633TIP3    H229315   1.111   0.205   4.965 -0.7774  2.3364  1.3270
 2634TIP3   OH229316   5.076   5.560  13.086  0.1851  0.2913 -0.0460
 2634TIP3    H129317   5.100   5.612  13.162 -0.9503  1.6749 -0.5862
 2634TIP3    H229318   5.100   5.614  13.011  3.2980 -1.9146 -0.8574
 2635TIP3   OH229319   4.361   5.591   2.023  0.1271  0.1234  0.0017
 2635TIP3    H129320   4.441   5.623   1.982  1.3180 -2.5109  0.0149
 2635TIP3    H229321   4.372   5.609   2.116  1.5913 -1.6777  0.2513
 2636TIP3   OH229322   4.042   3.802  10.818  0.5952 -0.4068 -0.3560
 2636TIP3    H129323   4.090   3.808  10.735  0.0876  0.1276 -0.6143
 2636TIP3    H229324   4.098   3.848  10.881  1.2066 -1.2208 -0.2935
 2637TIP3   OH229325   3.826   5.106  12.956 -0.2230  0.0022 -0.2697
 2637TIP3    H129326   3.851   5.037  12.894  2.2460  0.1868  0.4249
 2637TIP3    H229327   3.895   5.171  12.949 -0.7814  0.8421  1.4660
 2638TIP3   OH229328   6.720   2.348   3.360  0.4048  0.1340  0.2436
 2638TIP3    H129329   6.697   2.400   3.283  0.3491  0.5016  0.5105
 2638TIP3    H229330   6.718   2.257   3.329 -1.0922  0.1664  0.1851
 2639TIP3   OH229331   5.932   4.131  14.287 -0.1190 -0.4656  0.2581
 2639TIP3    H129332   5.971   4.194  14.347  3.3790 -1.2647 -0.9190
 2639TIP3    H229333   5.998   4.061  14.279 -1.5114 -1.6386 -2.5006
 2640TIP3   OH229334   1.251   5.342  15.214 -0.5316 -0.1299  0.4440
 2640TIP3    H129335   1.331   5.360  15.165 -0.8134  0.7002  0.2700
 2640TIP3    H229336   1.238   5.248  15.205  0.6876 -0.3671  0.8826
 2641TIP3   OH229337   0.711   3.411   4.144  0.4878 -0.2497 -0.1875
 2641TIP3    H129338   0.658   3.384   4.220 -0.6629  0.9600 -0.5153
 2641TIP3    H229339   0.712   3.507   4.149  1.6865 -0.2041 -0.8692
 2642TIP3   OH229340   3.244   6.385   2.833 -0.2177  0.5219  0.1009
 2642TIP3    H129341   3.158   6.343   2.840  0.9044 -1.7700  1.3874
 2642TIP3    H229342   3.263   6.385   2.740 -0.8387 -0.7179 -0.0512
 2643TIP3   OH229343   3.803   0.068  13.100 -0.4226  0.7292  0.1513
 2643TIP3    H129344   3.729   0.117  13.066 -1.9896 -0.7657  1.2597
 2643TIP3    H229345   3.777  -0.024  13.094 -0.1604  0.2705  3.6970
 2644TIP3   OH229346   6.864   3.621   4.864  0.2320 -0.3489  0.3286
 2644TIP3    H129347   6.909   3.563   4.804 -0.3784  0.0242 -0.5079
 2644TIP3    H229348   6.798   3.566   4.907  1.0527 -0.7507  1.1083
 2645TIP3   OH229349   4.771   4.550   3.314 -0.1764  0.3115 -0.1727
 2645TIP3    H129350   4.715   4.513   3.245 -1.7809  1.2461  0.5545
 2645TIP3    H229351   4.711   4.563   3.388  1.4234 -0.3130  1.2820
 2646TIP3   OH229352   4.468   1.689  15.308  0.3124 -0.2988  0.6946
 2646TIP3    H129353   4.377   1.658  15.308 -0.8046  2.6729  0.5754
 2646TIP3    H229354   4.502   1.661  15.223 -1.4252  0.8125 -0.4489
 2647TIP3   OH229355   2.612   2.519   1.724 -0.2236  0.0953  0.8596
 2647TIP3    H129356   2.633   2.612   1.711 -0.6681  0.4764  2.5356
 2647TIP3    H229357   2.653   2.498   1.808 -0.5860 -1.0907  0.7478
 2648TIP3   OH229358   6.715   2.491  16.305 -0.1882 -0.1124 -0.0496
 2648TIP3    H129359   6.795   2.539  16.328 -0.6713  1.3285 -1.2184
 2648TIP3    H229360   6.744   2.400  16.295  1.2895  0.3571 -0.3457
 2649TIP3   OH229361   5.608   6.870  10.815  0.2365 -0.4734  0.0156
 2649TIP3    H129362   5.639   6.779  10.815 -0.4882 -0.7326 -0.4859
 2649TIP3    H229363   5.594   6.891  10.722  1.3921  0.5171  0.0373
 2650TIP3   OH229364   1.185   1.333   4.593 -0.8138  0.0616 -0.0175
 2650TIP3    H129365   1.239   1.353   4.517 -1.9597  2.4461 -0.3064
 2650TIP3    H229366   1.104   1.297   4.557 -0.2095 -1.7418  0.3116
 2651TIP3   OH229367   0.968   3.066  13.929 -0.3538  0.0270  0.0958
 2651TIP3    H129368   0.907   3.078  14.002 -0.3987  0.4728 -0.0128
 2651TIP3    H229369   0.913   3.031  13.858 -0.2999 -0.4564  0.2891
 2652TIP3   OH229370   0.989   3.556   4.688  0.3031 -0.3040 -0.0083
 2652TIP3    H129371   1.066   3.521   4.732 -0.0128 -1.4469 -0.3412
 2652TIP3    H229372   0.916   3.533   4.745  0.0867 -0.1569 -0.2220
 2653TIP3   OH229373   1.620   5.028  11.566 -0.1052 -0.4768 -0.4301
 2653TIP3    H129374   1.646   5.105  11.514  1.3806 -1.5468 -1.3451
 2653TIP3    H229375   1.626   4.955  11.505 -1.3981 -1.3500  0.4602
 2654TIP3   OH229376   5.071   0.240  14.199  0.1266  0.1239 -0.1272
 2654TIP3    H129377   4.990   0.247  14.149  0.7213  1.6519 -0.9591
 2654TIP3    H229378   5.060   0.162  14.254 -1.2246 -0.6215 -1.4120
 2655TIP3   OH229379   6.335   0.452  10.852  0.2924  0.5625 -0.1203
 2655TIP3    H129380   6.252   0.496  10.833  0.4070  0.3504 -1.1365
 2655TIP3    H229381   6.402   0.517  10.829  0.4437  1.6991  3.0041
 2656TIP3   OH229382   1.016   3.697   4.230 -0.3715 -0.4060 -0.3405
 2656TIP3    H129383   1.057   3.649   4.158 -0.9761  0.6095 -1.4027
 2656TIP3    H229384   1.009   3.632   4.300  2.0437 -0.8950 -0.4632
 2657TIP3   OH229385   5.942   1.452   0.327  0.1041 -0.1098 -0.1377
 2657TIP3    H129386   5.928   1.539   0.364  2.3239  0.7937 -1.2687
 2657TIP3    H229387   5.894   1.393   0.386  2.2253  1.3538  3.4133
 2658TIP3   OH229388   0.512   6.597   5.301 -0.4665 -0.3393  0.0913
 2658TIP3    H129389   0.444   6.647   5.256 -0.0262  0.8120  0.6524
 2658TIP3    H229390   0.530   6.523   5.243 -1.6916 -0.2834 -0.3926
 2659TIP3   OH229391   1.002   6.005   2.725 -0.1552  0.3710  0.8682
 2659TIP3    H129392   1.039   6.093   2.712 -1.2080  0.7139  0.0867
 2659TIP3    H229393   1.062   5.948   2.677 -0.3579  0.8652 -0.0028
 2660TIP3   OH229394   3.056   4.209  14.995 -0.1238 -0.5785 -0.4126
 2660TIP3    H129395   3.150   4.190  14.994 -0.4814 -2.6176 -0.7438
 2660TIP3    H229396   3.038   4.242  15.083  0.9048 -0.1350 -0.3650
 2661TIP3   OH229397   3.734   2.409  14.854 -0.0643 -0.1388  0.4039
 2661TIP3    H129398   3.772   2.488  14.817  0.2003 -0.8029 -0.8053
 2661TIP3    H229399   3.644   2.408  14.821  0.2990 -0.9504 -0.5959
 2662TIP3   OH229400   6.176   3.803  11.018  0.4674 -0.3568  0.3115
 2662TIP3    H129401   6.150   3.792  10.927 -0.4374  0.9320  0.3863
 2662TIP3    H229402   6.263   3.844  11.013 -0.5554  1.9077 -0.0425
 2663TIP3   OH229403   3.478   1.243   3.678 -0.0809  0.2790 -0.0568
 2663TIP3    H129404   3.485   1.209   3.768  1.4452  1.1567  0.1963
 2663TIP3    H229405   3.508   1.170   3.623 -4.2598 -1.5650 -0.2571
 2664TIP3   OH229406   6.369   2.657   3.732  0.3721  0.3269  0.5273
 2664TIP3    H129407   6.287   2.702   3.710  0.3524 -0.5701 -1.5134
 2664TIP3    H229408   6.426   2.725   3.767 -0.2819  1.5749 -0.7395
 2665TIP3   OH229409   6.543   6.362   3.543 -0.0894 -0.2953  0.2583
 2665TIP3    H129410   6.518   6.343   3.634  0.2608 -0.8648  0.2382
 2665TIP3    H229411   6.638   6.349   3.541  0.1343  1.2092  0.1739
 2666TIP3   OH229412   4.728   1.090  14.240  0.6135  0.4453 -0.5151
 2666TIP3    H129413   4.686   1.171  14.270  0.1447  0.0178 -0.0022
 2666TIP3    H229414   4.796   1.120  14.180 -1.0422  1.1412 -2.1532
 2667TIP3   OH229415   4.186   2.767  15.963 -0.2509  0.4068  0.7899
 2667TIP3    H129416   4.194   2.685  16.012  3.6475 -0.4946 -0.9271
 2667TIP3    H229417   4.160   2.741  15.875  0.6252  0.9835  0.3339
 2668TIP3   OH229418   6.823   5.871  15.637  0.1564 -0.1337 -0.6826
 2668TIP3    H129419   6.820   5.944  15.700  0.3176 -1.7656  1.2965
 2668TIP3    H229420   6.915   5.847  15.632  0.0287 -0.5876 -0.8816
 2669TIP3   OH229421   1.711   4.210  12.114  0.2750  0.6035 -0.5231
 2669TIP3    H129422   1.632   4.181  12.159 -1.7763  1.5646 -3.2532
 2669TIP3    H229423   1.780   4.151  12.146 -1.9056 -1.5629  0.4888
 2670TIP3   OH229424   6.071   2.933   2.659 -0.4762  0.3434 -0.1797
 2670TIP3    H129425   6.054   2.853   2.609 -2.6298  1.5086 -1.4215
 2670TIP3    H229426   5.993   2.987   2.647  0.8895  2.6546  0.6271
 2671TIP3   OH229427   2.024   2.141  13.741 -0.0563  0.1800 -0.1067
 2671TIP3    H129428   2.033   2.223  13.692  0.7789 -0.8174 -1.7250
 2671TIP3    H229429   2.079   2.153  13.818 -1.5745  1.8822  0.7786
 2672TIP3   OH229430   6.427   1.172  15.043  0.2700  0.2328  0.4457
 2672TIP3    H129431   6.384   1.088  15.024  0.0458  0.5626 -0.6052
 2672TIP3    H229432   6.513   1.148  15.075  0.4781 -0.4120 -0.5467
 2673TIP3   OH229433   2.772   2.250   3.106 -0.2147  0.0061  0.0471
 2673TIP3    H129434   2.840   2.302   3.148 -0.1600  0.3167 -0.4165
 2673TIP3    H229435   2.739   2.306   3.036 -0.3487 -0.4768 -0.2808
 2674TIP3   OH229436   6.498   5.787   1.428  0.2699  0.2166 -0.2410
 2674TIP3    H129437   6.568   5.835   1.384  0.4823  0.6140  0.4960
 2674TIP3    H229438   6.425   5.849   1.432  0.6733  0.6595  1.0582
 2675TIP3   OH229439   4.625   4.042   1.401 -0.4543  0.2495 -0.3710
 2675TIP3    H129440   4.581   4.102   1.462 -1.6999 -0.8662 -0.1385
 2675TIP3    H229441   4.659   3.972   1.458 -0.5576 -0.1721 -0.8278
 2676TIP3   OH229442   3.269   1.998   5.003  0.4629 -0.3048  0.0187
 2676TIP3    H129443   3.180   2.018   5.029  1.2531  0.3697  2.4713
 2676TIP3    H229444   3.282   2.047   4.922 -1.0822  0.3609  0.1458
 2677TIP3   OH229445   0.933   5.505  15.503 -0.0212 -0.3199  0.0945
 2677TIP3    H129446   1.026   5.530  15.499  0.1482 -1.0432 -1.7417
 2677TIP3    H229447   0.893   5.570  15.561  1.6319 -0.0303  0.9808
 2678TIP3   OH229448   6.689   5.198  10.469  0.3728 -0.6271  0.2082
 2678TIP3    H129449   6.634   5.165  10.397 -0.9644 -0.6110  1.1924
 2678TIP3    H229450   6.766   5.141  10.468  0.3732 -0.6372 -1.2232
 2679TIP3   OH229451   3.843   1.559   5.028  0.2546  0.0832  0.2628
 2679TIP3    H129452   3.750   1.536   5.024  0.0726  0.8642 -0.2225
 2679TIP3    H229453   3.849   1.625   5.097  0.1792  1.1932 -0.7691
 2680TIP3   OH229454   6.182   2.952  10.551  0.1422 -0.0812 -0.3335
 2680TIP3    H129455   6.274   2.966  10.570 -0.0399  1.8211 -0.6294
 2680TIP3    H229456   6.154   3.032  10.505 -1.9245 -0.0259  0.8524
 2681TIP3   OH229457   5.071   2.010   3.692 -0.9172  0.3696  0.7914
 2681TIP3    H129458   5.134   1.942   3.715 -0.3460  0.6534  0.0730
 2681TIP3    H229459   5.055   2.057   3.774 -1.2407 -0.5499  1.2739
 2682TIP3   OH229460   0.119   2.360   0.926  0.0555  0.0360 -0.1466
 2682TIP3    H129461   0.098   2.386   0.836 -0.3269 -0.4981 -0.2135
 2682TIP3    H229462   0.068   2.281   0.941  0.8799 -0.4489  0.1958
 2683TIP3   OH229463   0.066   0.152  10.322  0.3362  0.2353 -0.4351
 2683TIP3    H129464   0.119   0.141  10.243 -0.0961  1.6493 -0.9529
 2683TIP3    H229465  -0.023   0.164  10.290  0.2878  1.7990  0.1764
 2684TIP3   OH229466   6.725   3.178  11.369  0.1019 -0.0751  0.1609
 2684TIP3    H129467   6.727   3.103  11.309 -3.6335  0.5642 -0.9894
 2684TIP3    H229468   6.673   3.148  11.443  1.7611  0.2741  1.5317
 2685TIP3   OH229469   3.560   0.462  14.080  0.5553  0.2114  0.0631
 2685TIP3    H129470   3.578   0.433  14.170 -0.6033 -0.0803  0.2098
 2685TIP3    H229471   3.576   0.385  14.027 -0.4216 -0.0982  0.2132
 2686TIP3   OH229472   6.161   1.331   2.526 -0.0070  0.8255 -1.0274
 2686TIP3    H129473   6.102   1.286   2.586 -2.8593  0.6918 -3.6625
 2686TIP3    H229474   6.223   1.264   2.498 -0.9856 -0.1322 -0.9841
 2687TIP3   OH229475   1.848   4.458   5.854 -0.2499 -0.3002  0.1062
 2687TIP3    H129476   1.829   4.485   5.944 -4.0455 -2.2515  0.1168
 2687TIP3    H229477   1.792   4.514   5.800 -1.0308 -1.7523 -0.6397
 2688TIP3   OH229478   1.413   1.164  12.929  0.3210 -0.1948 -0.0099
 2688TIP3    H129479   1.319   1.160  12.945  0.1260 -1.3936 -1.2980
 2688TIP3    H229480   1.422   1.199  12.841  0.9107 -2.5729 -0.9870
 2689TIP3   OH229481   2.969   0.635  15.236 -0.1794  0.6292  0.4158
 2689TIP3    H129482   3.010   0.559  15.277 -1.0544 -0.7434 -1.1188
 2689TIP3    H229483   3.042   0.684  15.198  0.4033  0.6128  1.4872
 2690TIP3   OH229484   1.115   5.711  11.561 -0.3010  0.0666 -0.0488
 2690TIP3    H129485   1.194   5.693  11.612  0.5077  0.3292 -1.1596
 2690TIP3    H229486   1.100   5.631  11.511 -0.7350  0.0222  0.1527
 2691TIP3   OH229487   3.225   6.188  13.405  0.4271 -0.2718 -0.3920
 2691TIP3    H129488   3.315   6.214  13.424  0.6880 -0.4137 -1.3811
 2691TIP3    H229489   3.232   6.098  13.375 -0.4894 -1.7277  3.2314
 2692TIP3   OH229490   0.080   3.915  13.794  0.2679  0.1134 -0.1378
 2692TIP3    H129491   0.056   3.881  13.881  1.1268 -0.8852 -0.2725
 2692TIP3    H229492   0.035   3.857  13.733 -1.4372  1.6185 -0.4145
 2693TIP3   OH229493   1.906   5.210   1.794 -0.6319 -0.4046  0.0713
 2693TIP3    H129494   1.988   5.165   1.814 -0.3486  0.6768  1.5504
 2693TIP3    H229495   1.922   5.301   1.820 -2.3020 -0.1924  0.4709
 2694TIP3   OH229496   5.485   2.943  14.153 -0.6704  0.2530  0.0337
 2694TIP3    H129497   5.505   2.885  14.079 -0.5532  1.0995 -0.6191
 2694TIP3    H229498   5.405   2.989  14.127 -0.0460  1.3286 -0.0455
 2695TIP3   OH229499   1.217   4.684   4.325  0.1528 -0.1035 -0.0283
 2695TIP3    H129500   1.219   4.596   4.288  2.3984 -0.3848  0.6228
 2695TIP3    H229501   1.197   4.671   4.418 -1.5690  0.2832 -0.3117
 2696TIP3   OH229502   1.278   4.852  14.501  0.4471 -0.7558 -0.3918
 2696TIP3    H129503   1.303   4.940  14.530  1.2788 -1.3336  0.7198
 2696TIP3    H229504   1.207   4.867  14.438  0.6272  0.7077 -0.2857
 2697TIP3   OH229505   6.808   6.153   1.452  0.1484  0.0142  0.0040
 2697TIP3    H129506   6.769   6.080   1.500 -0.4759  0.4008  0.0994
 2697TIP3    H229507   6.800   6.129   1.360 -0.2147  0.0321  0.0283
 2698TIP3   OH229508   0.999   2.356   1.901 -0.4693  0.3796  0.6035
 2698TIP3    H129509   1.051   2.363   1.822 -0.4359 -0.6234  0.5253
 2698TIP3    H229510   1.006   2.442   1.942 -1.6156  1.3739 -1.1643
 2699TIP3   OH229511   6.420   0.623   5.323  0.0128 -0.1704 -0.2193
 2699TIP3    H129512   6.394   0.622   5.231 -2.0371 -0.6854  0.3301
 2699TIP3    H229513   6.374   0.698   5.361 -1.2396 -1.4566  0.9192
 2700TIP3   OH229514   6.823   6.086   1.098 -0.2905 -0.1977  0.2308
 2700TIP3    H129515   6.898   6.032   1.072  0.2803  0.5440  0.3227
 2700TIP3    H229516   6.815   6.151   1.028  0.5276  1.0845  1.2673
 2701TIP3   OH229517   3.188   0.203  12.859 -0.2598 -0.3905 -0.4623
 2701TIP3    H129518   3.137   0.268  12.908  1.5758  1.3342 -0.7078
 2701TIP3    H229519   3.240   0.255  12.798 -0.0782 -2.2636 -2.0146
 2702TIP3   OH229520   6.897   3.583  14.934  0.6549  0.3283 -0.2203
 2702TIP3    H129521   6.827   3.520  14.916  0.5978  0.5769 -0.9182
 2702TIP3    H229522   6.961   3.534  14.985  0.8086 -0.4305 -1.0966
 2703TIP3   OH229523   5.458   0.624   0.714 -0.2949 -0.7655 -0.3816
 2703TIP3    H129524   5.476   0.616   0.808  2.1792  2.3080 -0.4471
 2703TIP3    H229525   5.383   0.683   0.709  1.3657  1.4345 -0.2969
 2704TIP3   OH229526   2.373   1.490   2.396 -0.0610  0.5831 -0.2926
 2704TIP3    H129527   2.465   1.479   2.372  0.1397  0.7475  0.3749
 2704TIP3    H229528   2.349   1.575   2.360 -0.0346  0.4152 -0.7123
 2705TIP3   OH229529   0.058   3.430  16.340  0.1414 -0.0534 -0.3351
 2705TIP3    H129530   0.014   3.443  16.424  0.5516 -1.0055  0.0432
 2705TIP3    H229531   0.150   3.445  16.359  0.2601 -0.4812 -0.5566
 2706TIP3   OH229532   6.122   4.289   4.888 -0.2275 -0.6205  0.2057
 2706TIP3    H129533   6.144   4.329   4.804  0.5475  1.2948  1.2421
 2706TIP3    H229534   6.066   4.353   4.930  0.3972 -0.9744  1.6325
 2707TIP3   OH229535   4.583   6.195   4.767 -0.2096  0.1916  0.0465
 2707TIP3    H129536   4.547   6.107   4.771  0.7256 -0.1818  0.5981
 2707TIP3    H229537   4.623   6.209   4.852  0.4639  0.7876 -0.3537
 2708TIP3   OH229538   1.515   4.755   2.244  0.1296 -0.3963  0.1517
 2708TIP3    H129539   1.467   4.835   2.267  0.7695  0.0361  0.0059
 2708TIP3    H229540   1.607   4.777   2.258  0.3590 -0.9006 -0.4999
 2709TIP3   OH229541   0.680   3.872  15.798 -0.0815  0.0337 -0.8184
 2709TIP3    H129542   0.668   3.940  15.731  1.9284  2.2065  0.8530
 2709TIP3    H229543   0.771   3.843  15.785 -0.2165 -0.7295 -0.0826
 2710TIP3   OH229544   6.270   5.895   0.189 -0.2219 -0.0090 -0.0890
 2710TIP3    H129545   6.322   5.854   0.119 -0.8126  0.9275 -1.1115
 2710TIP3    H229546   6.317   5.874   0.269  1.5234  0.4705 -0.9422
 2711TIP3   OH229547   4.164   5.378   1.034  0.6263 -0.2418  0.6529
 2711TIP3    H129548   4.220   5.354   0.960  0.4739 -1.2459  0.8542
 2711TIP3    H229549   4.112   5.300   1.052  0.4520  0.0834  1.6338
 2712TIP3   OH229550   1.352   1.962  15.095 -0.2929  0.6102  0.0496
 2712TIP3    H129551   1.286   1.910  15.141  1.0023 -2.4736 -1.2701
 2712TIP3    H229552   1.308   2.044  15.073 -4.1164 -1.6666 -1.7011
 2713TIP3   OH229553   1.893   1.010  12.963 -0.0150  0.0492 -0.0173
 2713TIP3    H129554   1.881   0.922  12.998  1.6978 -0.0606  0.4005
 2713TIP3    H229555   1.884   1.068  13.038 -1.7129  0.3262 -0.3861
 2714TIP3   OH229556   0.114   2.225   3.054  0.2569  0.1831 -0.3991
 2714TIP3    H129557   0.175   2.272   3.111  0.5855 -0.5469 -0.1443
 2714TIP3    H229558   0.029   2.267   3.070  0.1650 -0.6042  1.3180
 2715TIP3   OH229559   6.548   6.764  13.786  0.0272  0.0900  0.0407
 2715TIP3    H129560   6.548   6.701  13.858  1.2053  0.0564  0.0271
 2715TIP3    H229561   6.583   6.715  13.712  0.1086  0.5123 -0.2010
 2716TIP3   OH229562   3.485   0.317  11.612 -0.7820 -0.0501  0.3064
 2716TIP3    H129563   3.456   0.336  11.523  0.0454 -0.9571 -0.1871
 2716TIP3    H229564   3.552   0.249  11.601 -1.1418 -0.6644  1.6698
 2717TIP3   OH229565   6.080   5.925   1.536  0.0757  0.4337 -0.3456
 2717TIP3    H129566   6.070   5.903   1.628  1.7272 -0.1301 -0.2614
 2717TIP3    H229567   6.033   5.857   1.489 -1.6442  1.2843  0.0628
 2718TIP3   OH229568   3.244   0.389   3.076 -0.2337  0.4212  0.3200
 2718TIP3    H129569   3.288   0.342   3.146 -0.3724  2.2156  1.7011
 2718TIP3    H229570   3.178   0.442   3.120 -0.4625  1.4766 -1.1847
 2719TIP3   OH229571   2.413   2.241   2.454  0.7451  0.0084 -0.3145
 2719TIP3    H129572   2.365   2.186   2.392 -0.0438 -0.4616  0.6583
 2719TIP3    H229573   2.421   2.326   2.411  0.2383 -0.3129 -1.0614
 2720TIP3   OH229574   6.883   6.860  15.350 -0.0582  0.3555  0.0766
 2720TIP3    H129575   6.822   6.928  15.380  0.6213  0.8167  0.4260
 2720TIP3    H229576   6.968   6.889  15.380  0.1027 -1.2826  1.3214
 2721TIP3   OH229577   6.607   3.426   4.609  0.4064  0.3058  0.2472
 2721TIP3    H129578   6.617   3.331   4.610 -0.3039  0.2009 -0.8634
 2721TIP3    H229579   6.687   3.458   4.568  0.0273  0.0807 -0.6807
 2722TIP3   OH229580   4.355   1.658   5.547  0.5946  0.0827 -0.3998
 2722TIP3    H129581   4.399   1.714   5.483  2.9338 -0.4792  0.6266
 2722TIP3    H229582   4.352   1.572   5.505 -0.3457  0.2979 -0.8024
 2723TIP3   OH229583   3.279   5.044   6.080 -0.9290  1.3732 -0.3549
 2723TIP3    H129584   3.259   5.110   6.013  1.5187  1.7042 -0.8572
 2723TIP3    H229585   3.374   5.032   6.073 -1.2612 -2.1455 -0.2058
 2724TIP3   OH229586   1.823   1.326  15.709  0.0465 -0.1059  0.3962
 2724TIP3    H129587   1.860   1.385  15.643 -0.3748 -0.6392 -0.3322
 2724TIP3    H229588   1.776   1.384  15.769 -1.0398  0.2466 -0.7613
 2725TIP3   OH229589   6.795   0.067   5.526 -0.3416  0.3883  0.7645
 2725TIP3    H129590   6.859   0.061   5.455 -0.7661 -0.1900  0.4194
 2725TIP3    H229591   6.844   0.103   5.600  0.8144 -1.5181  0.9943
 2726TIP3   OH229592   2.820   1.414  11.895  0.2081 -0.1232  0.4419
 2726TIP3    H129593   2.734   1.450  11.920  0.9198  1.7677  0.3099
 2726TIP3    H229594   2.813   1.320  11.915 -2.1182 -0.1530 -0.2278
 2727TIP3   OH229595   6.357   6.778   1.153 -0.6483 -0.1698  0.3320
 2727TIP3    H129596   6.431   6.723   1.124 -1.3522 -1.4299  0.8427
 2727TIP3    H229597   6.305   6.792   1.074 -0.4811 -0.2788  0.2008
 2728TIP3   OH229598   3.885   3.944  15.834  0.2601 -0.3302 -0.2673
 2728TIP3    H129599   3.831   3.878  15.877  0.4474  0.4794  1.2859
 2728TIP3    H229600   3.833   4.025  15.839  0.3884 -0.1567 -1.3901
 2729TIP3   OH229601   3.530   4.910   1.853  0.6111  0.1253  0.4976
 2729TIP3    H129602   3.612   4.929   1.808  0.4911 -0.4330  0.0312
 2729TIP3    H229603   3.486   4.846   1.797 -0.6593  1.2459  0.1691
 2730TIP3   OH229604   0.642   4.556   2.476  0.2467  0.2981 -0.1282
 2730TIP3    H129605   0.647   4.649   2.500  0.1580  0.3242 -0.2125
 2730TIP3    H229606   0.729   4.536   2.442  0.1305  0.4655 -0.5268
 2731TIP3   OH229607   4.119   1.619  14.671 -0.1699 -0.1646 -0.0270
 2731TIP3    H129608   4.101   1.532  14.705 -1.3956  0.1226  0.1038
 2731TIP3    H229609   4.040   1.644  14.623  0.4305  0.5947 -0.6626
 2732TIP3   OH229610   0.313   1.244  10.629  0.0946  0.0317  0.0674
 2732TIP3    H129611   0.391   1.266  10.681  0.2773 -0.9842  0.2617
 2732TIP3    H229612   0.286   1.158  10.664 -1.0591  0.3325 -0.0588
 2733TIP3   OH229613   2.460   4.911   2.439 -0.3232 -0.2796 -0.0585
 2733TIP3    H129614   2.543   4.927   2.393 -0.6318  0.8045 -0.2798
 2733TIP3    H229615   2.393   4.937   2.376 -1.0701 -4.3213 -1.2116
 2734TIP3   OH229616   4.266   4.440  11.552 -0.5223 -0.1185 -0.0229
 2734TIP3    H129617   4.199   4.373  11.567  1.2371 -2.1537 -0.5903
 2734TIP3    H229618   4.307   4.452  11.637 -0.7239  0.0993  0.0424
 2735TIP3   OH229619   5.890   1.757   2.075 -0.3637 -0.6588 -1.1363
 2735TIP3    H129620   5.895   1.701   1.997  2.3885 -1.0087 -0.8110
 2735TIP3    H229621   5.978   1.794   2.083 -0.6809 -0.3087  1.5726
 2736TIP3   OH229622   3.579   0.295  12.203 -0.4961  0.2735 -0.3582
 2736TIP3    H129623   3.524   0.222  12.232  0.0449 -0.0972 -0.2414
 2736TIP3    H229624   3.627   0.321  12.281 -0.1751  0.2959 -0.5607
 2737TIP3   OH229625   3.755   3.593  11.509 -0.3899 -0.8519 -0.1557
 2737TIP3    H129626   3.787   3.568  11.422 -2.1965 -0.5688 -0.9445
 2737TIP3    H229627   3.674   3.542  11.520 -1.2671  0.6237  0.4871
 2738TIP3   OH229628   1.309   2.229  10.940  0.9031  0.2838  0.3153
 2738TIP3    H129629   1.330   2.295  10.873 -1.4272  1.2173  0.3817
 2738TIP3    H229630   1.299   2.148  10.891 -0.7611  0.9551 -0.5425
 2739TIP3   OH229631   1.097   0.656  14.956 -0.1953 -0.3091 -0.2268
 2739TIP3    H129632   1.154   0.727  14.986  0.3513 -0.5323 -0.7243
 2739TIP3    H229633   1.009   0.695  14.955  0.2824  0.8671 -1.9590
 2740TIP3   OH229634   4.704   3.287   4.123  0.8624 -1.0963  0.4636
 2740TIP3    H129635   4.679   3.227   4.192  1.5708 -3.4085 -1.1669
 2740TIP3    H229636   4.674   3.373   4.153 -0.5721 -2.2995  2.6956
 2741TIP3   OH229637   3.701   2.111  11.009  0.6332 -0.2572 -0.0870
 2741TIP3    H129638   3.679   2.181  10.948 -0.7998  0.5237  1.2626
 2741TIP3    H229639   3.626   2.052  11.007 -0.3357  0.7785  2.2604
 2742TIP3   OH229640   3.448   0.552   2.695  0.0790  0.0202 -0.1526
 2742TIP3    H129641   3.456   0.647   2.700  0.2139 -0.0180  0.4360
 2742TIP3    H229642   3.354   0.536   2.692 -0.1040  0.0724  2.5892
 2743TIP3   OH229643   6.386   1.800  15.765 -0.6011  0.2297  0.0664
 2743TIP3    H129644   6.405   1.889  15.736 -4.3455  0.4906 -2.2013
 2743TIP3    H229645   6.371   1.809  15.859  2.6479  1.1437  0.6487
 2744TIP3   OH229646   5.758   6.303   1.466  0.3063 -0.4551  0.4413
 2744TIP3    H129647   5.818   6.287   1.394 -1.1298 -0.3008 -0.8397
 2744TIP3    H229648   5.804   6.270   1.543  2.0758 -0.2042 -0.4518
 2745TIP3   OH229649   3.423   5.588  12.366  0.0609 -0.4538 -0.0381
 2745TIP3    H129650   3.387   5.519  12.421  1.7550 -0.0566  1.6621
 2745TIP3    H229651   3.516   5.567  12.358  0.1656  0.3822 -1.4338
 2746TIP3   OH229652   5.778   5.372  14.133 -0.3086  0.1536 -0.2412
 2746TIP3    H129653   5.689   5.407  14.121  0.0815  0.7886 -1.5381
 2746TIP3    H229654   5.831   5.449  14.155 -0.1752 -0.3174  1.1326
 2747TIP3   OH229655   5.494   1.283   3.135 -0.0841  0.3397  0.0927
 2747TIP3    H129656   5.411   1.269   3.179 -0.6193  0.7821 -0.7463
 2747TIP3    H229657   5.472   1.286   3.042  0.7102  1.5664 -0.0819
 2748TIP3   OH229658   2.457   3.820  12.995  0.6459  0.1685 -0.6705
 2748TIP3    H129659   2.437   3.900  12.947  0.9480 -0.0640 -1.1903
 2748TIP3    H229660   2.401   3.824  13.072 -0.7117 -0.0242 -1.6223
 2749TIP3   OH229661   0.862   6.693  12.036 -0.0223  0.0597  0.2706
 2749TIP3    H129662   0.842   6.664  12.126  0.8660  1.2155  0.8719
 2749TIP3    H229663   0.820   6.778  12.028 -0.2552 -0.1216 -0.4980
 2750TIP3   OH229664   0.960   1.753  13.909 -0.3587  0.6105  0.3249
 2750TIP3    H129665   1.000   1.765  13.823  0.9111  0.1825  0.8405
 2750TIP3    H229666   0.891   1.688  13.893  1.2141 -1.0757 -0.0279
 2751TIP3   OH229667   3.845   0.605  15.048 -0.0483 -0.5281 -0.0122
 2751TIP3    H129668   3.922   0.560  15.083  1.1259  0.7506 -0.8403
 2751TIP3    H229669   3.869   0.628  14.959 -0.7516  1.3204  0.2356
 2752TIP3   OH229670   1.478   2.721  11.333  0.0844  0.3289  0.0501
 2752TIP3    H129671   1.452   2.631  11.353  0.2174  0.4733  0.8985
 2752TIP3    H229672   1.562   2.712  11.287 -0.4682 -0.0300 -0.9280
 2753TIP3   OH229673   0.893   2.672   1.941  0.6924 -0.1605 -0.1442
 2753TIP3    H129674   0.850   2.683   2.026 -1.5127  0.4230 -1.2585
 2753TIP3    H229675   0.824   2.688   1.877  2.9632  2.8733 -2.1430
 2754TIP3   OH229676   2.587   4.893  15.118  0.2855  0.8459 -0.4017
 2754TIP3    H129677   2.665   4.894  15.173  2.0227  4.3250 -2.6428
 2754TIP3    H229678   2.518   4.930  15.173  0.8493  0.3033  0.7035
 2755TIP3   OH229679   4.099   3.124  12.190  0.0663  1.1537  0.4657
 2755TIP3    H129680   4.020   3.124  12.137  1.1822  1.0216 -1.2787
 2755TIP3    H229681   4.142   3.207  12.170  1.3412  0.3729 -0.1867
 2756TIP3   OH229682   2.788   0.804  15.583 -0.1567  0.5625  0.2629
 2756TIP3    H129683   2.874   0.836  15.608 -0.2265 -0.1909  1.5612
 2756TIP3    H229684   2.764   0.743  15.653 -0.9644 -0.5998 -0.9795
 2757TIP3   OH229685   6.612   3.435   1.548 -0.4888  0.2180  0.2083
 2757TIP3    H129686   6.590   3.396   1.464  0.2587 -0.8716  0.4914
 2757TIP3    H229687   6.537   3.416   1.604 -0.4135 -0.2329  0.1564
 2758TIP3   OH229688   2.628   0.852   1.830  0.4750 -0.0374 -0.1140
 2758TIP3    H129689   2.683   0.823   1.902 -0.7465 -0.8568  0.5293
 2758TIP3    H229690   2.569   0.778   1.814 -1.8318  1.5219  0.6313
 2759TIP3   OH229691   2.514   5.076  12.325 -0.8519 -0.0380  0.4193
 2759TIP3    H129692   2.506   5.003  12.386 -0.6427 -0.5817 -0.2015
 2759TIP3    H229693   2.553   5.146  12.377  0.9661 -1.0459  0.4916
 2760TIP3   OH229694   4.717   0.933   3.818 -0.2651  0.3304  0.3003
 2760TIP3    H129695   4.801   0.894   3.842 -1.1137 -0.7566  1.6807
 2760TIP3    H229696   4.697   0.992   3.891 -1.2176 -0.3056  0.5708
 2761TIP3   OH229697   1.914   3.118  14.578 -0.1177 -0.5245  0.5606
 2761TIP3    H129698   1.984   3.056  14.601  0.3781 -0.5074 -0.8072
 2761TIP3    H229699   1.889   3.158  14.662  1.2660 -0.7954  1.1346
 2762TIP3   OH229700   2.076   5.103  13.505  0.1619 -0.1324  0.4362
 2762TIP3    H129701   2.123   5.140  13.580  3.0356 -0.6767 -0.9614
 2762TIP3    H229702   2.143   5.092  13.437 -2.3637  0.6638 -2.3943
 2763TIP3   OH229703   5.375   3.508   4.966  0.3130  0.5006  0.1776
 2763TIP3    H129704   5.455   3.455   4.965 -0.8227 -1.3057 -1.1272
 2763TIP3    H229705   5.310   3.451   5.007 -1.6052 -0.2452 -3.5259
 2764TIP3   OH229706   1.705   0.063   2.246  0.0170 -0.0027 -0.0932
 2764TIP3    H129707   1.734   0.065   2.155 -3.2013 -1.8162 -1.3225
 2764TIP3    H229708   1.669   0.150   2.262 -1.4030 -0.3179 -1.3594
 2765TIP3   OH229709   3.065   4.486   9.903  0.6180  0.0546 -0.0045
 2765TIP3    H129710   3.130   4.531   9.850  1.2215  0.1864  0.8209
 2765TIP3    H229711   3.111   4.465   9.984  0.3338 -1.9786 -0.3154
 2766TIP3   OH229712   5.229   4.535   0.522  0.9844  0.8353  0.2667
 2766TIP3    H129713   5.266   4.618   0.492  2.0831 -0.4784 -2.2276
 2766TIP3    H229714   5.297   4.471   0.506 -0.0191 -0.6731  1.6992
 2767TIP3   OH229715   0.475   4.903  12.831  0.2221  0.0480 -0.2822
 2767TIP3    H129716   0.471   4.812  12.801  2.7086 -0.2263  0.0023
 2767TIP3    H229717   0.487   4.896  12.926 -2.9828  0.8153  0.2924
 2768TIP3   OH229718   6.708   2.861  16.407 -0.1647 -0.2417  0.1236
 2768TIP3    H129719   6.776   2.797  16.429  1.0409  0.7965 -0.4863
 2768TIP3    H229720   6.697   2.913  16.487 -0.7015 -0.7770  0.4152
 2769TIP3   OH229721   3.985   5.892   1.346  0.3874 -0.0882  0.3619
 2769TIP3    H129722   4.077   5.868   1.336  0.7816  1.8859 -1.3742
 2769TIP3    H229723   3.987   5.975   1.394 -0.5369 -0.2541  0.7169
 2770TIP3   OH229724   1.179   2.077   4.802 -0.0236  0.6399  0.2903
 2770TIP3    H129725   1.225   2.136   4.742 -0.1190  1.9564  1.4495
 2770TIP3    H229726   1.096   2.058   4.758  1.3815 -1.5057 -1.6841
 2771TIP3   OH229727   3.167   6.812  13.774 -0.2846  0.4739  0.4584
 2771TIP3    H129728   3.181   6.826  13.867 -0.3876  2.0334  0.2596
 2771TIP3    H229729   3.255   6.801  13.738 -0.2675 -0.5745  0.7816
 2772TIP3   OH229730   0.236   4.651  16.418 -0.2466  0.4001 -0.0219
 2772TIP3    H129731   0.158   4.619  16.373 -2.8437  1.8012  3.0591
 2772TIP3    H229732   0.248   4.740  16.386  1.1350 -0.2937 -1.5935
 2773TIP3   OH229733   4.035   4.532   0.285  0.0415 -0.1266 -0.0572
 2773TIP3    H129734   4.005   4.556   0.373 -0.3812 -2.4942  0.5039
 2773TIP3    H229735   3.999   4.601   0.229 -1.3477  0.3951  1.3834
 2774TIP3   OH229736   2.601   2.483  12.214 -0.0861  0.5772  0.5229
 2774TIP3    H129737   2.659   2.559  12.206 -0.2620  1.0829  3.0937
 2774TIP3    H229738   2.515   2.515  12.187  0.1061  0.9170  0.3123
 2775TIP3   OH229739   0.437   6.562   1.035  0.6921 -0.0453 -0.1312
 2775TIP3    H129740   0.379   6.626   1.077  1.8469  1.2973 -0.5048
 2775TIP3    H229741   0.420   6.480   1.081 -1.3114  0.3478 -0.0753
 2776TIP3   OH229742   0.273   4.319   3.985 -0.2382  0.3826  0.0999
 2776TIP3    H129743   0.226   4.310   3.902 -0.3489  1.0623  0.0816
 2776TIP3    H229744   0.205   4.312   4.052 -0.1631 -0.0652  0.1285
 2777TIP3   OH229745   0.793   0.264   1.537  0.1661  0.3576  0.2161
 2777TIP3    H129746   0.759   0.285   1.450 -1.2238  0.8649  0.8671
 2777TIP3    H229747   0.851   0.338   1.558 -1.3897  1.4781  0.7144
 2778TIP3   OH229748   3.046   2.353   5.693 -0.0463  0.0493 -0.1152
 2778TIP3    H129749   3.043   2.257   5.694  0.9079  0.0133  0.4216
 2778TIP3    H229750   2.966   2.379   5.739 -0.9677 -0.4529 -1.3750
 2779TIP3   OH229751   4.146   3.633   0.485  0.2589  0.0383  0.3550
 2779TIP3    H129752   4.232   3.673   0.499  0.4243 -0.3200  0.3518
 2779TIP3    H229753   4.089   3.676   0.550  0.8474 -1.0673  1.6504
 2780TIP3   OH229754   3.627   2.952   5.407  0.1280 -0.5732 -0.4825
 2780TIP3    H129755   3.701   2.909   5.450 -0.2358 -0.9553 -0.2314
 2780TIP3    H229756   3.654   2.959   5.315  0.8012  0.0167 -0.2513
 2781TIP3   OH229757   4.409   0.840  13.345 -0.1273 -0.2090 -0.1225
 2781TIP3    H129758   4.399   0.888  13.428  1.5337  1.9543 -1.0737
 2781TIP3    H229759   4.500   0.811  13.345  0.6724  1.9974 -2.1748
 2782TIP3   OH229760   0.788   6.478  13.637  0.5112 -0.1195 -0.4178
 2782TIP3    H129761   0.792   6.445  13.727  1.8996 -1.4478 -0.9247
 2782TIP3    H229762   0.743   6.562  13.644 -0.2339 -0.6208  1.3866
 2783TIP3   OH229763   4.278   0.955  12.204 -0.6239 -0.4412  0.2211
 2783TIP3    H129764   4.260   0.863  12.185 -1.3227  0.0763 -1.8451
 2783TIP3    H229765   4.351   0.978  12.146 -1.1406  0.5601 -0.0576
 2784TIP3   OH229766   1.733   3.042   0.924 -0.0967 -0.0377  0.3977
 2784TIP3    H129767   1.685   3.087   0.993 -0.4677 -0.3962  0.3774
 2784TIP3    H229768   1.741   2.952   0.955  1.1313  0.1562  0.6975
 2785TIP3   OH229769   2.618   6.608   2.897 -0.2724 -0.0894 -0.4227
 2785TIP3    H129770   2.646   6.693   2.930 -2.6652  0.1894  1.1453
 2785TIP3    H229771   2.557   6.629   2.826 -0.3525 -0.5115 -0.4830
 2786TIP3   OH229772   1.283   2.209  14.202  0.2276 -0.0947 -0.4202
 2786TIP3    H129773   1.264   2.126  14.157  0.2705 -0.1132 -0.4036
 2786TIP3    H229774   1.371   2.197  14.237 -0.3532 -0.6247  0.9117
 2787TIP3   OH229775   2.992   4.459  10.262  0.1951 -0.1331  0.7046
 2787TIP3    H129776   3.044   4.458  10.182 -0.9148 -0.6908 -0.0407
 2787TIP3    H229777   2.923   4.523  10.245 -0.4607 -0.7596  0.9301
 2788TIP3   OH229778   1.345   6.090   2.229 -0.1818  0.3104  0.4492
 2788TIP3    H129779   1.408   6.061   2.295 -0.7877 -0.6836  0.6165
 2788TIP3    H229780   1.308   6.170   2.265 -2.1795 -1.3838  2.5307
 2789TIP3   OH229781   0.693   4.147  15.891  0.0280  0.1281 -0.1678
 2789TIP3    H129782   0.787   4.141  15.907 -0.3026 -0.8884  1.8412
 2789TIP3    H229783   0.659   4.062  15.921 -1.6989  1.1143  0.8359
 2790TIP3   OH229784   2.372   2.304   4.270  0.1407  0.4355  0.0705
 2790TIP3    H129785   2.448   2.260   4.233 -0.3760 -0.6297  0.2283
 2790TIP3    H229786   2.297   2.266   4.223 -0.3145  1.1833  0.1772
 2791TIP3   OH229787   6.302   4.648   5.761  0.5044 -0.0019  0.5462
 2791TIP3    H129788   6.319   4.732   5.720 -1.9273  0.3482  0.0811
 2791TIP3    H229789   6.331   4.659   5.851 -1.9578  2.2504  1.1803
 2792TIP3   OH229790   0.828   3.385   6.434 -0.1182  0.2747 -0.0235
 2792TIP3    H129791   0.866   3.473   6.435 -0.4985  0.5361  3.3840
 2792TIP3    H229792   0.769   3.383   6.510 -0.2610 -2.8741 -0.0799
 2793TIP3   OH229793   2.166   1.435  15.731  0.1746 -0.3297 -0.0487
 2793TIP3    H129794   2.166   1.530  15.724  0.4978 -0.2905  0.4293
 2793TIP3    H229795   2.154   1.404  15.641  2.7315  0.1524 -0.6449
 2794TIP3   OH229796   0.489   0.920  16.204 -0.1618  0.1618 -0.4362
 2794TIP3    H129797   0.416   0.868  16.238 -0.2394  1.2761  1.1749
 2794TIP3    H229798   0.452   0.968  16.131 -0.6766 -0.3165 -0.4984
 2795TIP3   OH229799   4.163   3.661  14.532  0.1031  0.7235 -0.0491
 2795TIP3    H129800   4.113   3.714  14.470 -0.1694  0.5270  0.0020
 2795TIP3    H229801   4.154   3.708  14.615  1.4217  1.6200 -0.3730
 2796TIP3   OH229802   6.090   1.383   1.418  0.0461 -0.2102  0.2579
 2796TIP3    H129803   5.996   1.381   1.400  0.0560  0.6416  0.0803
 2796TIP3    H229804   6.097   1.374   1.513 -0.3412  2.0374  0.5429
 2797TIP3   OH229805   0.940   3.238  14.647  0.1633 -0.7727 -0.2850
 2797TIP3    H129806   1.032   3.215  14.638 -0.0481 -1.4882 -0.6674
 2797TIP3    H229807   0.939   3.307  14.714  0.8273 -1.7488  0.7668
 2798TIP3   OH229808   4.231   4.894  13.296 -0.5005 -0.1187  0.0643
 2798TIP3    H129809   4.233   4.963  13.229 -0.4675 -1.5908 -1.4988
 2798TIP3    H229810   4.148   4.908  13.342 -0.4708  0.9872 -0.1810
 2799TIP3   OH229811   4.520   5.499  10.776 -0.1345  0.2237  0.5280
 2799TIP3    H129812   4.536   5.408  10.800 -0.9596 -0.2630 -0.6328
 2799TIP3    H229813   4.604   5.530  10.743 -0.3040 -0.7480 -0.9073
 2800TIP3   OH229814   2.973   4.764   0.737 -0.1248 -0.0725 -0.6679
 2800TIP3    H129815   2.983   4.854   0.769 -1.0253  0.1566 -1.0024
 2800TIP3    H229816   2.884   4.760   0.703  0.0545 -0.9670 -1.0730
 2801TIP3   OH229817   4.139   1.501  15.004 -0.4969  0.4395 -0.1843
 2801TIP3    H129818   4.176   1.525  15.089  1.4371 -0.2360 -0.7988
 2801TIP3    H229819   4.125   1.585  14.960 -0.6856  0.7533  0.4522
 2802TIP3   OH229820   6.519   3.045   4.009  0.5849 -0.5108  0.4850
 2802TIP3    H129821   6.568   2.988   4.067  0.1905 -0.6070  0.7246
 2802TIP3    H229822   6.581   3.115   3.987  1.2964 -1.3708 -0.3485
 2803TIP3   OH229823   6.577   5.332   1.211  0.6693 -0.0114  0.6642
 2803TIP3    H129824   6.553   5.386   1.286  0.5879  0.6212  0.1923
 2803TIP3    H229825   6.505   5.270   1.201  0.6161 -0.0054  1.0240
 2804TIP3   OH229826   2.941   4.629   2.679  0.7576  0.2357  0.0637
 2804TIP3    H129827   2.945   4.723   2.661  0.3850  0.2791  0.2048
 2804TIP3    H229828   2.850   4.613   2.706  0.1624 -0.5749 -2.2221
 2805TIP3   OH229829   5.312   0.832  14.908  0.3048  0.2687 -0.1518
 2805TIP3    H129830   5.237   0.861  14.857  0.6717  2.5491  0.4764
 2805TIP3    H229831   5.387   0.842  14.849  0.3780  0.2222 -0.0682
 2806TIP3   OH229832   0.978   5.137  15.373  0.3219 -0.1234 -0.0919
 2806TIP3    H129833   1.022   5.221  15.388  0.3278  0.5582 -3.2569
 2806TIP3    H229834   1.048   5.072  15.373  0.3383 -0.1677  2.1904
 2807TIP3   OH229835   3.172   0.660   2.386  0.0939 -0.2795  0.5798
 2807TIP3    H129836   3.248   0.683   2.333 -0.5356  0.6718  0.0498
 2807TIP3    H229837   3.102   0.645   2.322 -0.5605  0.4273  1.1101
 2808TIP3   OH229838   1.805   4.453  12.567  0.0485  0.0799 -0.5032
 2808TIP3    H129839   1.716   4.451  12.602  0.8129 -0.1657  1.5348
 2808TIP3    H229840   1.831   4.545  12.570  0.8889 -0.1626  1.8091
 2809TIP3   OH229841   2.149   2.758   0.635 -0.3288  0.8287  0.5481
 2809TIP3    H129842   2.067   2.755   0.586  0.3716  2.9661 -0.8851
 2809TIP3    H229843   2.163   2.667   0.663 -2.2021  0.0627 -0.7572
 2810TIP3   OH229844   6.546   3.911   3.199  0.5594 -0.3504  0.6080
 2810TIP3    H129845   6.542   3.988   3.255  0.3065 -0.7115  1.1016
 2810TIP3    H229846   6.639   3.897   3.183  0.5923  0.1904  0.3287
 2811TIP3   OH229847   3.872   5.812  10.939 -0.0302  0.3080  0.0665
 2811TIP3    H129848   3.797   5.758  10.915 -0.7150  0.0948  2.4056
 2811TIP3    H229849   3.834   5.884  10.990  1.1442  1.4754 -0.6589
 2812TIP3   OH229850   3.501   1.463  13.564  0.6143  0.6652 -0.5934
 2812TIP3    H129851   3.588   1.439  13.531  0.9454  2.2954 -1.0325
 2812TIP3    H229852   3.445   1.389  13.543  1.8840 -0.3857 -0.3756
 2813TIP3   OH229853   0.638   4.073   5.246  0.3867  0.6547 -0.3519
 2813TIP3    H129854   0.717   4.074   5.301 -0.5734  0.2591  1.0836
 2813TIP3    H229855   0.667   4.035   5.163  1.5732 -0.0824  0.3764
 2814TIP3   OH229856   3.241   6.197  10.511 -0.5583 -0.4754  0.4612
 2814TIP3    H129857   3.188   6.277  10.511 -1.7746 -1.1870  2.4782
 2814TIP3    H229858   3.288   6.200  10.594  0.2843 -1.3045  0.0241
 2815TIP3   OH229859   4.508   3.736  16.178  0.1642  0.3322 -0.0608
 2815TIP3    H129860   4.490   3.763  16.088  0.0182  0.6288  0.0540
 2815TIP3    H229861   4.568   3.662  16.170 -0.5329 -0.2013 -0.4386
 2816TIP3   OH229862   6.584   5.981  14.536 -0.4181  0.4593 -0.1397
 2816TIP3    H129863   6.589   5.900  14.587 -1.7563  0.4424  0.0026
 2816TIP3    H229864   6.638   6.043  14.585 -1.8028  0.4972  1.4612
 2817TIP3   OH229865   3.852   5.859  14.663  0.2160 -0.1655  0.2374
 2817TIP3    H129866   3.857   5.764  14.668 -1.2593 -0.3305 -0.8791
 2817TIP3    H229867   3.823   5.878  14.574  0.1433  1.3153  0.5378
 2818TIP3   OH229868   0.593   3.227   1.331  0.0355 -0.5531  0.4198
 2818TIP3    H129869   0.574   3.275   1.251  1.0639 -3.0092 -1.4312
 2818TIP3    H229870   0.559   3.139   1.316 -0.1361 -1.0023  2.8917
 2819TIP3   OH229871   2.159   0.431   3.390 -0.3714  0.1740  0.4212
 2819TIP3    H129872   2.221   0.445   3.319  0.7042 -0.0423  1.2940
 2819TIP3    H229873   2.073   0.438   3.348  0.1480 -3.2232 -1.6183
 2820TIP3   OH229874   6.847   1.001  14.578 -0.3458  0.5432 -0.4780
 2820TIP3    H129875   6.940   1.023  14.586 -0.2625  0.1679 -0.3647
 2820TIP3    H229876   6.812   1.011  14.666 -0.1304 -0.5323 -0.2591
 2821TIP3   OH229877   3.369   5.488   3.708  0.3383 -0.5849 -0.0904
 2821TIP3    H129878   3.290   5.448   3.743  1.1057 -0.4553  1.9291
 2821TIP3    H229879   3.338   5.566   3.661 -0.6858  0.1420  1.6899
 2822TIP3   OH229880   3.123   4.516   1.399 -0.1119 -0.7048 -0.2816
 2822TIP3    H129881   3.030   4.496   1.413 -0.1680  0.4706  1.3301
 2822TIP3    H229882   3.149   4.563   1.478  1.1645  1.4408 -1.9008
 2823TIP3   OH229883   6.156   4.508   0.938  0.2221 -0.2147 -0.0251
 2823TIP3    H129884   6.148   4.413   0.935 -0.7230 -0.1887  0.9519
 2823TIP3    H229885   6.081   4.537   0.990  0.3080  1.0928 -0.5854
 2824TIP3   OH229886   4.575   0.483   3.952  0.3283 -0.1956 -0.5145
 2824TIP3    H129887   4.604   0.495   3.862 -0.8403 -1.2034 -1.0517
 2824TIP3    H229888   4.575   0.389   3.966  1.0827 -0.0283  0.7575
 2825TIP3   OH229889   6.199   2.026  14.431  0.0401  0.0010 -0.4396
 2825TIP3    H129890   6.165   1.969  14.500 -0.0228  1.2225  0.5774
 2825TIP3    H229891   6.202   1.970  14.353 -0.8858 -1.1194  0.2904
 2826TIP3   OH229892   6.274   5.845   1.941  0.2457  0.1123  0.2399
 2826TIP3    H129893   6.240   5.805   1.861  2.2491  0.8174 -1.0580
 2826TIP3    H229894   6.337   5.782   1.974 -2.7172 -1.6136  3.1368
 2827TIP3   OH229895   4.047   2.842  12.193 -0.8957  0.5313 -0.4982
 2827TIP3    H129896   4.107   2.915  12.177 -0.4861  0.5117  0.8077
 2827TIP3    H229897   4.096   2.764  12.165  0.0268  0.4382  1.2094
 2828TIP3   OH229898   5.757   0.569  11.552 -0.0129  0.2997 -0.1032
 2828TIP3    H129899   5.798   0.569  11.465  1.1509 -0.3911  0.4251
 2828TIP3    H229900   5.829   0.556  11.613 -0.7867  1.0151  1.0034
 2829TIP3   OH229901   3.661   2.108   3.002 -0.4942  0.3824 -0.4370
 2829TIP3    H129902   3.599   2.035   3.001 -0.9269  0.7473 -0.4063
 2829TIP3    H229903   3.740   2.071   3.041 -1.6362  0.6493  2.3515
 2830TIP3   OH229904   5.079   6.892   0.016 -0.0779 -1.0107  0.1048
 2830TIP3    H129905   5.168   6.906  -0.017 -0.5709 -0.9338 -1.2523
 2830TIP3    H229906   5.088   6.900   0.111  1.2675 -0.4669 -0.0330
 2831TIP3   OH229907   2.471   3.127  15.893 -0.4145 -0.3009 -0.3196
 2831TIP3    H129908   2.403   3.066  15.864 -0.8075 -0.0717  0.0872
 2831TIP3    H229909   2.479   3.190  15.822 -1.7338  0.5554  0.2493
 2832TIP3   OH229910   2.909   5.760  15.431 -0.0405  0.0081 -0.3302
 2832TIP3    H129911   2.945   5.676  15.402 -0.7898 -0.1187 -0.9211
 2832TIP3    H229912   2.981   5.822  15.423  0.3900 -0.4860 -0.3175
 2833TIP3   OH229913   1.677   3.730  11.830  0.1407 -0.1524  0.1659
 2833TIP3    H129914   1.706   3.817  11.858  0.4680  0.1164 -0.9773
 2833TIP3    H229915   1.583   3.729  11.847  0.0480  0.6076 -0.2992
 2834TIP3   OH229916   5.969   2.135   5.077  0.1956 -0.5213  0.4462
 2834TIP3    H129917   6.012   2.063   5.031 -0.6632 -1.0871  0.5297
 2834TIP3    H229918   5.876   2.112   5.078 -0.4029  1.5068 -1.2547
 2835TIP3   OH229919   1.640   6.152   1.032 -0.0346 -0.3053 -0.2574
 2835TIP3    H129920   1.601   6.239   1.021 -0.2500 -0.4092 -0.3308
 2835TIP3    H229921   1.616   6.104   0.953  0.1508 -0.4068 -0.2525
 2836TIP3   OH229922   1.776   5.249   5.575  0.2224  0.5680  0.9839
 2836TIP3    H129923   1.741   5.249   5.486  1.0550  1.3885  0.6346
 2836TIP3    H229924   1.712   5.200   5.626  0.2873 -0.9302 -0.2766
 2837TIP3   OH229925   5.782   0.126   4.876 -0.1447  0.2727  0.5760
 2837TIP3    H129926   5.852   0.085   4.927 -0.2787 -1.2757 -0.4187
 2837TIP3    H229927   5.781   0.077   4.794 -1.9377  0.7370  0.2911
 2838TIP3   OH229928   4.116   6.721  13.993  0.5704  0.2889  0.6420
 2838TIP3    H129929   4.117   6.627  13.979 -0.1426  0.1269  1.5827
 2838TIP3    H229930   4.204   6.750  13.969  0.6198 -0.5248 -0.1910
 2839TIP3   OH229931   3.107   5.197   1.173  0.1101 -0.2517  0.2329
 2839TIP3    H129932   3.162   5.271   1.148  0.6134  0.0881  2.2079
 2839TIP3    H229933   3.025   5.212   1.126  0.5208  1.0660 -0.1065
 2840TIP3   OH229934   5.829   4.911  13.735 -0.3673 -0.0404 -0.0179
 2840TIP3    H129935   5.781   4.899  13.654 -2.8879 -0.1332  1.3796
 2840TIP3    H229936   5.855   4.822  13.761  1.1019  0.0634 -1.0476
 2841TIP3   OH229937   1.895   2.033   1.793  0.1178 -0.1191 -0.2892
 2841TIP3    H129938   1.953   1.957   1.788 -0.0915 -0.2660 -0.5420
 2841TIP3    H229939   1.834   2.012   1.863 -0.7476 -0.7653 -1.2050
 2842TIP3   OH229940   5.283   1.199   4.212 -0.4543 -0.1345 -0.5205
 2842TIP3    H129941   5.349   1.229   4.274  1.0813 -3.0621 -0.6214
 2842TIP3    H229942   5.313   1.232   4.127  0.5747 -0.9147 -0.4762
 2843TIP3   OH229943   6.100   5.738   0.036  0.7004  0.4617  0.5005
 2843TIP3    H129944   6.149   5.708  -0.041 -0.6740 -0.7992  0.0721
 2843TIP3    H229945   6.167   5.776   0.093  2.2618 -1.5298  0.1258
 2844TIP3   OH229946   5.337   6.765  15.379  0.2581 -0.3774 -0.3017
 2844TIP3    H129947   5.365   6.856  15.388  1.2005 -0.8236  1.8455
 2844TIP3    H229948   5.261   6.757  15.436  0.6135 -1.1081  0.0799
 2845TIP3   OH229949   3.731   0.885  13.064 -0.0385 -0.2033 -0.4402
 2845TIP3    H129950   3.779   0.967  13.073 -0.1638 -0.3183  1.7440
 2845TIP3    H229951   3.651   0.909  13.016 -1.2775  1.5286  2.2731
 2846TIP3   OH229952   5.522   6.449  10.737 -0.0399 -0.3511  0.3525
 2846TIP3    H129953   5.534   6.453  10.642  0.3990  1.5394  0.4499
 2846TIP3    H229954   5.460   6.519  10.757  1.9489  1.1383  1.7232
 2847TIP3   OH229955   0.672   6.588   1.742  0.0891 -0.2947 -0.1164
 2847TIP3    H129956   0.598   6.612   1.799 -0.7010 -0.2637 -1.1340
 2847TIP3    H229957   0.749   6.613   1.793 -0.5643 -0.8720  1.2254
 2848TIP3   OH229958   4.908   3.521   3.873 -0.3711 -0.0724  0.4229
 2848TIP3    H129959   4.962   3.567   3.809 -0.7428  1.6170  1.2559
 2848TIP3    H229960   4.819   3.527   3.838 -0.2486 -1.4076 -0.1451
 2849TIP3   OH229961   3.579   4.777   1.097  0.5953 -0.1118 -0.3086
 2849TIP3    H129962   3.604   4.857   1.050  1.4660 -0.3023 -0.1898
 2849TIP3    H229963   3.610   4.706   1.042  1.2861 -0.3405  0.3560
 2850TIP3   OH229964   4.842   5.980  11.763 -0.2436 -0.0939  0.0588
 2850TIP3    H129965   4.934   5.981  11.788 -0.2807 -1.6265  0.3453
 2850TIP3    H229966   4.842   5.953  11.671 -0.4057  0.1355 -0.0119
 2851TIP3   OH229967   4.743   6.048  14.223  0.8702  0.0642 -0.3201
 2851TIP3    H129968   4.710   5.960  14.202 -1.3888  0.7378  0.1667
 2851TIP3    H229969   4.765   6.044  14.316  0.8584 -0.0140 -0.3211
 2852TIP3   OH229970   6.067   4.281  16.102  0.2053 -0.4892 -0.3697
 2852TIP3    H129971   6.022   4.311  16.181  1.0441  0.7740 -0.3362
 2852TIP3    H229972   6.136   4.224  16.134 -1.3423 -2.4736 -0.4232
 2853TIP3   OH229973   3.476   0.941  13.655 -0.0089 -0.3117 -0.2449
 2853TIP3    H129974   3.516   0.979  13.734  0.1745 -0.3085 -0.3395
 2853TIP3    H229975   3.391   0.908  13.685 -0.1419  0.1121 -0.1454
 2854TIP3   OH229976   0.141   5.222  11.302 -0.2048 -0.3012  0.4223
 2854TIP3    H129977   0.069   5.177  11.346  0.0843 -0.4872  0.7031
 2854TIP3    H229978   0.200   5.152  11.275 -0.9405 -0.3146 -1.3163
 2855TIP3   OH229979   1.785   0.756   1.918  0.0709 -0.4676  0.4766
 2855TIP3    H129980   1.700   0.760   1.960  0.3508 -0.4409  1.0459
 2855TIP3    H229981   1.848   0.766   1.989  0.5420  0.1181 -0.0061
 2856TIP3   OH229982   4.739   1.514   2.481 -0.4511  0.1328  0.5855
 2856TIP3    H129983   4.785   1.437   2.447 -1.3554  0.1604 -0.7523
 2856TIP3    H229984   4.684   1.480   2.552 -2.0983 -0.7900 -1.0622
 2857TIP3   OH229985   1.022   4.796   4.892  0.6552  0.4959  0.3035
 2857TIP3    H129986   0.968   4.794   4.813 -1.4330  2.0161  1.6000
 2857TIP3    H229987   0.959   4.800   4.964  2.5041  0.1078  2.0328
 2858TIP3   OH229988   6.746   0.385  14.547 -0.1985  0.2115  0.5162
 2858TIP3    H129989   6.704   0.332  14.479  0.4226  0.7861 -0.3295
 2858TIP3    H229990   6.778   0.321  14.611  0.0077 -0.4002 -0.1861
 2859TIP3   OH229991   1.393   0.523   2.757 -0.2161 -0.9357 -0.1938
 2859TIP3    H129992   1.320   0.584   2.747 -0.8883 -1.9641 -2.3150
 2859TIP3    H229993   1.389   0.495   2.848 -0.4086  1.4881  0.6121
 2860TIP3   OH229994   6.055   2.385  11.016  0.4484  0.0506 -0.8093
 2860TIP3    H129995   5.967   2.376  10.980 -0.2042  3.0085 -0.2113
 2860TIP3    H229996   6.041   2.392  11.111  1.3373  0.3311 -0.6870
 2861TIP3   OH229997   1.573   2.258  11.498  0.3859 -0.2944 -0.3654
 2861TIP3    H129998   1.612   2.187  11.549 -0.2087 -1.2025 -1.1385
 2861TIP3    H229999   1.620   2.255  11.414  1.1604  0.9973 -0.0080
 2862TIP3   OH230000   3.184   6.846  15.739  0.2626  0.3305  0.2436
 2862TIP3    H130001   3.233   6.836  15.821 -0.5839 -2.6665  0.4935
 2862TIP3    H230002   3.095   6.868  15.767  0.4209  1.4079 -0.0279
 2863TIP3   OH230003   4.808   1.052  12.991  0.0094 -1.0136 -0.4625
 2863TIP3    H130004   4.837   1.109  13.062  1.1896 -0.0786 -1.6463
 2863TIP3    H230005   4.822   1.104  12.912  0.8238 -2.8242 -1.5602
 2864TIP3   OH230006   6.348   2.571  15.345 -0.1403 -0.1825 -0.4377
 2864TIP3    H130007   6.277   2.603  15.401 -0.8922  0.6430 -1.8050
 2864TIP3    H230008   6.304   2.516  15.280  0.0807  2.0098 -2.6049
 2865TIP3   OH230009   3.696   6.587  15.250 -0.3884 -0.1377  0.2653
 2865TIP3    H130010   3.718   6.612  15.160 -1.1519 -1.2192 -0.2483
 2865TIP3    H230011   3.602   6.571  15.248 -0.3873 -0.3281  1.2307
 2866TIP3   OH230012   1.899   1.388   5.352  0.1243  0.1534  0.4317
 2866TIP3    H130013   1.893   1.323   5.283 -3.1609  0.6577  0.0723
 2866TIP3    H230014   1.954   1.458   5.316 -0.9997  0.1116 -1.4389
 2867TIP3   OH230015   1.315   2.588   5.715 -0.4897  0.0088  0.3294
 2867TIP3    H130016   1.390   2.528   5.711 -0.0254  0.6465 -1.7203
 2867TIP3    H230017   1.284   2.582   5.805  0.6340 -1.9684  0.6369
 2868TIP3   OH230018   3.163   0.063  11.657  0.5316 -0.4523 -0.1715
 2868TIP3    H130019   3.078   0.071  11.701 -0.7269  0.7387 -2.6044
 2868TIP3    H230020   3.215   0.135  11.693 -0.0986 -0.1237  0.1095
 2869TIP3   OH230021   0.586   2.191  11.645  0.4567 -0.6357  0.3650
 2869TIP3    H130022   0.547   2.159  11.727  1.5696 -1.4920  0.5787
 2869TIP3    H230023   0.626   2.275  11.669 -0.4907 -0.1563  0.3357
 2870TIP3   OH230024   4.805   5.272   3.312 -0.2439 -0.0733  0.2107
 2870TIP3    H130025   4.888   5.229   3.290 -0.8942 -1.3184  0.1223
 2870TIP3    H230026   4.788   5.247   3.403  0.2585  1.5033  0.7755
 2871TIP3   OH230027   6.331   2.367   4.906  0.1586  0.6106 -0.3650
 2871TIP3    H130028   6.258   2.307   4.895  0.8124 -0.1338 -0.7799
 2871TIP3    H230029   6.305   2.425   4.978 -0.3293 -0.4103  0.2898
 2872TIP3   OH230030   4.291   0.008   2.719  0.0688  0.0541  0.3558
 2872TIP3    H130031   4.347   0.007   2.641 -0.6443  0.6067 -0.1769
 2872TIP3    H230032   4.267   0.100   2.730 -1.4750 -0.2817  0.0165
 2873TIP3   OH230033   5.143   1.412  15.646  0.7064 -0.4269  0.5186
 2873TIP3    H130034   5.051   1.439  15.653  0.8258  0.4438 -0.9175
 2873TIP3    H230035   5.171   1.401  15.737 -0.6508 -0.1495  1.0051
 2874TIP3   OH230036   5.826   3.502  11.261 -0.2140 -0.3061 -0.0562
 2874TIP3    H130037   5.886   3.535  11.327 -0.4944  1.1111 -0.4747
 2874TIP3    H230038   5.882   3.457  11.197  0.2421 -0.2056  0.2695
 2875TIP3   OH230039   1.336   6.586  15.393  0.2266  0.0736  0.3328
 2875TIP3    H130040   1.243   6.592  15.415  0.4450  1.5684  0.9703
 2875TIP3    H230041   1.347   6.496  15.363 -1.7555  0.3082 -1.3216
 2876TIP3   OH230042   2.508   1.687  12.014  0.5528  0.3394 -0.2777
 2876TIP3    H130043   2.439   1.693  11.947  0.5000  1.2212 -0.1552
 2876TIP3    H230044   2.464   1.651  12.091  0.1481  1.1792 -0.1062
 2877TIP3   OH230045   4.190   6.615  15.969  0.5733  0.1464 -0.0158
 2877TIP3    H130046   4.215   6.642  15.880  0.8936 -1.1853 -0.3461
 2877TIP3    H230047   4.125   6.546  15.956 -0.4645  0.9325  0.8217
 2878TIP3   OH230048   1.534   4.976  10.542  0.3214  0.0892 -0.0364
 2878TIP3    H130049   1.441   4.959  10.559  0.4940 -0.9120 -0.0375
 2878TIP3    H230050   1.551   5.060  10.585 -0.6402  0.4167 -0.2602
 2879TIP3   OH230051   2.230   3.422  10.235  0.1993  0.2972  0.0903
 2879TIP3    H130052   2.322   3.423  10.208  0.0309  1.0555 -0.4808
 2879TIP3    H230053   2.231   3.461  10.323  0.4502  0.0670  0.1922
 2880TIP3   OH230054   0.882   2.254  11.725 -0.4549 -0.5721 -0.1988
 2880TIP3    H130055   0.898   2.159  11.725 -0.0411 -0.5349  1.2068
 2880TIP3    H230056   0.862   2.274  11.816  0.7781  0.8950 -0.2063
 2881TIP3   OH230057   1.784   1.844   5.334 -0.5789  0.5821  0.5326
 2881TIP3    H130058   1.727   1.906   5.379 -2.1608 -0.4274  0.0377
 2881TIP3    H230059   1.748   1.758   5.357 -0.5720 -0.0140 -1.4489
 2882TIP3   OH230060   3.381   3.246  12.554  0.2102  0.2532  0.2866
 2882TIP3    H130061   3.396   3.198  12.635 -2.3856 -1.5439 -0.1613
 2882TIP3    H230062   3.422   3.331  12.568  0.3103 -0.1907  3.2749
 2883TIP3   OH230063   4.681   1.529   0.864 -0.1222 -0.1328  0.4502
 2883TIP3    H130064   4.759   1.549   0.812 -1.3857  0.1793 -1.4081
 2883TIP3    H230065   4.638   1.614   0.877 -1.5405 -0.5925 -0.9106
 2884TIP3   OH230066   3.284   3.384   0.386 -0.1578  0.2939 -0.4229
 2884TIP3    H130067   3.252   3.341   0.466  1.2938  0.4136  0.2501
 2884TIP3    H230068   3.302   3.474   0.412  0.5674  0.2702 -0.8178
 2885TIP3   OH230069   5.404   1.937  12.665 -0.2433 -0.0653  0.0677
 2885TIP3    H130070   5.365   2.023  12.676 -0.1989 -0.1007  0.5264
 2885TIP3    H230071   5.490   1.954  12.627 -0.9237 -0.0261 -1.5384
 2886TIP3   OH230072   6.712   6.086   0.788 -0.4938 -0.1835 -0.0120
 2886TIP3    H130073   6.801   6.120   0.776  0.4384 -2.2897  0.3583
 2886TIP3    H230074   6.655   6.162   0.779  1.2781  1.0763 -1.1791
 2887TIP3   OH230075   5.403   1.401  10.900 -0.0522 -0.2334  0.1338
 2887TIP3    H130076   5.479   1.460  10.895 -0.9244  0.9783  0.7273
 2887TIP3    H230077   5.360   1.424  10.982 -0.8238 -1.2110  0.0241
 2888TIP3   OH230078   3.608   5.966   4.762 -0.2128 -0.3560 -0.1619
 2888TIP3    H130079   3.537   5.908   4.792  1.6755 -2.1883  1.0839
 2888TIP3    H230080   3.610   5.954   4.667  0.5579 -3.0247  0.0906
 2889TIP3   OH230081   0.143   4.443   1.912 -0.0340  0.4161  0.2963
 2889TIP3    H130082   0.159   4.365   1.965  0.3648  0.0364 -0.3599
 2889TIP3    H230083   0.130   4.513   1.975  3.1860  0.5742  0.9819
 2890TIP3   OH230084   1.993   1.220   9.922  0.4254  0.3573  0.6090
 2890TIP3    H130085   2.049   1.183   9.853 -0.4268  0.8486 -0.3694
 2890TIP3    H230086   2.047   1.290   9.960  0.8492  0.1880  0.3345
 2891TIP3   OH230087   0.850   4.181  10.956 -0.0725 -0.3590 -0.0586
 2891TIP3    H130088   0.908   4.255  10.942 -1.1524  0.5002 -0.1886
 2891TIP3    H230089   0.867   4.153  11.046 -0.2806  0.6387  0.3066
 2892TIP3   OH230090   0.368   3.640  10.136  0.4006 -0.1540  0.2315
 2892TIP3    H130091   0.430   3.702  10.098  1.1996 -0.1814  1.4320
 2892TIP3    H230092   0.285   3.687  10.137  0.1134 -0.4711 -2.3364
 2893TIP3   OH230093   0.523   6.794  12.834 -0.3102  0.3511  0.0151
 2893TIP3    H130094   0.448   6.794  12.775 -1.2039  0.0435  1.1058
 2893TIP3    H230095   0.567   6.711  12.817 -0.3713  0.4125 -0.4454
 2894TIP3   OH230096   5.782   1.633   5.046  0.0859 -0.0415 -0.5290
 2894TIP3    H130097   5.804   1.545   5.017  2.0124  0.7700 -1.7366
 2894TIP3    H230098   5.777   1.684   4.965 -0.6539  1.0248  0.1675
 2895TIP3   OH230099   6.646   5.809   5.985  0.3208 -0.1780  0.7823
 2895TIP3    H130100   6.716   5.744   5.985  0.2564 -0.2469  0.7373
 2895TIP3    H230101   6.574   5.767   6.032  1.3434  1.0058  3.6335
 2896TIP3   OH230102   0.593   2.897   5.051 -0.3749 -0.0127  0.2399
 2896TIP3    H130103   0.519   2.843   5.024 -1.5711 -0.1564  3.4416
 2896TIP3    H230104   0.645   2.907   4.971 -2.0730 -2.6914 -1.3705
 2897TIP3   OH230105   2.332   6.578  13.000  0.0504  0.0524  0.2221
 2897TIP3    H130106   2.366   6.534  13.078 -1.2836  0.1983  0.9112
 2897TIP3    H230107   2.239   6.556  12.998  0.1618 -0.4405 -1.6780
 2898TIP3   OH230108   4.227   6.836   6.003  0.7388 -0.4457 -0.1768
 2898TIP3    H130109   4.210   6.774   6.074  0.7825  1.0973  1.2626
 2898TIP3    H230110   4.150   6.893   6.003  1.1095  0.0654 -0.8450
 2899TIP3   OH230111   3.358   1.943   5.257 -0.5166 -0.5194  0.6473
 2899TIP3    H130112   3.330   1.998   5.183 -1.7807 -2.6636 -0.5483
 2899TIP3    H230113   3.309   1.977   5.332 -1.7304 -0.3626 -0.1827
 2900TIP3   OH230114   2.938   2.993  14.846  0.1724  0.5668 -0.0838
 2900TIP3    H130115   2.936   2.967  14.938  1.5861 -2.0870 -0.7032
 2900TIP3    H230116   3.030   3.007  14.826 -0.2135  2.4169 -0.8281
 2901TIP3   OH230117   6.046   0.813   0.968  0.2084  0.1759  0.2454
 2901TIP3    H130118   6.057   0.720   0.988 -0.2770 -0.1418 -0.9065
 2901TIP3    H230119   6.131   0.841   0.934  0.0225 -0.1306 -0.4765
 2902TIP3   OH230120   0.231   1.894   0.460 -0.6218 -0.1522  0.3096
 2902TIP3    H130121   0.303   1.949   0.491 -1.7454 -0.4782  3.9775
 2902TIP3    H230122   0.194   1.942   0.387  1.0379  1.8274  0.6683
 2903TIP3   OH230123   4.321   5.833  13.516 -0.2464  0.2035  0.1019
 2903TIP3    H130124   4.251   5.771  13.538  0.0976 -0.4546 -0.6025
 2903TIP3    H230125   4.402   5.784  13.533  0.0335 -0.2047 -2.1496
 2904TIP3   OH230126   4.593   2.429   5.967  0.4478 -0.2149 -0.5482
 2904TIP3    H130127   4.515   2.459   5.920  0.6794 -1.5126 -1.8354
 2904TIP3    H230128   4.560   2.362   6.027  0.6173 -1.0264 -1.3574
 2905TIP3   OH230129   6.113   0.108   3.323  0.1352  0.3351 -0.4591
 2905TIP3    H130130   6.041   0.104   3.261  0.5317 -0.3502 -0.8746
 2905TIP3    H230131   6.072   0.096   3.409 -0.3378  0.7326 -0.6281
 2906TIP3   OH230132   1.105   5.068  13.569 -0.1165 -0.0606  0.7301
 2906TIP3    H130133   1.150   4.988  13.542 -0.4766 -0.4042  1.1555
 2906TIP3    H230134   1.017   5.061  13.531 -0.8833 -0.8949  2.5650
 2907TIP3   OH230135   0.319   6.287  13.558 -0.4362  0.1820 -0.6229
 2907TIP3    H130136   0.378   6.342  13.609  1.4808 -0.1771 -2.3391
 2907TIP3    H230137   0.319   6.326  13.471 -0.9573 -1.1553 -1.2510
 2908TIP3   OH230138   6.646   3.451  12.396 -0.5623  0.1683  0.5272
 2908TIP3    H130139   6.584   3.456  12.470  0.5686 -0.1782  1.5252
 2908TIP3    H230140   6.676   3.360  12.395 -1.3464 -0.1094 -1.0529
 2909TIP3   OH230141   2.455   0.819   1.220 -0.2831 -0.1252 -0.1394
 2909TIP3    H130142   2.469   0.731   1.186 -0.8573  0.3936 -1.8511
 2909TIP3    H230143   2.503   0.876   1.158  0.6355  0.7265  1.3011
 2910TIP3   OH230144   0.717   5.197  15.354  0.1638  0.1750 -0.0665
 2910TIP3    H130145   0.809   5.199  15.381 -0.3797 -0.4315  1.9642
 2910TIP3    H230146   0.716   5.138  15.278  1.0721 -2.2946  1.6959
 2911TIP3   OH230147   3.074   5.641  11.436  0.7995 -0.9747  0.1232
 2911TIP3    H130148   3.157   5.690  11.436  0.9384 -1.1074 -1.9844
 2911TIP3    H230149   3.009   5.706  11.410  0.6032 -1.3805 -0.4038
 2912TIP3   OH230150   1.525   0.623   5.035 -0.1421  0.2275  0.1982
 2912TIP3    H130151   1.545   0.716   5.028  0.7190  0.2052  1.9224
 2912TIP3    H230152   1.605   0.579   5.006  0.0797  0.0644  1.0269
 2913TIP3   OH230153   0.602   6.475   0.039  0.2134 -0.5989 -0.1941
 2913TIP3    H130154   0.548   6.396   0.034 -0.4306 -0.1171 -1.3059
 2913TIP3    H230155   0.541   6.544   0.067  0.3862 -0.1804 -0.8184
 2914TIP3   OH230156   6.405   1.498  12.106 -0.8941 -0.3068 -0.0658
 2914TIP3    H130157   6.481   1.441  12.116  0.4095  1.3802  0.0020
 2914TIP3    H230158   6.355   1.485  12.187  0.9843  0.8752  1.3575
 2915TIP3   OH230159   4.737   2.151  13.921 -0.0899 -0.0675  0.1895
 2915TIP3    H130160   4.774   2.063  13.926  3.0484  1.2249  3.0592
 2915TIP3    H230161   4.673   2.154  13.992  0.1058  0.1181  0.3558
 2916TIP3   OH230162   1.745   0.280  10.747 -0.2766  0.8343  0.1418
 2916TIP3    H130163   1.800   0.337  10.693 -1.2696  0.4327 -1.3753
 2916TIP3    H230164   1.673   0.254  10.688  0.3912 -2.3763  0.5749
 2917TIP3   OH230165   0.762   4.709  13.998  0.0708  0.2988  0.4999
 2917TIP3    H130166   0.853   4.710  14.027 -0.0983 -1.7471  1.2615
 2917TIP3    H230167   0.711   4.717  14.078 -0.3901 -1.5840  0.4461
 2918TIP3   OH230168   3.282   2.278  13.371  0.1172  0.5686  0.2065
 2918TIP3    H130169   3.339   2.347  13.338  0.2347  0.0301 -0.7227
 2918TIP3    H230170   3.194   2.306  13.346  0.1445  0.4910  0.0230
 2919TIP3   OH230171   4.519   2.871   1.119 -0.9918 -0.0384  0.8092
 2919TIP3    H130172   4.543   2.907   1.034 -1.0946 -2.8111 -0.4968
 2919TIP3    H230173   4.525   2.945   1.179 -1.9437  2.2678 -1.7565
 2920TIP3   OH230174   0.886   5.128  11.398  0.0238 -0.0951  0.1224
 2920TIP3    H130175   0.924   5.194  11.456 -0.0195  0.3029 -0.2938
 2920TIP3    H230176   0.883   5.048  11.451  1.2811 -0.1042  0.2293
 2921TIP3   OH230177   5.487   3.149  11.878 -0.5684 -0.0932 -0.1327
 2921TIP3    H130178   5.565   3.203  11.892 -1.1819  0.3679  1.8372
 2921TIP3    H230179   5.486   3.089  11.952 -1.5622 -0.7537 -0.6566
 2922TIP3   OH230180   2.471   5.933  10.603  0.0631  0.0190  0.3333
 2922TIP3    H130181   2.555   5.954  10.562 -0.5234  0.6802 -0.5687
 2922TIP3    H230182   2.448   6.012  10.651 -1.1660  0.7551 -1.3805
 2923TIP3   OH230183   1.776   6.418   0.758  0.1692 -0.1516  0.3306
 2923TIP3    H130184   1.835   6.365   0.812 -0.5147 -0.0969  1.1436
 2923TIP3    H230185   1.780   6.378   0.672  1.9901  0.2996  0.1558
 2924TIP3   OH230186   0.121   2.333  16.654  0.4314 -0.1588  0.2759
 2924TIP3    H130187   0.077   2.398  16.708 -0.7164 -0.1803 -0.5821
 2924TIP3    H230188   0.183   2.290  16.713 -0.2911  0.2813  1.3842
 2925TIP3   OH230189   6.821   6.491   3.838 -0.0156 -0.1738 -0.1593
 2925TIP3    H130190   6.822   6.548   3.762  1.7784 -0.4687 -0.4054
 2925TIP3    H230191   6.885   6.530   3.898 -0.5981 -0.5472  0.7222
 2926TIP3   OH230192   4.690   3.892  14.319 -0.0900  0.3053  0.2837
 2926TIP3    H130193   4.675   3.810  14.273  2.1955 -0.2037  0.3379
 2926TIP3    H230194   4.628   3.891  14.392 -1.0134 -0.7252 -0.4896
 2927TIP3   OH230195   2.738   3.057   1.333  1.1507  0.6006 -1.0077
 2927TIP3    H130196   2.765   3.121   1.267  1.5363 -0.6124 -2.0608
 2927TIP3    H230197   2.775   2.974   1.303 -1.6841 -0.7095 -1.2723
 2928TIP3   OH230198   4.392   1.527  13.298  0.0641  0.3518 -0.3906
 2928TIP3    H130199   4.476   1.484  13.314  0.2400  1.3129  1.5751
 2928TIP3    H230200   4.386   1.533  13.203  2.0314 -0.1119 -0.5903
 2929TIP3   OH230201   4.354   3.037  13.628 -0.5621 -0.2974  1.0882
 2929TIP3    H130202   4.427   3.062  13.572 -0.8495  0.7330  1.1600
 2929TIP3    H230203   4.292   2.995  13.569 -0.6899  0.4274  0.6960
 2930TIP3   OH230204   1.147   6.851   0.581  0.6205 -0.3405  0.4685
 2930TIP3    H130205   1.232   6.815   0.604  0.7342 -0.5056 -0.1917
 2930TIP3    H230206   1.161   6.946   0.576  0.5729 -0.2922  1.1466
 2931TIP3   OH230207   5.904   2.635  10.226  0.4423 -0.4711  0.2745
 2931TIP3    H130208   5.917   2.603  10.137  0.5154 -0.3092  0.2269
 2931TIP3    H230209   5.989   2.622  10.268  0.1370 -1.4918  0.6183
 2932TIP3   OH230210   0.949   0.636  14.365 -0.7538 -0.2531  0.3350
 2932TIP3    H130211   0.936   0.730  14.349 -3.2891 -0.5673  0.1016
 2932TIP3    H230212   0.971   0.600  14.279  0.1646  0.0994  0.4120
 2933TIP3   OH230213   2.096   2.555   4.897  0.0799 -0.8317 -0.0363
 2933TIP3    H130214   2.111   2.633   4.843  1.4562 -1.0709 -0.0312
 2933TIP3    H230215   2.077   2.590   4.984 -1.3925 -0.4644 -0.4821
 2934TIP3   OH230216   4.215   3.413   3.643  0.1594  0.0164 -0.5959
 2934TIP3    H130217   4.123   3.387   3.643  0.5540 -1.6549  1.3839
 2934TIP3    H230218   4.256   3.356   3.709  2.2292  2.0392  0.0012
 2935TIP3   OH230219   4.259   1.039  16.602 -0.5035 -0.0441  0.4721
 2935TIP3    H130220   4.234   1.116  16.550 -0.8181 -1.5197 -1.7065
 2935TIP3    H230221   4.352   1.026  16.583 -0.6270 -0.6128  0.2255
 2936TIP3   OH230222   6.839   3.018   2.583 -0.4638  0.1935  0.0143
 2936TIP3    H130223   6.907   3.041   2.645  0.4436  0.7032 -1.1196
 2936TIP3    H230224   6.884   2.966   2.516 -1.6599 -1.4091  0.4061
 2937TIP3   OH230225   0.129   2.077  10.472 -0.3470  0.0352  0.3818
 2937TIP3    H130226   0.075   2.155  10.489 -0.8693 -0.1445 -0.4141
 2937TIP3    H230227   0.082   2.030  10.403  1.4292  0.5016 -1.2354
 2938TIP3   OH230228   5.310   2.720   2.066 -0.0055  0.1631  0.4527
 2938TIP3    H130229   5.334   2.658   2.134 -1.1145  0.3344  1.0055
 2938TIP3    H230230   5.219   2.700   2.044  0.0142  0.7664 -0.2641
 2939TIP3   OH230231   1.244   0.543  14.510 -0.6463 -0.2344 -0.2212
 2939TIP3    H130232   1.255   0.623  14.458 -1.8882 -0.2412 -0.5244
 2939TIP3    H230233   1.320   0.541  14.568 -1.4199  2.0718  0.9999
 2940TIP3   OH230234   5.813   6.154   5.026 -0.3160  0.2887 -0.0746
 2940TIP3    H130235   5.747   6.212   5.064 -0.0846  0.4323  0.1067
 2940TIP3    H230236   5.808   6.171   4.931 -1.9162 -1.1279 -0.2910
 2941TIP3   OH230237   3.459   2.237   1.496 -0.2018  0.7723  0.0699
 2941TIP3    H130238   3.538   2.204   1.537  0.4197  0.7277 -1.1065
 2941TIP3    H230239   3.488   2.267   1.410 -1.5781  0.0770 -0.6775
 2942TIP3   OH230240   0.432   2.742   1.584 -0.2184  0.4690  0.5877
 2942TIP3    H130241   0.411   2.747   1.491  2.1319 -3.8305 -0.4224
 2942TIP3    H230242   0.484   2.820   1.601  0.5861  0.6350 -2.1480
 2943TIP3   OH230243   1.248   5.921   4.222  0.7731  0.3029 -0.0990
 2943TIP3    H130244   1.216   6.009   4.238  1.0470  0.2539  0.8108
 2943TIP3    H230245   1.171   5.871   4.194  0.8252  1.0737 -1.7274
 2944TIP3   OH230246   3.504   5.829  15.776  0.4542 -0.6097 -0.0014
 2944TIP3    H130247   3.512   5.861  15.686 -0.4496 -0.8695 -0.1793
 2944TIP3    H230248   3.554   5.893  15.827  0.1949  0.0792 -0.5756
 2945TIP3   OH230249   6.486   1.369   3.979  0.1528 -0.1503 -0.0513
 2945TIP3    H130250   6.407   1.330   3.941  0.5230 -0.6961 -0.2645
 2945TIP3    H230251   6.454   1.420   4.054 -0.4371 -0.1024 -0.3289
 2946TIP3   OH230252   1.538   4.320  11.412 -0.0191  0.1987  1.0501
 2946TIP3    H130253   1.528   4.279  11.498 -0.4809 -1.0477  0.4256
 2946TIP3    H230254   1.483   4.268  11.354  0.5502  0.8077 -0.0732
 2947TIP3   OH230255   3.264   6.458  12.398 -0.8435  0.1995 -0.5234
 2947TIP3    H130256   3.245   6.419  12.483  2.1401 -1.1829 -0.3520
 2947TIP3    H230257   3.231   6.394  12.335  1.1035 -1.1467 -0.2679
 2948TIP3   OH230258   4.578   3.689  14.099 -0.3532 -0.0174  0.5320
 2948TIP3    H130259   4.598   3.600  14.129  0.4822 -0.0124  0.0250
 2948TIP3    H230260   4.486   3.686  14.074 -0.0092 -1.1174 -0.7229
 2949TIP3   OH230261   5.010   0.647  16.406  0.0254 -0.0675  0.4501
 2949TIP3    H130262   5.080   0.709  16.388 -0.1163  0.2430  0.9553
 2949TIP3    H230263   5.010   0.588  16.330  1.0181 -0.2546  0.5912
 2950TIP3   OH230264   2.986   3.129   1.806  0.0507  0.7938  0.4070
 2950TIP3    H130265   2.966   3.047   1.851 -0.4917  1.6510  1.7963
 2950TIP3    H230266   2.929   3.128   1.729 -2.4715  1.2941  2.1267
 2951TIP3   OH230267   5.927   1.489   3.437  0.0535  0.0213  0.5058
 2951TIP3    H130268   6.005   1.437   3.455  0.7412  0.7351 -0.3158
 2951TIP3    H230269   5.946   1.574   3.478 -0.8750 -0.2186  1.4703
 2952TIP3   OH230270   4.588   2.767  13.211  0.3324 -0.6360  0.0464
 2952TIP3    H130271   4.634   2.794  13.291 -1.6743 -0.2116  1.1231
 2952TIP3    H230272   4.562   2.676  13.228 -1.0898 -0.1867  0.3953
 2953TIP3   OH230273   2.412   1.562   4.122 -0.2879 -0.0602 -0.6359
 2953TIP3    H130274   2.343   1.547   4.187  1.5093 -1.6684  1.0380
 2953TIP3    H230275   2.371   1.540   4.039 -1.2191 -3.3299  0.5231
 2954TIP3   OH230276   2.252   6.737  14.216  0.0882 -0.7638  0.3505
 2954TIP3    H130277   2.255   6.796  14.291  0.9581  0.2852 -0.4885
 2954TIP3    H230278   2.318   6.771  14.156 -1.3788 -0.8888 -1.4007
 2955TIP3   OH230279   4.721   1.085   0.040 -0.9592 -0.3531 -0.7662
 2955TIP3    H130280   4.789   1.091  -0.027 -0.3225 -2.1016 -0.3309
 2955TIP3    H230281   4.732   1.165   0.092  0.5434 -0.4049 -0.9475
 2956TIP3   OH230282   4.208   4.150  13.232 -0.1256  0.0081  0.4598
 2956TIP3    H130283   4.293   4.167  13.273 -1.1715  1.8070  2.0537
 2956TIP3    H230284   4.171   4.078  13.283 -0.1738  0.2263  0.7342
 2957TIP3   OH230285   5.831   4.452   2.447 -0.4421  0.1205  0.0546
 2957TIP3    H130286   5.922   4.423   2.451 -0.6961 -0.7556 -0.3765
 2957TIP3    H230287   5.794   4.424   2.530 -0.1495  1.0989  0.5293
 2958TIP3   OH230288   5.585   3.336   0.365 -0.0308  0.3057  0.1525
 2958TIP3    H130289   5.617   3.350   0.276 -1.5338 -0.3898 -0.5347
 2958TIP3    H230290   5.499   3.297   0.354 -0.1488 -0.0408  1.9284
 2959TIP3   OH230291   5.793   3.235  15.725  0.6549  0.0696  1.1967
 2959TIP3    H130292   5.853   3.263  15.794  1.0705 -0.3978  1.0221
 2959TIP3    H230293   5.795   3.140  15.727  3.5972 -0.1011 -1.9320
 2960TIP3   OH230294   3.844   1.367  10.792  0.4312  0.1540 -0.5242
 2960TIP3    H130295   3.876   1.374  10.882  2.8311 -0.6115 -1.2420
 2960TIP3    H230296   3.826   1.274  10.779  0.6422  0.1757 -1.0096
 2961TIP3   OH230297   6.850   1.606   1.725  0.1151  0.4930 -0.2940
 2961TIP3    H130298   6.896   1.581   1.804  0.4785 -0.5033 -0.8065
 2961TIP3    H230299   6.760   1.625   1.754  0.4077  0.7725  0.4369
 2962TIP3   OH230300   0.322   1.196   0.430  0.0655 -0.3717 -0.1847
 2962TIP3    H130301   0.303   1.119   0.376 -2.6761 -1.6040  2.2327
 2962TIP3    H230302   0.273   1.267   0.388  0.6167 -0.5207 -1.0899
 2963TIP3   OH230303   2.361   5.257  11.475  0.3757 -0.3250  0.0061
 2963TIP3    H130304   2.340   5.182  11.532  0.5311 -0.2274  0.1890
 2963TIP3    H230305   2.327   5.333  11.523 -0.3557 -0.3412 -0.4693
 2964TIP3   OH230306   5.876   3.935  16.605  0.1898  0.2409  0.1164
 2964TIP3    H130307   5.882   3.990  16.683  0.0851 -0.3073  0.5225
 2964TIP3    H230308   5.786   3.948  16.573  0.4326  0.9578 -0.2922
 2965TIP3   OH230309   3.825   5.704   0.639 -0.7559 -0.1743  0.1571
 2965TIP3    H130310   3.790   5.704   0.729 -0.7215  2.5718  0.2630
 2965TIP3    H230311   3.747   5.715   0.584 -0.6276 -0.3398 -0.0577
 2966TIP3   OH230312   0.287   1.675   1.892  0.2658 -0.1170 -0.4208
 2966TIP3    H130313   0.374   1.659   1.928 -0.1027 -0.7531  0.2243
 2966TIP3    H230314   0.239   1.594   1.910 -0.9009  0.7569  0.5937
 2967TIP3   OH230315   0.501   0.970  16.639  0.2772 -0.0521  0.0548
 2967TIP3    H130316   0.434   1.034  16.662 -1.2143 -1.7418  0.7277
 2967TIP3    H230317   0.463   0.886  16.665  2.5085 -1.1368  0.0447
 2968TIP3   OH230318   5.656   1.785   5.265  0.1659 -0.2366 -0.0130
 2968TIP3    H130319   5.729   1.768   5.324 -0.2772 -0.3066  0.5289
 2968TIP3    H230320   5.691   1.771   5.177  1.1725  1.0538  0.1561
 2969TIP3   OH230321   6.111   1.572  10.905  0.0586  0.2034  0.7329
 2969TIP3    H130322   6.048   1.531  10.846 -0.4920  0.0390  1.4108
 2969TIP3    H230323   6.083   1.544  10.993  1.4252 -0.3589  1.0187
 2970TIP3   OH230324   0.946   0.065  12.159 -0.0591  0.1399 -0.4380
 2970TIP3    H130325   0.878   0.065  12.227  0.6827  3.3417  0.5201
 2970TIP3    H230326   0.900   0.091  12.079 -0.5603 -1.5129 -0.7207
 2971TIP3   OH230327   3.073   2.806   4.590  0.1353 -0.1784  0.3632
 2971TIP3    H130328   3.014   2.858   4.645 -1.0149 -1.9233  0.8858
 2971TIP3    H230329   3.019   2.733   4.560  1.2845 -0.3092 -1.5367
 2972TIP3   OH230330   1.512   0.414  12.905 -0.2496  0.0693 -0.2153
 2972TIP3    H130331   1.585   0.390  12.961  0.0991  1.9431  0.1968
 2972TIP3    H230332   1.552   0.444  12.824 -0.6326 -0.0928 -0.4693
 2973TIP3   OH230333   6.832   3.455  10.698 -0.2909 -0.1287 -0.5119
 2973TIP3    H130334   6.834   3.405  10.780 -0.4076  0.2717 -0.2645
 2973TIP3    H230335   6.897   3.524  10.710 -1.1652  0.6734 -0.2726
 2974TIP3   OH230336   4.711   6.614   1.532 -0.4086 -0.5271  0.6053
 2974TIP3    H130337   4.626   6.614   1.487  0.0840 -0.4246 -0.3651
 2974TIP3    H230338   4.716   6.530   1.576 -1.4256 -0.1442  1.4964
 2975TIP3   OH230339   1.850   2.843   1.667 -0.2515 -0.4948 -0.0658
 2975TIP3    H130340   1.916   2.885   1.612 -0.2013  0.1786  0.5005
 2975TIP3    H230341   1.768   2.884   1.642 -0.6850 -2.1941 -1.6523
 2976TIP3   OH230342   5.510   4.346  16.250 -0.6544  0.0961  0.3789
 2976TIP3    H130343   5.570   4.284  16.292  0.1277  0.7745  0.2894
 2976TIP3    H230344   5.463   4.293  16.185  0.4589 -0.2915 -0.1355
 2977TIP3   OH230345   0.359   5.326   2.834  0.3856 -0.5466 -0.4610
 2977TIP3    H130346   0.287   5.269   2.861  1.5698 -2.3080 -0.8595
 2977TIP3    H230347   0.435   5.293   2.882  0.3992  3.6393  2.9944
 2978TIP3   OH230348   0.076   1.839  15.017 -0.3348  0.3295 -0.1678
 2978TIP3    H130349   0.061   1.850  15.111 -0.4303 -0.8580 -0.0252
 2978TIP3    H230350   0.047   1.922  14.978 -0.6783  0.6803  0.8070
 2979TIP3   OH230351   2.682   6.762   5.743  0.5716 -0.5498  0.0131
 2979TIP3    H130352   2.642   6.773   5.656 -0.8791 -0.7310  0.6288
 2979TIP3    H230353   2.720   6.674   5.741  0.6168 -0.5228 -0.4664
 2980TIP3   OH230354   6.585   0.622   3.090  0.1699  0.2282  0.1423
 2980TIP3    H130355   6.494   0.597   3.072  0.5356 -0.8699 -0.2471
 2980TIP3    H230356   6.629   0.615   3.005  1.5684 -3.4833  0.9894
 2981TIP3   OH230357   3.663   2.787  13.882  0.0974 -0.1289 -0.0369
 2981TIP3    H130358   3.659   2.696  13.853 -1.6141  0.5618 -2.2735
 2981TIP3    H230359   3.625   2.786  13.970  0.5430 -1.6068  0.1703
 2982TIP3   OH230360   0.638   0.242   0.689  0.0836 -0.0437  0.0228
 2982TIP3    H130361   0.587   0.233   0.608  0.9849 -0.5474 -0.5037
 2982TIP3    H230362   0.687   0.160   0.696 -1.0487 -0.6243  1.8568
 2983TIP3   OH230363   5.943   0.288   4.014 -0.7072  0.0274  0.1420
 2983TIP3    H130364   5.887   0.356   3.975 -0.4257  0.5880  0.6934
 2983TIP3    H230365   6.027   0.299   3.971 -1.5911 -2.4023 -2.4954
 2984TIP3   OH230366   1.227   3.498  15.664 -0.2923 -0.3345 -0.2371
 2984TIP3    H130367   1.190   3.413  15.690  2.1605 -0.7546  2.3445
 2984TIP3    H230368   1.261   3.535  15.746  2.5360  1.1494 -1.9268
 2985TIP3   OH230369   3.690   2.755  16.139  0.2197 -0.3052 -0.5219
 2985TIP3    H130370   3.737   2.727  16.061  0.9235  1.6766 -0.8799
 2985TIP3    H230371   3.752   2.743  16.211  1.2658  1.9928 -0.9476
 2986TIP3   OH230372   4.412   5.183  14.787 -0.2338  0.6542  0.3341
 2986TIP3    H130373   4.385   5.092  14.801  1.8400  0.1602  1.5729
 2986TIP3    H230374   4.500   5.177  14.749 -0.2103  2.1376  0.0773
 2987TIP3   OH230375   6.722   2.509   5.028 -0.7051  0.3515 -0.7080
 2987TIP3    H130376   6.665   2.574   4.985 -0.8700  0.9428  0.3603
 2987TIP3    H230377   6.662   2.455   5.079 -0.5731 -0.7159 -1.6610
 2988TIP3   OH230378   4.014   4.316  11.730  0.0924  0.1781 -0.1735
 2988TIP3    H130379   3.923   4.320  11.701 -0.5176 -1.9021  1.2055
 2988TIP3    H230380   4.039   4.224  11.719  2.0526  0.6843 -0.4758
 2989TIP3   OH230381   1.116   3.147   5.948 -0.1840 -0.2327  0.0366
 2989TIP3    H130382   1.129   3.081   6.016  3.0189 -1.2547 -1.4084
 2989TIP3    H230383   1.080   3.099   5.874  3.0870 -0.7512 -1.3726
 2990TIP3   OH230384   3.503   6.063   5.324 -0.3409  0.3501  0.0488
 2990TIP3    H130385   3.491   6.070   5.418 -0.7752  2.6791 -0.1096
 2990TIP3    H230386   3.546   6.145   5.299  0.8863 -0.7359 -1.6339
 2991TIP3   OH230387   0.475   0.710  11.318  0.3141 -0.4085  0.5095
 2991TIP3    H130388   0.481   0.787  11.262 -0.8479 -0.3202  0.4762
 2991TIP3    H230389   0.563   0.699  11.353  0.7362  0.3333 -0.2734
 2992TIP3   OH230390   5.067   3.933  16.425 -0.2761 -0.8690  0.7623
 2992TIP3    H130391   5.031   3.943  16.514 -0.2278  1.3194  0.6054
 2992TIP3    H230392   5.003   3.976  16.369  1.2704  0.8545  0.1873
 2993TIP3   OH230393   0.090   2.140   2.648 -0.4323  0.8876  0.0532
 2993TIP3    H130394   0.109   2.047   2.636  0.5028  0.8782  1.3973
 2993TIP3    H230395   0.159   2.185   2.599  0.2724  0.8548  0.9915
 2994TIP3   OH230396   4.610   0.703   1.602 -0.5270 -0.2394 -0.2532
 2994TIP3    H130397   4.619   0.609   1.617 -0.2633 -0.3106 -0.8552
 2994TIP3    H230398   4.697   0.733   1.576 -0.4239  0.3174  0.6779
 2995TIP3   OH230399   6.448   0.658   2.612  0.3676 -0.4336 -0.4223
 2995TIP3    H130400   6.477   0.746   2.588 -1.7072  0.1522 -0.9590
 2995TIP3    H230401   6.370   0.643   2.558  0.3202 -2.3662  0.1108
 2996TIP3   OH230402   1.073   5.389   4.099  0.1252  0.1695 -0.9332
 2996TIP3    H130403   1.056   5.440   4.178  0.0152 -2.6884  1.0368
 2996TIP3    H230404   1.167   5.395   4.086 -0.0064  1.6456 -1.3504
 2997TIP3   OH230405   0.438   2.618   2.915  0.1826 -0.3902 -0.0332
 2997TIP3    H130406   0.496   2.563   2.967  0.8662  0.8636  0.5855
 2997TIP3    H230407   0.432   2.700   2.964 -2.8926 -0.7757  0.4179
 2998TIP3   OH230408   3.202   5.492  16.326 -0.7345 -0.5724 -0.6371
 2998TIP3    H130409   3.165   5.499  16.238  0.8678  2.4606 -1.1862
 2998TIP3    H230410   3.291   5.461  16.312 -0.7135 -0.8449  0.0361
 2999TIP3   OH230411   4.243   2.957  15.574  0.2048  0.2773  0.1659
 2999TIP3    H130412   4.266   2.989  15.487 -1.6137  0.3767 -0.3207
 2999TIP3    H230413   4.155   2.921  15.563 -0.0497  0.2876  1.9609
 3000TIP3   OH230414   3.008   3.753  13.111  0.7864  0.4011  0.3921
 3000TIP3    H130415   3.024   3.672  13.063  2.3640  0.6123  0.5045
 3000TIP3    H230416   3.022   3.822  13.046  1.1194  0.6319  0.7044
 3001TIP3   OH230417   1.442   5.699  14.862 -0.5864 -0.6077  0.6307
 3001TIP3    H130418   1.362   5.688  14.912 -0.9665  0.2622  0.2316
 3001TIP3    H230419   1.428   5.649  14.781 -0.8175 -0.2878  0.4697
 3002TIP3   OH230420   2.914   5.035  16.694 -0.0455  0.0110 -0.2771
 3002TIP3    H130421   2.922   5.122  16.732 -2.0178  1.2086 -2.3338
 3002TIP3    H230422   2.967   4.979  16.750 -0.5759  2.0777  2.5178
 3003TIP3   OH230423   1.389   4.260   1.535  0.4936  0.4519  0.5814
 3003TIP3    H130424   1.394   4.178   1.584  0.8743  0.5402  0.6907
 3003TIP3    H230425   1.332   4.316   1.587 -0.8729 -0.2066 -0.1629
 3004TIP3   OH230426   0.954   2.762  11.547 -0.4071 -0.8292 -0.1961
 3004TIP3    H130427   1.003   2.834  11.586 -0.4215 -1.4210  0.9451
 3004TIP3    H230428   0.964   2.775  11.453  2.0200 -0.9554 -0.0198
 3005TIP3   OH230429   6.732   6.652   2.337 -0.1766 -0.1410  0.1270
 3005TIP3    H130430   6.642   6.662   2.366 -0.0183 -1.9394  1.3321
 3005TIP3    H230431   6.733   6.570   2.287  0.5090  0.6075 -1.1613
 3006TIP3   OH230432   2.158   0.249  10.430  0.3541 -0.4528  0.5975
 3006TIP3    H130433   2.163   0.193  10.352 -1.2176 -0.9421  0.8106
 3006TIP3    H230434   2.142   0.337  10.395 -1.5203 -0.8549  0.3741
 3007TIP3   OH230435   0.087   5.801   9.822 -0.8921 -0.2082  0.2071
 3007TIP3    H130436   0.018   5.858   9.856  0.5000  2.2917 -0.9514
 3007TIP3    H230437   0.050   5.763   9.742 -1.8719 -1.1333  1.0585
 3008TIP3   OH230438   4.756   6.482  14.898  0.0067  0.1333  0.3609
 3008TIP3    H130439   4.835   6.464  14.949 -0.9666 -1.5292  1.3872
 3008TIP3    H230440   4.782   6.469  14.807  1.0936  0.3039  0.6427
 3009TIP3   OH230441   3.553   5.138  16.325  0.7098 -0.4577  0.5094
 3009TIP3    H130442   3.607   5.141  16.246 -1.8295  1.8362 -1.3343
 3009TIP3    H230443   3.483   5.076  16.304  0.5733 -0.6303  1.4161
 3010TIP3   OH230444   5.885   3.809  15.614  0.4567  0.1652  0.5297
 3010TIP3    H130445   5.801   3.848  15.637  0.1254 -0.2202  0.0068
 3010TIP3    H230446   5.897   3.740  15.679 -0.2848 -0.6567 -0.1692
 3011TIP3   OH230447   4.560   6.013  10.505 -0.7350  0.3963 -0.3282
 3011TIP3    H130448   4.584   5.931  10.547  0.6219 -0.1320 -2.0461
 3011TIP3    H230449   4.467   6.003  10.484 -1.0099  0.0086  0.9817
 3012TIP3   OH230450   6.213   1.841   0.324 -0.2771 -0.3159  0.9230
 3012TIP3    H130451   6.160   1.919   0.340 -0.5843 -0.7732  2.2547
 3012TIP3    H230452   6.158   1.784   0.271 -0.5349 -0.1645  1.0299
 3013TIP3   OH230453   0.091   2.232   4.454  0.1297  0.0470  0.2698
 3013TIP3    H130454   0.029   2.234   4.527 -1.1066 -2.2071 -0.6046
 3013TIP3    H230455   0.038   2.253   4.377  1.1060  0.9738 -0.1745
 3014TIP3   OH230456   0.651   0.687   4.952 -1.0619 -0.0517  0.5136
 3014TIP3    H130457   0.686   0.709   4.866 -0.1747 -0.8407  0.6539
 3014TIP3    H230458   0.621   0.771   4.988  0.6439  0.6725  0.3521
 3015TIP3   OH230459   2.005   3.653  16.005 -0.4959 -0.6490  0.8578
 3015TIP3    H130460   2.080   3.631  15.949 -0.3630 -1.5128  1.3599
 3015TIP3    H230461   1.930   3.654  15.946 -0.2759 -1.0195  0.5721
 3016TIP3   OH230462   5.211   0.002   4.032  0.5532 -0.2403 -0.2264
 3016TIP3    H130463   5.244   0.076   4.082 -0.3876  0.0095  0.0394
 3016TIP3    H230464   5.253   0.011   3.946  2.6025 -0.9835  0.6287
 3017TIP3   OH230465   0.925   4.915  13.269 -0.7663  0.3913 -0.4973
 3017TIP3    H130466   0.997   4.869  13.226 -0.4213 -0.0866  0.5392
 3017TIP3    H230467   0.853   4.912  13.206 -0.5386 -1.0103 -0.7161
 3018TIP3   OH230468   2.885   4.253   3.136 -0.1990 -0.2934  0.5265
 3018TIP3    H130469   2.883   4.166   3.097 -0.2899 -0.4705  0.9246
 3018TIP3    H230470   2.978   4.269   3.156  0.1863  0.6841 -1.7166
 3019TIP3   OH230471   2.994   1.605  12.716 -0.4346  0.1483  0.1012
 3019TIP3    H130472   2.941   1.646  12.784  0.4454  0.1153  0.8195
 3019TIP3    H230473   3.080   1.644  12.725 -0.0069 -0.6842 -0.2563
 3020TIP3   OH230474   6.670   6.661   4.396  0.3580  0.5360 -0.2008
 3020TIP3    H130475   6.626   6.609   4.463 -0.3190  1.5920  0.2070
 3020TIP3    H230476   6.672   6.605   4.319 -0.2237 -0.1390  0.2661
 3021TIP3   OH230477   2.512   6.199   3.796  0.1012 -0.7170  0.4721
 3021TIP3    H130478   2.474   6.165   3.877  1.3977  0.0708  1.4573
 3021TIP3    H230479   2.472   6.285   3.785  0.0303 -0.7641  0.3731
 3022TIP3   OH230480   1.172   2.840  12.859 -0.3194 -0.0083  0.3614
 3022TIP3    H130481   1.144   2.909  12.919  0.3483  0.5875 -0.0125
 3022TIP3    H230482   1.201   2.769  12.917 -0.9058  0.0505  0.7406
 3023TIP3   OH230483   4.219   4.351  14.085  0.0727  0.3108 -0.3399
 3023TIP3    H130484   4.299   4.401  14.070 -0.0550  0.0125 -2.2577
 3023TIP3    H230485   4.216   4.288  14.014 -2.1381  0.6692 -0.6384
 3024TIP3   OH230486   2.287   3.969   0.649  0.1959  0.3597  0.3507
 3024TIP3    H130487   2.339   3.904   0.697  1.4413  2.1434  1.5845
 3024TIP3    H230488   2.206   3.976   0.699  0.8556  1.0825  1.3777
 3025TIP3   OH230489   1.002   0.450   1.581  0.5109 -0.3033  0.3417
 3025TIP3    H130490   1.065   0.452   1.653  0.2466 -0.8446  0.5914
 3025TIP3    H230491   1.054   0.468   1.503  0.2764  4.4976  0.9924
 3026TIP3   OH230492   2.681   2.142  15.082  0.5310 -0.0818  0.2146
 3026TIP3    H130493   2.691   2.082  15.008 -0.9132 -0.2768  0.1442
 3026TIP3    H230494   2.608   2.106  15.133 -0.1456  1.4030  0.3584
 3027TIP3   OH230495   6.616   4.296  13.705 -0.0797  0.1548  0.0368
 3027TIP3    H130496   6.534   4.334  13.737  0.3268  2.5136 -1.5193
 3027TIP3    H230497   6.683   4.361  13.725  0.4987  0.9028 -3.5495
 3028TIP3   OH230498   4.896   3.579  14.838  0.5535 -0.4552  0.1221
 3028TIP3    H130499   4.901   3.648  14.904 -1.8407 -0.8527  0.8231
 3028TIP3    H230500   4.837   3.514  14.875 -1.3383 -0.4615 -2.5470
 3029TIP3   OH230501   0.183   6.032   1.462  0.0261 -0.2267 -0.2282
 3029TIP3    H130502   0.217   6.116   1.489  0.1365  0.1697 -1.5148
 3029TIP3    H230503   0.090   6.048   1.442 -0.0182 -0.4640 -0.2262
 3030TIP3   OH230504   0.146   5.946   0.963 -0.7286 -0.2309 -1.2272
 3030TIP3    H130505   0.104   5.865   0.933 -0.0143 -0.4664 -1.6205
 3030TIP3    H230506   0.196   5.920   1.040 -1.8618  0.1977 -0.3207
 3031TIP3   OH230507   6.395   0.210  10.722  0.4238 -0.2022  0.0073
 3031TIP3    H130508   6.318   0.155  10.736 -0.6540  0.7031 -1.9338
 3031TIP3    H230509   6.373   0.294  10.762  0.2827  0.1350 -0.7633
 3032TIP3   OH230510   6.361   4.482   4.703 -0.8086 -0.2679 -0.1950
 3032TIP3    H130511   6.401   4.411   4.654 -0.3325 -0.2599  0.1770
 3032TIP3    H230512   6.393   4.562   4.661 -0.1575 -0.2561  0.3094
 3033TIP3   OH230513   3.965   2.291   4.071 -0.4308 -0.5964  0.2019
 3033TIP3    H130514   4.041   2.234   4.053 -0.6548 -0.9200  0.2637
 3033TIP3    H230515   3.941   2.325   3.985  0.9012  0.9756  0.3907
 3034TIP3   OH230516   1.862   6.536  13.681 -0.1925 -0.0008  0.2765
 3034TIP3    H130517   1.863   6.630  13.667 -0.5826 -0.1350 -0.7764
 3034TIP3    H230518   1.954   6.511  13.683 -0.0783  0.4460  0.9569
 3035TIP3   OH230519   5.225   5.418  14.572  0.1788  0.1186  0.7100
 3035TIP3    H130520   5.295   5.420  14.637 -0.7425 -1.6706  1.8425
 3035TIP3    H230521   5.144   5.415  14.624 -0.5633 -1.8799 -0.4383
 3036TIP3   OH230522   2.402   4.142   2.998  0.5267  0.4003 -0.5631
 3036TIP3    H130523   2.348   4.177   2.928  1.4445 -0.6856 -1.8590
 3036TIP3    H230524   2.351   4.158   3.078 -2.4227 -1.7341 -1.8157
 3037TIP3   OH230525   1.150   4.729  11.752 -0.2053  0.3975  0.2390
 3037TIP3    H130526   1.170   4.819  11.726  0.7903  0.1441  0.0681
 3037TIP3    H230527   1.100   4.693  11.679 -1.5306  1.1150  0.7618
 3038TIP3   OH230528   1.195   5.935   2.513 -0.7486  0.2433 -0.0674
 3038TIP3    H130529   1.244   6.006   2.554 -0.6633  1.6237 -2.3905
 3038TIP3    H230530   1.258   5.864   2.503 -0.1905  0.7032  0.1571
 3039TIP3   OH230531   5.698   1.239  10.630 -0.1585 -0.5938  0.5684
 3039TIP3    H130532   5.762   1.228  10.700 -0.1778  0.8993  0.8460
 3039TIP3    H230533   5.719   1.323  10.590 -0.7256 -0.9946 -0.6346
 3040TIP3   OH230534   6.488   1.758  10.794  0.2361  0.3310 -0.2742
 3040TIP3    H130535   6.555   1.773  10.727  1.5446  0.6643  1.0678
 3040TIP3    H230536   6.532   1.775  10.877 -1.2814 -0.3015  0.7083
 3041TIP3   OH230537   0.195   1.189  12.930  0.2289  0.3412  1.1044
 3041TIP3    H130538   0.136   1.169  13.003 -0.9967 -1.6502 -0.3436
 3041TIP3    H230539   0.267   1.127  12.940  1.3856  1.7400  1.9776
 3042TIP3   OH230540   2.471   6.346  12.802  0.0129  0.0723  0.6897
 3042TIP3    H130541   2.472   6.290  12.725  0.4834 -0.3831  1.0167
 3042TIP3    H230542   2.390   6.323  12.848 -0.1080  0.1151  0.4947
 3043TIP3   OH230543   4.875   6.768  14.793  0.5823  0.6730 -0.0052
 3043TIP3    H130544   4.863   6.757  14.698  1.5263 -0.5867 -0.0171
 3043TIP3    H230545   4.794   6.734  14.831 -0.0539  1.7396 -0.3581
 3044TIP3   OH230546   4.672   3.195   2.047  0.2218 -0.6938 -0.1433
 3044TIP3    H130547   4.599   3.136   2.027  0.1986 -0.4874 -0.6905
 3044TIP3    H230548   4.701   3.170   2.135 -0.2031 -1.0905 -0.1181
 3045TIP3   OH230549   3.647   0.447   0.881  0.2615  0.4026 -0.2412
 3045TIP3    H130550   3.568   0.468   0.831 -0.2296 -0.9926 -0.1093
 3045TIP3    H230551   3.638   0.353   0.900  1.2437  0.5557  1.0479
 3046TIP3   OH230552   4.526   0.302   5.270  0.1664  0.2006  0.5481
 3046TIP3    H130553   4.460   0.360   5.308 -0.9826 -0.1103 -0.8623
 3046TIP3    H230554   4.546   0.340   5.185  1.8327  0.2729  0.9364
 3047TIP3   OH230555   6.062   2.660  10.945  0.5103  0.1531 -0.3141
 3047TIP3    H130556   6.062   2.570  10.913  1.0484  0.7533 -2.1395
 3047TIP3    H230557   6.141   2.699  10.907  0.0393  1.5205  0.0514
 3048TIP3   OH230558   2.223   2.616  10.784 -0.0210 -0.1025  0.1528
 3048TIP3    H130559   2.299   2.561  10.766  1.6126  2.0088  0.1426
 3048TIP3    H230560   2.164   2.599  10.711  1.8459  0.4601 -1.5964
 3049TIP3   OH230561   3.248   2.480   2.406 -0.1733  0.3728 -0.2134
 3049TIP3    H130562   3.335   2.447   2.426  0.1701  0.9908 -0.6520
 3049TIP3    H230563   3.243   2.477   2.311 -0.6006  0.4302 -0.1936
 3050TIP3   OH230564   4.852   0.329  10.046  0.5624  0.4530 -0.1377
 3050TIP3    H130565   4.809   0.301  10.127 -0.5097 -0.8804 -1.1140
 3050TIP3    H230566   4.813   0.415  10.027 -1.0924 -0.3305 -0.5201
 3051TIP3   OH230567   3.806   4.612  10.355 -0.4573 -0.7081  0.2710
 3051TIP3    H130568   3.875   4.588  10.292 -1.5061  0.3072 -1.3367
 3051TIP3    H230569   3.826   4.703  10.378 -0.1723 -1.0225  1.3355
 3052TIP3   OH230570   5.791   2.683  11.990 -0.0395  0.0576 -0.0746
 3052TIP3    H130571   5.820   2.595  12.013 -1.4640 -1.3490 -3.0557
 3052TIP3    H230572   5.870   2.728  11.961  0.3296 -1.2094 -1.1066
 3053TIP3   OH230573   5.448   1.963  14.454  0.4174  0.8317  0.4665
 3053TIP3    H130574   5.359   1.988  14.428  0.6238  1.2419  0.1425
 3053TIP3    H230575   5.442   1.869  14.474 -0.5380  1.2727  2.4651
 3054TIP3   OH230576   0.945   2.758   2.434  0.2801 -0.0303  0.0553
 3054TIP3    H130577   1.009   2.688   2.422  0.4097  0.2468 -0.9425
 3054TIP3    H230578   0.970   2.799   2.517  0.9160 -0.4172  0.0624
 3055TIP3   OH230579   0.021   4.557  15.348 -0.3118  0.1861 -0.0148
 3055TIP3    H130580   0.095   4.496  15.349  0.1544  0.7484  0.8770
 3055TIP3    H230581   0.004   4.572  15.255 -0.1026 -0.9005 -0.2406
 3056TIP3   OH230582   4.541   6.440   0.368 -0.3895  0.1820 -0.3349
 3056TIP3    H130583   4.493   6.446   0.285 -0.1140  0.6253 -0.4658
 3056TIP3    H230584   4.542   6.530   0.401 -2.3414 -0.3064  1.2023
 3057TIP3   OH230585   5.511   5.248   4.218 -0.2971 -0.0213 -0.0152
 3057TIP3    H130586   5.561   5.322   4.184  2.7821 -1.7788  0.4104
 3057TIP3    H230587   5.459   5.285   4.290  0.0335  1.9458 -0.7229
 3058TIP3   OH230588   0.289   5.427   9.897 -0.2802 -0.0869  0.5970
 3058TIP3    H130589   0.277   5.515   9.934  0.0480 -0.6331  2.0679
 3058TIP3    H230590   0.353   5.385   9.955 -1.0098 -1.5617  0.3858
 3059TIP3   OH230591   5.983   3.505   0.177 -0.3471 -0.2227 -0.6662
 3059TIP3    H130592   5.919   3.436   0.194 -0.8245 -0.0363 -1.6256
 3059TIP3    H230593   6.066   3.459   0.171 -0.6277 -0.6898 -1.0710
 3060TIP3   OH230594   6.004   1.072   3.045  0.7264  0.0736  0.3662
 3060TIP3    H130595   6.005   1.163   3.076 -2.1864  0.1472  0.5146
 3060TIP3    H230596   6.037   1.021   3.118 -0.4257  0.7871  1.4209
 3061TIP3   OH230597   3.484   3.152   3.491  0.1220  0.4404 -0.2046
 3061TIP3    H130598   3.553   3.100   3.449  0.6914 -0.1656  1.4200
 3061TIP3    H230599   3.516   3.242   3.488 -0.0863  0.4884 -1.5056
 3062TIP3   OH230600   1.385   1.263  15.765 -0.3452 -0.3858 -0.5023
 3062TIP3    H130601   1.405   1.234  15.676 -1.8983  2.3789 -1.8743
 3062TIP3    H230602   1.469   1.258  15.811  0.7111 -0.9747 -2.3680
 3063TIP3   OH230603   1.266   2.223  15.024  0.0288  0.3944 -0.0255
 3063TIP3    H130604   1.193   2.192  14.969  1.0721 -0.8057 -0.7680
 3063TIP3    H230605   1.300   2.299  14.976  0.4447 -0.1806 -0.6544
 3064TIP3   OH230606   5.660   5.110  14.207  0.2779 -0.6713  0.4539
 3064TIP3    H130607   5.720   5.184  14.198  1.3667 -1.4025  1.4573
 3064TIP3    H230608   5.667   5.063  14.124  0.7215 -0.4686  0.3713
 3065TIP3   OH230609   6.316   2.244  16.478  0.2172  0.2237 -0.5362
 3065TIP3    H130610   6.358   2.328  16.458 -1.8117  1.2199 -0.7938
 3065TIP3    H230611   6.223   2.260  16.470 -0.3828 -1.4385  1.8190
 3066TIP3   OH230612   4.079   5.601   1.603 -0.8191  0.0694  0.1107
 3066TIP3    H130613   4.075   5.521   1.655 -1.0788 -0.3138 -0.4904
 3066TIP3    H230614   4.173   5.620   1.596 -0.6464 -1.0701 -1.0648
 3067TIP3   OH230615   2.552   4.441   2.141 -0.3583  0.0941  0.3237
 3067TIP3    H130616   2.586   4.390   2.215  0.2311  0.1848  0.1158
 3067TIP3    H230617   2.509   4.376   2.085  1.3771 -0.3883 -0.5231
 3068TIP3   OH230618   4.643   0.686   3.684 -0.2859  0.3463  0.1060
 3068TIP3    H130619   4.680   0.763   3.726  2.9826  0.5607 -2.6870
 3068TIP3    H230620   4.637   0.709   3.591  1.1139 -2.7449 -0.9064
 3069TIP3   OH230621   5.868   0.641  13.326  0.0374 -0.2049 -0.4573
 3069TIP3    H130622   5.823   0.625  13.243 -0.4543 -3.4425  0.3058
 3069TIP3    H230623   5.799   0.661  13.388  0.0796 -0.7003 -0.2428
 3070TIP3   OH230624   0.605   0.899   2.294 -0.1694  0.4291 -0.3075
 3070TIP3    H130625   0.598   0.909   2.389  1.3383  0.5374 -0.1793
 3070TIP3    H230626   0.618   0.988   2.262 -1.1404  0.4453 -0.6773
 3071TIP3   OH230627   1.956   0.165  13.847 -0.0364  0.3304  0.1873
 3071TIP3    H130628   2.039   0.124  13.872  0.4053  0.5231 -0.9075
 3071TIP3    H230629   1.979   0.225  13.776 -1.4229 -1.4535 -1.9101
 3072TIP3   OH230630   5.848   2.083   1.959 -0.0316  0.0227  0.3599
 3072TIP3    H130631   5.827   2.025   2.032 -0.3976 -2.0846 -1.3078
 3072TIP3    H230632   5.766   2.130   1.942  0.0033  0.3970  1.1587
 3073TIP3   OH230633   0.829   5.962  12.827  0.7179  0.7080 -0.6331
 3073TIP3    H130634   0.876   5.973  12.745 -0.7569  0.3340 -1.5534
 3073TIP3    H230635   0.763   6.032  12.826 -0.0658 -0.0154 -0.3252
 3074TIP3   OH230636   3.107   3.672  12.350 -0.3387 -0.1133  0.5179
 3074TIP3    H130637   3.186   3.720  12.374 -1.2721  1.2842  0.9352
 3074TIP3    H230638   3.131   3.627  12.269  1.0974 -0.3138  1.0222
 3075TIP3   OH230639   0.088   4.697  10.886  0.1527  0.4800 -1.0678
 3075TIP3    H130640   0.162   4.727  10.939 -0.2225  0.6089 -0.6016
 3075TIP3    H230641   0.084   4.758  10.813  0.2547  0.7268 -0.8694
 3076TIP3   OH230642   4.532   1.342   2.627  0.3569 -0.3014  0.4677
 3076TIP3    H130643   4.492   1.339   2.714 -0.9347  0.0670 -0.0962
 3076TIP3    H230644   4.608   1.284   2.635 -1.5918 -3.0093  0.9313
 3077TIP3   OH230645   5.906   6.798   0.201 -0.0228  0.5034  0.2543
 3077TIP3    H130646   5.971   6.763   0.263  0.2885  0.9885  0.2044
 3077TIP3    H230647   5.845   6.847   0.255 -0.7523 -0.5155  0.3895
 3078TIP3   OH230648   3.685   5.024  15.834  0.0181  0.0957  0.1922
 3078TIP3    H130649   3.742   4.970  15.889  1.3832  0.6851 -0.5739
 3078TIP3    H230650   3.744   5.062  15.769 -1.2025  1.0616 -0.4002
 3079TIP3   OH230651   1.053   5.531  16.268  0.2120 -0.1534 -0.0354
 3079TIP3    H130652   1.024   5.525  16.359  1.9002  1.0807  0.6212
 3079TIP3    H230653   1.114   5.604  16.267  0.9127 -0.7219 -1.9895
 3080TIP3   OH230654   1.189   3.039   2.644  0.3298 -0.7233 -0.5972
 3080TIP3    H130655   1.221   3.064   2.731  0.4308  1.4608 -1.2077
 3080TIP3    H230656   1.109   3.090   2.632  1.3561  0.5653 -2.5205
 3081TIP3   OH230657   4.598   6.329   4.343 -0.1844 -1.0727  0.0452
 3081TIP3    H130658   4.661   6.281   4.289  2.0466  1.7086 -0.0802
 3081TIP3    H230659   4.556   6.390   4.282 -0.5934 -0.6578  0.7265
 3082TIP3   OH230660   2.889   4.819   0.199 -0.4205 -0.3092  0.1634
 3082TIP3    H130661   2.860   4.730   0.219  0.3808 -0.5566  0.2756
 3082TIP3    H230662   2.979   4.823   0.233 -1.1906  1.2523  2.2212
 3083TIP3   OH230663   3.738   3.210  12.993  0.6308 -0.1892  0.8454
 3083TIP3    H130664   3.823   3.165  12.991  0.1411 -1.2408  1.9211
 3083TIP3    H230665   3.760   3.303  12.988  1.9175 -0.3923  1.9593
 3084TIP3   OH230666   4.585   1.666   1.819 -0.3791 -0.3970 -0.4665
 3084TIP3    H130667   4.514   1.707   1.870 -1.1789 -2.4404  0.1492
 3084TIP3    H230668   4.541   1.630   1.742  0.0469 -1.3731 -0.2555
 3085TIP3   OH230669   4.005   2.635   4.486  0.1969 -0.4178 -1.0678
 3085TIP3    H130670   4.029   2.581   4.411  2.6267 -0.4046 -0.4123
 3085TIP3    H230671   4.089   2.654   4.529 -0.9888  0.5250  0.9956
 3086TIP3   OH230672   6.257   2.715   1.077  0.0175 -0.3787 -0.0038
 3086TIP3    H130673   6.266   2.793   1.022 -2.5083  1.8798  2.4329
 3086TIP3    H230674   6.165   2.690   1.067  0.5563 -2.5062  0.0176
 3087TIP3   OH230675   6.422   4.147  11.436  0.0748 -0.0895  0.1075
 3087TIP3    H130676   6.371   4.214  11.390  1.0463  0.4368 -0.2465
 3087TIP3    H230677   6.369   4.125  11.513 -0.6405  0.5009 -0.2018
 3088TIP3   OH230678   5.929   4.056  12.550  0.1753  0.2983 -0.0088
 3088TIP3    H130679   5.866   4.024  12.486  1.0262  0.3358 -0.8994
 3088TIP3    H230680   5.876   4.095  12.619 -0.7618  2.1331 -1.6715
 3089TIP3   OH230681   4.498   4.308   5.692 -0.3522 -0.3317  0.2054
 3089TIP3    H130682   4.474   4.233   5.746 -2.5972 -1.5536 -2.2840
 3089TIP3    H230683   4.583   4.286   5.655  0.1077 -0.5370  1.3635
 3090TIP3   OH230684   5.564   5.344  12.386 -0.3796 -0.2614  0.2662
 3090TIP3    H130685   5.497   5.312  12.326  0.9392 -2.1920 -0.2571
 3090TIP3    H230686   5.569   5.438  12.369 -1.1790 -0.4994 -1.4632
 3091TIP3   OH230687   2.867   5.892   1.586  0.3968 -0.0777  0.5383
 3091TIP3    H130688   2.881   5.986   1.574  1.0032 -0.0992  0.9925
 3091TIP3    H230689   2.912   5.872   1.668 -0.8025 -0.5230  1.1203
 3092TIP3   OH230690   4.876   4.967   1.814 -0.0117  0.1442  0.1628
 3092TIP3    H130691   4.948   5.026   1.834  1.1013 -1.4931  1.3010
 3092TIP3    H230692   4.870   4.966   1.718  0.8478  1.0107  0.0944
 3093TIP3   OH230693   1.915   2.824   4.966  0.4193 -0.4849 -0.5345
 3093TIP3    H130694   1.863   2.754   4.927  1.8413 -2.0858  0.2897
 3093TIP3    H230695   1.853   2.873   5.020 -0.4466 -1.7384 -0.3384
 3094TIP3   OH230696   1.943   4.009   1.541  0.2957 -0.2445 -0.0805
 3094TIP3    H130697   2.015   3.994   1.480  0.6198  1.9860 -0.3484
 3094TIP3    H230698   1.890   3.930   1.536  0.9061 -0.5717 -2.4252
 3095TIP3   OH230699   6.300   3.439  10.797  0.3539 -0.1137 -0.3440
 3095TIP3    H130700   6.221   3.480  10.761  1.0784  0.0807 -1.7555
 3095TIP3    H230701   6.328   3.378  10.730  1.0558 -0.6642  0.4283
 3096TIP3   OH230702   5.521   2.227   4.812  0.0219 -0.2997 -0.1703
 3096TIP3    H130703   5.556   2.146   4.850  1.1628 -0.0962 -0.7690
 3096TIP3    H230704   5.576   2.244   4.736  0.0710  1.2670  0.1838
 3097TIP3   OH230705   1.144   6.874  12.350 -0.2014  0.5596 -0.2280
 3097TIP3    H130706   1.195   6.825  12.286 -1.2674 -0.6771 -0.1719
 3097TIP3    H230707   1.073   6.913  12.300  0.4843  1.8718 -0.2245
 3098TIP3   OH230708   4.361   5.774  12.256  0.2310  0.4258  0.0472
 3098TIP3    H130709   4.403   5.857  12.281 -1.7089  0.7891  2.5570
 3098TIP3    H230710   4.304   5.754  12.330 -1.5189 -1.6991 -1.7638
 3099TIP3   OH230711   2.856   5.502  14.443 -0.5776 -0.0802 -0.0402
 3099TIP3    H130712   2.805   5.435  14.396 -1.1017  0.8055 -0.7606
 3099TIP3    H230713   2.843   5.582  14.392  3.0851 -0.1873 -1.4085
 3100TIP3   OH230714   1.179   5.943  11.015 -0.4480 -0.2092  0.6634
 3100TIP3    H130715   1.129   5.978  10.942  1.2229 -0.3894 -0.6130
 3100TIP3    H230716   1.202   5.854  10.988  0.9927  0.0449  0.9937
 3101TIP3   OH230717   1.123   2.388  12.390  0.4041 -0.1316 -0.3279
 3101TIP3    H130718   1.174   2.319  12.347  0.9468  0.1391 -0.1411
 3101TIP3    H230719   1.176   2.411  12.467 -1.0630 -1.3724  1.1128
 3102TIP3   OH230720   5.944   1.574  16.600 -0.3188 -0.0691 -0.3242
 3102TIP3    H130721   5.880   1.518  16.644 -0.2883  0.1674  0.0237
 3102TIP3    H230722   6.014   1.585  16.664  0.3657 -0.8338 -0.9330
 3103TIP3   OH230723   5.762   4.940  14.006  0.6262 -0.1761  0.1126
 3103TIP3    H130724   5.823   4.995  14.055  1.0631 -1.3264  0.9009
 3103TIP3    H230725   5.788   4.951  13.915 -1.0785  3.1087 -0.1546
 3104TIP3   OH230726   5.892   6.189  10.725  0.1994  0.1575  0.3147
 3104TIP3    H130727   5.904   6.208  10.818 -0.6209  2.5555  0.0187
 3104TIP3    H230728   5.956   6.245  10.681  0.8350 -1.2223 -0.5819
 3105TIP3   OH230729   4.606   2.206   3.204 -0.3682  0.0856 -0.5162
 3105TIP3    H130730   4.625   2.300   3.209  0.1041 -0.0018 -0.5595
 3105TIP3    H230731   4.656   2.168   3.276 -2.6515  0.1547  1.2011
 3106TIP3   OH230732   5.690   4.664  12.190  0.6696  0.1194 -0.5703
 3106TIP3    H130733   5.712   4.756  12.175  1.5375  0.1734  0.8898
 3106TIP3    H230734   5.615   4.667  12.249  1.4717 -0.0971  0.4817
 3107TIP3   OH230735   0.772   6.433  14.884  0.0194 -0.0381 -0.4923
 3107TIP3    H130736   0.716   6.451  14.808  0.8131 -0.5028 -1.2155
 3107TIP3    H230737   0.849   6.392  14.846  1.0748  1.0327  0.4180
 3108TIP3   OH230738   3.553   1.845  12.098 -0.1735 -0.0165 -0.0985
 3108TIP3    H130739   3.574   1.934  12.070 -0.6429  0.4769  1.0242
 3108TIP3    H230740   3.463   1.831  12.068 -0.6239  0.4568  0.9865
 3109TIP3   OH230741   0.909   4.478  13.224  0.1618  0.3733  1.1362
 3109TIP3    H130742   0.903   4.391  13.185  0.6430  0.6390  0.4569
 3109TIP3    H230743   0.952   4.463  13.308  2.7257  0.2380 -0.0912
 3110TIP3   OH230744   4.300   4.678   3.622  0.4334 -0.4606 -0.0605
 3110TIP3    H130745   4.265   4.614   3.684 -1.2187  0.3643 -0.0780
 3110TIP3    H230746   4.335   4.748   3.677  1.1477 -0.8131 -0.0551
 3111TIP3   OH230747   3.373   2.877   4.113 -0.4063  0.6696  0.6277
 3111TIP3    H130748   3.461   2.911   4.096 -0.6008  1.2174  0.6860
 3111TIP3    H230749   3.385   2.784   4.127  0.0940  0.6456  0.0742
 3112TIP3   OH230750   0.844   2.773   6.038  0.0977  0.1681 -0.5151
 3112TIP3    H130751   0.803   2.687   6.036  0.9817 -0.2538 -1.0174
 3112TIP3    H230752   0.773   2.834   6.019 -0.3423 -0.5286 -1.1337
 3113TIP3   OH230753   6.600   3.556   3.677  0.4273 -0.1595 -1.1416
 3113TIP3    H130754   6.547   3.564   3.756  0.0023 -0.0449 -1.4338
 3113TIP3    H230755   6.536   3.561   3.605  0.8700  0.3443 -1.5073
 3114TIP3   OH230756   5.779   4.315  12.149 -0.5456  0.0435  0.4068
 3114TIP3    H130757   5.840   4.252  12.110  1.7829  2.6765 -0.4846
 3114TIP3    H230758   5.823   4.345  12.228  0.0577  2.9549 -0.9280
 3115TIP3   OH230759   3.669   5.361   2.158 -0.4766  0.4763 -0.7428
 3115TIP3    H130760   3.742   5.343   2.099 -0.6090 -0.0667 -0.7464
 3115TIP3    H230761   3.697   5.437   2.208  1.7471 -1.8744  1.9372
 3116TIP3   OH230762   3.891   1.907  16.213  0.0490  0.2077 -0.5094
 3116TIP3    H130763   3.817   1.908  16.152 -0.0227 -1.0048 -0.4768
 3116TIP3    H230764   3.946   1.835  16.182  0.0908 -0.3317  0.7418
 3117TIP3   OH230765   0.519   1.589  12.786 -0.7734 -0.2133  0.0226
 3117TIP3    H130766   0.480   1.676  12.790 -1.7780 -0.5820 -1.1683
 3117TIP3    H230767   0.580   1.593  12.713  0.0572 -0.1775  0.7096
 3118TIP3   OH230768   4.066   4.245  14.514 -0.6103  0.0503 -0.5610
 3118TIP3    H130769   4.093   4.153  14.522  0.5823  0.5034  1.3987
 3118TIP3    H230770   3.979   4.248  14.553  0.0704  0.0101  1.0573
 3119TIP3   OH230771   2.416   1.581  15.663  0.3655 -0.2151  0.8021
 3119TIP3    H130772   2.411   1.508  15.600 -0.6939 -1.6430  2.4556
 3119TIP3    H230773   2.425   1.538  15.748  1.6825  1.6629  1.6794
 3120TIP3   OH230774   6.713   4.028   1.210 -0.0290  0.0077 -0.4263
 3120TIP3    H130775   6.686   4.119   1.225 -0.8205 -0.2652 -0.1345
 3120TIP3    H230776   6.634   3.986   1.175  0.2149 -0.6633 -0.1805
 3121TIP3   OH230777   0.453   1.652  14.160  0.0274  0.2106  0.0398
 3121TIP3    H130778   0.469   1.735  14.203  0.2735  0.3319 -0.2785
 3121TIP3    H230779   0.423   1.594  14.229  1.6869  0.0151  0.6559
 3122TIP3   OH230780   3.489   5.650   1.216 -0.0132  0.2259  0.1200
 3122TIP3    H130781   3.530   5.736   1.219  1.9350 -0.6436  0.0546
 3122TIP3    H230782   3.489   5.626   1.123  0.9953 -0.5145  0.2953
 3123TIP3   OH230783   4.283   3.017  16.431  0.6934  0.1783 -0.1635
 3123TIP3    H130784   4.207   3.000  16.374 -0.9882 -0.8241  2.2090
 3123TIP3    H230785   4.250   3.002  16.519  3.6081  0.1101  1.0096
 3124TIP3   OH230786   4.258   6.844  13.593  0.0197 -0.1881  0.6188
 3124TIP3    H130787   4.185   6.788  13.567  0.5733 -0.2120 -1.0262
 3124TIP3    H230788   4.223   6.933  13.590  0.2321 -0.1226 -1.0217
 3125TIP3   OH230789   3.133   2.213  14.076 -0.1585 -0.2393 -0.0813
 3125TIP3    H130790   3.213   2.256  14.105 -1.7116  3.4882 -0.7438
 3125TIP3    H230791   3.163   2.139  14.024  2.8437  0.7360  0.0555
 3126TIP3   OH230792   5.158   5.740  15.633  0.4395 -0.2283  0.5963
 3126TIP3    H130793   5.077   5.747  15.684  0.0243  2.0444 -0.2574
 3126TIP3    H230794   5.206   5.669  15.675 -0.9055 -0.0089  2.6845
 3127TIP3   OH230795   5.108   4.341   0.726  0.3195 -0.0384 -0.7736
 3127TIP3    H130796   5.167   4.413   0.702  0.2657  0.1692 -0.2961
 3127TIP3    H230797   5.122   4.275   0.658  1.1876 -0.0383 -0.6108
 3128TIP3   OH230798   5.728   2.387  13.718 -0.4264 -0.2084 -0.4222
 3128TIP3    H130799   5.823   2.388  13.715 -0.3899 -1.1155 -4.1106
 3128TIP3    H230800   5.707   2.355  13.805  2.6242 -0.5576  0.2889
 3129TIP3   OH230801   6.867   3.380   3.872 -0.4425  0.5327  0.5656
 3129TIP3    H130802   6.930   3.450   3.886  1.0939 -0.8272  0.8063
 3129TIP3    H230803   6.826   3.367   3.957 -0.4912  0.9075  0.6003
 3130TIP3   OH230804   6.537   3.141  11.128  0.4685  0.2829 -0.1081
 3130TIP3    H130805   6.582   3.222  11.106 -1.0759  0.8425 -1.4108
 3130TIP3    H230806   6.455   3.168  11.169  0.4826 -0.6564  0.5895
 3131TIP3   OH230807   3.258   2.664   2.909  0.0230 -0.1214  0.2815
 3131TIP3    H130808   3.242   2.619   2.826  0.4612 -1.7566  1.0354
 3131TIP3    H230809   3.182   2.643   2.963 -0.3931  1.1606  0.2307
 3132TIP3   OH230810   0.847   5.586  15.767  0.0337 -0.3968 -0.0662
 3132TIP3    H130811   0.878   5.616  15.853 -1.8874  0.0577  0.5137
 3132TIP3    H230812   0.789   5.657  15.737  0.3542 -0.7377 -1.5588
 3133TIP3   OH230813   0.067   3.412   1.426 -0.8208 -0.1408  0.4353
 3133TIP3    H130814   0.159   3.388   1.436  0.2633  2.8272 -1.2938
 3133TIP3    H230815   0.033   3.417   1.516  0.9779 -0.2152  1.1549
 3134TIP3   OH230816   6.390   0.375  15.432 -0.2954  0.3348 -0.8511
 3134TIP3    H130817   6.390   0.294  15.381 -1.2453 -0.6762  0.6982
 3134TIP3    H230818   6.324   0.361  15.500  0.6417  1.7958  0.4193
 3135TIP3   OH230819   2.746   5.111  15.699 -0.1026 -1.0227  0.2667
 3135TIP3    H130820   2.702   5.092  15.617 -0.3795  0.0847  0.1475
 3135TIP3    H230821   2.751   5.207  15.703  2.0619 -1.0851  0.3920
 3136TIP3   OH230822   2.810   1.566   4.152 -0.0289  0.1764 -0.2116
 3136TIP3    H130823   2.770   1.620   4.220  0.6626  2.0600 -1.2165
 3136TIP3    H230824   2.754   1.490   4.145 -2.5790  1.9614 -0.5025
 3137TIP3   OH230825   5.753   4.000   1.719  0.5689  0.1092  0.5862
 3137TIP3    H130826   5.784   3.909   1.717  0.0515 -0.1438  2.4168
 3137TIP3    H230827   5.658   3.993   1.729  0.3450  0.8798 -0.7516
 3138TIP3   OH230828   1.159   2.029  13.425  0.2887  0.1249  0.3219
 3138TIP3    H130829   1.230   1.973  13.456  0.6754  0.8446  0.7522
 3138TIP3    H230830   1.180   2.046  13.333  0.4796  0.0380  0.3486
 3139TIP3   OH230831   5.155   4.895   1.096 -0.0254  0.3755 -0.0846
 3139TIP3    H130832   5.241   4.865   1.070 -1.4463 -1.8868 -2.6979
 3139TIP3    H230833   5.115   4.820   1.140 -0.9021  1.1354  0.4580
 3140TIP3   OH230834   5.198   5.615   2.870 -0.1700 -0.3566 -0.4378
 3140TIP3    H130835   5.293   5.614   2.867 -0.0966  0.6563  0.5711
 3140TIP3    H230836   5.173   5.525   2.891  0.5999 -0.5148 -0.1855
 3141TIP3   OH230837   3.750   3.772  15.036  0.0584 -0.0764  0.5577
 3141TIP3    H130838   3.692   3.837  14.997 -1.1982 -1.0676  0.7082
 3141TIP3    H230839   3.777   3.716  14.963  0.4114  0.0773  0.5693
 3142TIP3   OH230840   5.696   1.378  15.580  0.1039  0.1800  0.4671
 3142TIP3    H130841   5.670   1.469  15.568  0.0883  0.1672  0.4066
 3142TIP3    H230842   5.772   1.367  15.524  1.2861  0.6831  1.9020
 3143TIP3   OH230843   1.875   4.169  12.627  0.1105  0.0876 -0.5800
 3143TIP3    H130844   1.904   4.182  12.717 -0.2640 -1.1987 -0.2570
 3143TIP3    H230845   1.841   4.255  12.600  0.5055  0.5640  0.3872
 3144TIP3   OH230846   6.339   2.105  13.326  0.0684  0.7195  0.5067
 3144TIP3    H130847   6.413   2.107  13.387 -0.9987 -1.3701  2.0315
 3144TIP3    H230848   6.334   2.013  13.299 -1.8857  0.8385  0.3633
 3145TIP3   OH230849   2.961   5.987  14.148 -0.3276  0.4474  0.6315
 3145TIP3    H130850   2.964   6.082  14.140  0.4660  0.4017  0.2605
 3145TIP3    H230851   2.920   5.958  14.067 -2.1439  0.5430  1.4625
 3146TIP3   OH230852   4.003   6.881   1.076  0.0924 -0.1900  0.3235
 3146TIP3    H130853   4.068   6.947   1.051 -1.4105  1.3245  0.2141
 3146TIP3    H230854   3.980   6.903   1.167 -0.7732 -0.2255  0.1276
 3147TIP3   OH230855   5.620   2.125   3.017  0.3609 -0.1162 -0.0655
 3147TIP3    H130856   5.538   2.076   3.022 -1.0399  1.9895 -1.0831
 3147TIP3    H230857   5.687   2.058   3.003 -1.1996 -1.8769  0.4842
 3148TIP3   OH230858   1.269   1.741   3.435 -0.5516  0.2065  0.5942
 3148TIP3    H130859   1.232   1.792   3.507 -0.1980  1.9947 -0.4562
 3148TIP3    H230860   1.268   1.799   3.360  1.7002 -0.6409 -0.1946
 3149TIP3   OH230861   6.616   5.774   3.673  0.0771  0.2357 -0.0677
 3149TIP3    H130862   6.545   5.777   3.609  0.6110 -0.8721 -0.7463
 3149TIP3    H230863   6.611   5.858   3.719 -0.4175  0.9884 -1.4502
 3150TIP3   OH230864   3.635   6.340   2.763 -0.0482 -0.0269 -0.3620
 3150TIP3    H130865   3.619   6.395   2.840 -1.0898  0.4581 -0.9056
 3150TIP3    H230866   3.607   6.393   2.689  1.5258 -0.2545 -1.1525
 3151TIP3   OH230867   3.995   1.673  14.260  0.2284 -0.0911  0.6677
 3151TIP3    H130868   3.999   1.608  14.330  0.5699  0.1389  0.8693
 3151TIP3    H230869   3.978   1.756  14.306 -0.2866 -0.0540  0.4084
 3152TIP3   OH230870   2.005   5.324  12.292  0.1125  0.2146  0.0182
 3152TIP3    H130871   1.986   5.230  12.283 -0.1561  0.4364 -2.3694
 3152TIP3    H230872   2.099   5.327  12.313  0.0228 -0.5646  0.6325
 3153TIP3   OH230873   5.084   2.869  12.144  0.4488 -0.0887  0.1437
 3153TIP3    H130874   5.042   2.905  12.066  0.9943 -0.9768 -0.5727
 3153TIP3    H230875   5.175   2.855  12.118  0.5905 -0.5700  0.8858
 3154TIP3   OH230876   1.421   4.133  14.405 -0.1666 -0.4700 -0.1850
 3154TIP3    H130877   1.408   4.221  14.442 -2.2651 -1.0317  0.5362
 3154TIP3    H230878   1.465   4.085  14.475 -0.4715 -0.4293  0.0376
 3155TIP3   OH230879   3.072   3.351   2.530  0.0432  0.3733 -0.0549
 3155TIP3    H130880   3.130   3.283   2.496  0.8575  1.6149 -1.2485
 3155TIP3    H230881   3.057   3.326   2.621 -1.3220 -2.4668 -0.9443
 3156TIP3   OH230882   6.411   2.276   1.845  1.0155  0.0531  0.0415
 3156TIP3    H130883   6.398   2.270   1.940  3.0176 -0.7749  0.3096
 3156TIP3    H230884   6.413   2.370   1.828 -1.3463  0.2601  0.4495
 3157TIP3   OH230885   3.564   5.992  10.891 -0.4470  0.5050 -0.0465
 3157TIP3    H130886   3.577   5.938  10.969 -1.0835  0.8454  0.3120
 3157TIP3    H230887   3.614   6.072  10.908  0.4752  0.0481 -0.5668
 3158TIP3   OH230888   3.516   3.747  14.128 -0.5153 -0.6877  0.5684
 3158TIP3    H130889   3.535   3.769  14.219 -2.3736  0.2070  0.7750
 3158TIP3    H230890   3.451   3.677  14.133 -1.7528  0.3815 -0.0263
 3159TIP3   OH230891   2.376   0.687   4.313  0.4111  0.5835 -0.2245
 3159TIP3    H130892   2.344   0.641   4.236 -1.2288 -1.4848  1.5804
 3159TIP3    H230893   2.460   0.646   4.332  0.0031 -0.1202  0.0802
 3160TIP3   OH230894   1.004   2.623   5.354  0.6944  0.0563 -0.2120
 3160TIP3    H130895   1.043   2.662   5.433  1.4241 -1.4125  0.1995
 3160TIP3    H230896   0.932   2.681   5.331  1.4064  1.3297  0.6666
 3161TIP3   OH230897   6.685   2.775  11.641 -0.1391 -0.2075  0.5394
 3161TIP3    H130898   6.762   2.831  11.651  0.4200 -0.9699  0.5833
 3161TIP3    H230899   6.651   2.763  11.729 -0.6470  0.5793  0.4620
 3162TIP3   OH230900   2.664   4.300  12.095  0.0627  0.0458 -0.3732
 3162TIP3    H130901   2.570   4.310  12.081 -0.1362 -0.9460  0.1376
 3162TIP3    H230902   2.692   4.243  12.023  0.3496  0.6605 -0.7510
 3163TIP3   OH230903   5.855   0.356   2.306  0.0795 -0.0036  0.1055
 3163TIP3    H130904   5.798   0.315   2.371  0.9543  0.0515  0.9413
 3163TIP3    H230905   5.804   0.357   2.225 -1.0703 -0.0001  0.8116
 3164TIP3   OH230906   3.935   2.438   2.821  0.4818 -0.2049  0.3726
 3164TIP3    H130907   3.870   2.379   2.783 -0.0951 -0.4836  1.7220
 3164TIP3    H230908   4.009   2.435   2.761 -0.3218 -0.7465 -0.6148
 3165TIP3   OH230909   3.385   4.872  16.591  0.2506  0.5846  0.1777
 3165TIP3    H130910   3.315   4.808  16.581 -0.6253  1.2547  1.7684
 3165TIP3    H230911   3.343   4.956  16.574  0.7679  0.9505  0.6785
 3166TIP3   OH230912   5.308   6.693  15.993 -0.4604 -0.2771 -0.3101
 3166TIP3    H130913   5.234   6.633  16.000  0.2420 -1.1222 -0.0403
 3166TIP3    H230914   5.277   6.774  16.032 -0.6079 -1.2268  1.6470
 3167TIP3   OH230915   1.395   3.099  12.822 -0.1129  0.1940  0.2294
 3167TIP3    H130916   1.314   3.055  12.797 -0.1037  1.0656 -1.5367
 3167TIP3    H230917   1.464   3.036  12.799 -0.2022  0.2425 -0.1812
 3168TIP3   OH230918   5.116   6.849  13.791  0.1764  0.2709 -0.4715
 3168TIP3    H130919   5.165   6.783  13.840 -0.0110  1.4233  1.3657
 3168TIP3    H230920   5.179   6.884  13.728  0.5720 -0.9163 -0.7601
 3169TIP3   OH230921   4.085   1.521   1.134  0.8283  0.7268 -0.0096
 3169TIP3    H130922   4.160   1.528   1.075  2.3772  0.4399  1.8156
 3169TIP3    H230923   4.124   1.509   1.221 -1.3179  1.9669  1.2139
 3170TIP3   OH230924   0.364   2.326   4.477 -0.2446 -0.0499  0.2187
 3170TIP3    H130925   0.274   2.304   4.455 -0.5332 -0.4052  1.6730
 3170TIP3    H230926   0.409   2.242   4.481  0.3092  0.1621 -1.0653
 3171TIP3   OH230927   2.776   0.820   3.094  0.0667 -0.3407 -0.3661
 3171TIP3    H130928   2.860   0.832   3.049 -0.0861  1.6153 -0.2390
 3171TIP3    H230929   2.757   0.906   3.131 -2.9052 -0.1961 -1.9350
 3172TIP3   OH230930   2.297   5.856   1.234 -0.2429  0.6256  0.1840
 3172TIP3    H130931   2.209   5.894   1.236 -0.5547 -0.0907  1.9757
 3172TIP3    H230932   2.284   5.763   1.253  0.8920  0.5095  0.4727
 3173TIP3   OH230933   0.561   4.322   4.618 -0.0306  0.3993  0.2272
 3173TIP3    H130934   0.477   4.319   4.571  0.7428  1.1626 -1.2795
 3173TIP3    H230935   0.594   4.410   4.601  1.1762  0.0356  0.6278
 3174TIP3   OH230936   3.598   6.701  10.634  0.0719 -0.2564  0.0645
 3174TIP3    H130937   3.641   6.737  10.711  1.0572 -2.5049  0.6441
 3174TIP3    H230938   3.626   6.757  10.562  1.6126  0.0732  0.8862
 3175TIP3   OH230939   3.694   4.729  14.292  0.1799 -0.9381 -0.0622
 3175TIP3    H130940   3.677   4.652  14.238  1.1510 -0.1195 -1.5965
 3175TIP3    H230941   3.653   4.802  14.245  2.3045  0.0312 -0.5569
 3176TIP3   OH230942   2.892   2.513   3.688 -0.0916  0.4169  0.2510
 3176TIP3    H130943   2.804   2.476   3.691  0.9934 -2.3526  1.5918
 3176TIP3    H230944   2.887   2.590   3.743 -1.4745 -0.2421  1.1094
 3177TIP3   OH230945   6.296   5.595   3.708 -0.2473  0.3151 -0.5303
 3177TIP3    H130946   6.333   5.668   3.658  2.6009 -0.1660  0.6376
 3177TIP3    H230947   6.285   5.630   3.796 -2.2591  0.2834 -0.7405
 3178TIP3   OH230948   3.723   5.788  13.895  0.3466 -0.3504  0.4333
 3178TIP3    H130949   3.736   5.866  13.949  0.9027 -0.4552  0.4554
 3178TIP3    H230950   3.660   5.816  13.828  0.2421  0.0034  0.6729
 3179TIP3   OH230951   4.427   1.117   4.243  0.1897  0.5328 -0.6880
 3179TIP3    H130952   4.372   1.133   4.167 -0.5702  0.8101 -0.0946
 3179TIP3    H230953   4.456   1.026   4.234 -0.5016  0.3336 -0.9291
 3180TIP3   OH230954   1.805   0.181  10.413  0.4226  0.2171  0.5243
 3180TIP3    H130955   1.795   0.179  10.318  1.2539 -0.4842  0.4330
 3180TIP3    H230956   1.869   0.112  10.432  0.6237  0.6574  1.5496
 3181TIP3   OH230957   3.590   1.515   5.206 -0.3219 -0.0226  0.2721
 3181TIP3    H130958   3.570   1.462   5.129 -1.5784  0.2860  0.3669
 3181TIP3    H230959   3.529   1.588   5.201  1.1730  1.2823  0.3099
 3182TIP3   OH230960   2.034   2.641   2.644  0.2065 -0.2433  0.0545
 3182TIP3    H130961   2.060   2.636   2.552 -0.5963  0.5523 -0.2271
 3182TIP3    H230962   2.079   2.567   2.685 -0.9718 -1.8462 -1.3582
 3183TIP3   OH230963   0.183   0.478  14.855  0.5596 -0.0601  0.3014
 3183TIP3    H130964   0.104   0.517  14.817  0.2774  1.5208  2.3444
 3183TIP3    H230965   0.179   0.386  14.828 -0.9081  0.4107 -1.2802
 3184TIP3   OH230966   3.528   6.856  15.403  0.5069 -0.3360 -0.0007
 3184TIP3    H130967   3.513   6.945  15.436  2.3229 -0.5126  1.5029
 3184TIP3    H230968   3.582   6.869  15.325  1.3423 -0.1024  0.5950
 3185TIP3   OH230969   6.119   5.880  13.733 -0.1853  0.3394  0.2491
 3185TIP3    H130970   6.139   5.950  13.670  1.7738  0.9105  1.4168
 3185TIP3    H230971   6.167   5.805  13.700  3.1697  1.3590  2.3566
 3186TIP3   OH230972   5.335   3.249   1.905 -0.5077 -0.0553 -0.4213
 3186TIP3    H130973   5.325   3.159   1.935  0.0125 -0.3701 -1.1593
 3186TIP3    H230974   5.248   3.288   1.914 -0.3590 -0.0830  1.5961
 3187TIP3   OH230975   5.644   4.924   3.101  0.6781 -0.3447  0.6341
 3187TIP3    H130976   5.667   4.986   3.169  2.2066 -0.0276 -0.1468
 3187TIP3    H230977   5.679   4.961   3.020 -2.3044  0.0131 -0.6534
 3188TIP3   OH230978   0.406   2.776  11.778 -0.4274 -0.0602  0.1667
 3188TIP3    H130979   0.332   2.835  11.796 -0.3009  0.4847 -0.9993
 3188TIP3    H230980   0.445   2.811  11.698 -0.5771 -1.9567 -0.8039
 3189TIP3   OH230981   4.299   4.867  10.188 -0.1259 -0.0066  0.3334
 3189TIP3    H130982   4.278   4.889  10.098 -1.4893  0.6019  0.7723
 3189TIP3    H230983   4.285   4.949  10.237  1.1537 -0.1707  1.0144
 3190TIP3   OH230984   3.266   0.401   4.682  0.3105  0.3769 -0.3328
 3190TIP3    H130985   3.190   0.444   4.721  0.1626 -0.0166 -0.1825
 3190TIP3    H230986   3.325   0.472   4.658 -1.0985  0.8921 -2.6270
 3191TIP3   OH230987   5.991   5.945   0.840 -0.5284  0.4529 -0.2818
 3191TIP3    H130988   6.063   5.921   0.781 -0.7531 -0.5280 -0.1647
 3191TIP3    H230989   5.959   5.862   0.874 -1.6584  0.8845 -0.2521
 3192TIP3   OH230990   2.939   3.898   0.201  0.1207  0.3900 -0.6627
 3192TIP3    H130991   2.956   3.804   0.190  0.1351  0.3216 -0.0633
 3192TIP3    H230992   3.024   3.939   0.186  0.5512  0.1530  0.9867
 3193TIP3   OH230993   2.799   4.843  12.349 -0.0047  0.0267  0.0235
 3193TIP3    H130994   2.785   4.765  12.296 -0.9189  0.3474 -0.2260
 3193TIP3    H230995   2.749   4.826  12.429  0.6100 -0.0593  0.3945
 3194TIP3   OH230996   4.129   5.010  11.065  0.2099  0.6399  0.3871
 3194TIP3    H130997   4.222   4.997  11.049  0.1342  0.0070  0.4388
 3194TIP3    H230998   4.095   5.041  10.981  0.2970 -0.0787  0.0761
 3195TIP3   OH230999   3.301   1.906  12.299  0.1474  0.6361  0.3136
 3195TIP3    H131000   3.371   1.971  12.310  1.0414 -0.1038 -0.7430
 3195TIP3    H231001   3.229   1.940  12.351  0.9153  1.9949  0.5535
 3196TIP3   OH231002   1.821   5.700  10.442  0.6848 -0.0968  0.0342
 3196TIP3    H131003   1.843   5.615  10.480  1.3650 -0.8074 -1.8074
 3196TIP3    H231004   1.786   5.679  10.355 -0.4730  1.4478  0.0706
 3197TIP3   OH231005   1.478   0.694   4.535 -0.1237 -1.0628 -0.2719
 3197TIP3    H131006   1.508   0.667   4.621  0.1000  1.8092  0.6663
 3197TIP3    H231007   1.540   0.762   4.509 -3.0371  1.8002 -0.3145
 3198TIP3   OH231008   0.117   0.249  16.260 -0.0425 -0.4055  0.7975
 3198TIP3    H131009   0.168   0.320  16.298 -1.2408  0.8798  0.0792
 3198TIP3    H231010   0.066   0.214  16.333  0.4570 -0.4590  1.1260
 3199TIP3   OH231011   3.198   0.358   5.877  0.1200  0.3070  0.8635
 3199TIP3    H131012   3.120   0.354   5.821  1.0961  0.0248 -0.5207
 3199TIP3    H231013   3.229   0.268   5.881  1.2678  0.6389  0.0609
 3200TIP3   OH231014   5.700   1.022  12.084 -0.3237 -0.2549 -0.2910
 3200TIP3    H131015   5.683   0.935  12.120  1.1083  0.2884  1.8876
 3200TIP3    H231016   5.692   1.081  12.158  1.2120  1.1551 -1.1721
 3201TIP3   OH231017   3.191   2.576  14.149 -0.5450 -0.0341 -0.4539
 3201TIP3    H131018   3.267   2.522  14.127 -1.5284 -0.7995 -2.0844
 3201TIP3    H231019   3.150   2.532  14.223  0.9447  0.7756  0.9363
 3202TIP3   OH231020   0.391   0.037   0.929 -0.6914  0.1621  0.2521
 3202TIP3    H131021   0.335   0.115   0.925 -0.6732  0.2152  1.0046
 3202TIP3    H231022   0.408   0.016   0.837 -1.6721  0.3448  0.0150
 3203TIP3   OH231023   2.772   4.853  11.993  0.6962 -0.9021  0.1986
 3203TIP3    H131024   2.799   4.931  12.041  0.2444 -0.2006 -0.6596
 3203TIP3    H231025   2.730   4.798  12.058 -0.4642  0.3065  0.5073
 3204TIP3   OH231026   4.549   2.716  11.467  0.7306  0.3598  0.3836
 3204TIP3    H131027   4.602   2.737  11.390 -0.0414 -2.1137 -0.9319
 3204TIP3    H231028   4.462   2.750  11.447  0.0468 -1.8560 -0.7736
 3205TIP3   OH231029   3.824   5.238  10.934  0.2417  0.4202 -0.3071
 3205TIP3    H131030   3.804   5.312  10.992  0.4824  0.2274  0.0287
 3205TIP3    H231031   3.920   5.230  10.939  0.2258  0.1632 -0.4378
 3206TIP3   OH231032   2.820   6.281  13.987  0.0323 -0.0301  0.1041
 3206TIP3    H131033   2.900   6.289  14.039  0.1898 -0.5913 -0.0411
 3206TIP3    H231034   2.844   6.310  13.900 -0.4278  1.6452  0.4959
 3207TIP3   OH231035   4.715   5.575   2.808 -0.4433 -0.3497 -0.4024
 3207TIP3    H131036   4.731   5.656   2.858 -0.8679 -0.4008 -0.1866
 3207TIP3    H231037   4.797   5.561   2.760 -0.5967  0.5751 -0.9545
 3208TIP3   OH231038   4.398   3.871  11.988 -0.5513 -0.8372 -1.0154
 3208TIP3    H131039   4.356   3.906  12.067  0.4509 -2.1102  0.1221
 3208TIP3    H231040   4.330   3.878  11.921 -1.6390 -0.2710  0.0882
 3209TIP3   OH231041   4.176   6.539   3.830  0.1177  0.0944 -0.3097
 3209TIP3    H131042   4.144   6.478   3.896 -1.6421  0.5360 -0.7129
 3209TIP3    H231043   4.120   6.616   3.839  0.7978  0.7343 -1.3539
 3210TIP3   OH231044   6.012   6.160   1.109 -0.1470 -0.2215 -0.0947
 3210TIP3    H131045   5.980   6.075   1.138  0.4797  0.4014  2.6522
 3210TIP3    H231046   5.944   6.191   1.048 -1.3459 -1.8252  0.3519
 3211TIP3   OH231047   4.494   4.427   1.962 -0.0164 -0.3943  0.2128
 3211TIP3    H131048   4.445   4.375   1.899  1.4153 -0.2996 -1.0386
 3211TIP3    H231049   4.459   4.516   1.954  1.7220  0.1803 -2.3029
 3212TIP3   OH231050   1.449   4.527   6.232 -0.2136 -0.1826  0.3803
 3212TIP3    H131051   1.511   4.472   6.281  1.3992 -1.8881 -3.2201
 3212TIP3    H231052   1.366   4.481   6.240  0.1522 -0.7763  0.9481
 3213TIP3   OH231053   5.736   1.082   5.399  0.1579  0.6509  0.4412
 3213TIP3    H131054   5.693   1.072   5.314  0.5940 -0.2098  0.3046
 3213TIP3    H231055   5.830   1.078   5.378  0.2687 -0.7793  1.0719
 3214TIP3   OH231056   4.028   1.974   5.030  0.1295  0.0417  0.6810
 3214TIP3    H131057   4.026   2.070   5.027  2.4301  0.1364 -1.3463
 3214TIP3    H231058   4.114   1.953   5.066 -0.9728 -1.3473  2.6778
 3215TIP3   OH231059   2.682   3.540  13.670 -0.2602 -0.1747 -0.3076
 3215TIP3    H131060   2.625   3.535  13.747 -1.4055  2.9060 -0.8016
 3215TIP3    H231061   2.621   3.547  13.597  0.6605  1.9714 -0.9636
 3216TIP3   OH231062   1.827   4.162   0.999  0.0274 -0.0908  0.0074
 3216TIP3    H131063   1.750   4.125   0.956 -1.2717 -0.0889  2.2237
 3216TIP3    H231064   1.801   4.173   1.090  1.8366  2.2371  0.3215
 3217TIP3   OH231065   1.149   6.084  15.591 -0.4443  0.0690 -0.3856
 3217TIP3    H131066   1.080   6.019  15.608 -0.6068  0.0152 -1.2103
 3217TIP3    H231067   1.205   6.042  15.526  0.8410 -0.2082  0.8616
 3218TIP3   OH231068   4.985   5.301   4.673 -0.3686  0.0889  0.0596
 3218TIP3    H131069   5.031   5.308   4.590 -0.7541  0.2101 -0.1499
 3218TIP3    H231070   5.027   5.229   4.719 -2.0454 -2.0115 -1.4990
 3219TIP3   OH231071   1.858   1.295   3.306  0.4335  0.5723  0.2590
 3219TIP3    H131072   1.789   1.263   3.365  0.0902  0.5083 -0.1707
 3219TIP3    H231073   1.938   1.293   3.359  0.4482 -1.0902  0.2365
 3220TIP3   OH231074   0.147   6.843   2.071 -0.4240  0.1377 -0.0987
 3220TIP3    H131075   0.150   6.754   2.104 -1.6434 -0.0839 -0.5336
 3220TIP3    H231076   0.058   6.873   2.090  0.6627  2.1852  2.3443
 3221TIP3   OH231077   2.988   5.708  10.981  0.3016 -0.0044 -0.3479
 3221TIP3    H131078   2.896   5.709  11.007 -0.0101  3.2305 -1.1033
 3221TIP3    H231079   3.002   5.619  10.948 -2.1565 -0.9979  1.0016
 3222TIP3   OH231080   4.131   1.407   2.634 -0.0848  0.1004  0.5802
 3222TIP3    H131081   4.144   1.499   2.611 -0.0660  0.1716  0.8709
 3222TIP3    H231082   4.220   1.374   2.649 -0.1214  0.1607  0.9469
 3223TIP3   OH231083   2.865   2.667   2.857  0.1288 -0.2510 -0.2561
 3223TIP3    H131084   2.832   2.754   2.879 -0.8204 -0.6834  0.0901
 3223TIP3    H231085   2.833   2.650   2.768  1.0832  0.1133 -0.6792
 3224TIP3   OH231086   4.627   0.663  13.683 -0.9200  0.0196  0.8275
 3224TIP3    H131087   4.678   0.652  13.764 -0.2519  0.3285  0.4554
 3224TIP3    H231088   4.690   0.648  13.613 -1.8355 -1.7434  0.3391
 3225TIP3   OH231089   3.387   3.391  10.974 -0.6743  0.2610 -0.5605
 3225TIP3    H131090   3.443   3.328  10.928 -0.4281  0.6041 -0.7345
 3225TIP3    H231091   3.324   3.420  10.908  0.7909  2.1266 -1.2522
 3226TIP3   OH231092   4.874   5.184  15.450  0.3437 -0.6916  0.0870
 3226TIP3    H131093   4.925   5.147  15.522  1.9100  2.1314  0.5738
 3226TIP3    H231094   4.930   5.169  15.373  0.2414 -0.7178  0.0186
 3227TIP3   OH231095   3.640   3.776  14.364  0.1793  0.0012  0.3088
 3227TIP3    H131096   3.599   3.774  14.450 -0.3550 -1.2048  0.0462
 3227TIP3    H231097   3.729   3.745  14.379 -0.6865 -2.9497  0.0921
 3228TIP3   OH231098   4.533   2.414   2.656 -0.1467 -0.1484 -0.0154
 3228TIP3    H131099   4.570   2.449   2.575 -2.3337 -0.9664 -1.4613
 3228TIP3    H231100   4.574   2.465   2.726  0.5500  1.7596 -1.7384
 3229TIP3   OH231101   3.137   3.479  11.516  0.6233 -0.0343 -0.5602
 3229TIP3    H131102   3.122   3.387  11.493  1.8245 -0.2546 -0.5132
 3229TIP3    H231103   3.103   3.487  11.605  1.2653 -0.6520 -0.2486
 3230TIP3   OH231104   2.211   2.941   0.266  0.2037  0.5116  0.2462
 3230TIP3    H131105   2.131   2.993   0.258  1.2360  2.9021  3.2275
 3230TIP3    H231106   2.278   2.995   0.223  0.7518  0.1359  0.6178
 3231TIP3   OH231107   6.876   4.600  14.574 -0.1407  0.1786  0.0024
 3231TIP3    H131108   6.830   4.531  14.621 -0.6055 -0.7538 -1.7206
 3231TIP3    H231109   6.966   4.568  14.567  0.0621  0.5747  0.7037
 3232TIP3   OH231110   2.995   3.123  16.219  0.3334 -0.0336  0.6129
 3232TIP3    H131111   3.010   3.042  16.170  2.9852 -0.2686  1.6186
 3232TIP3    H231112   3.006   3.192  16.154 -0.8756 -0.4177 -0.0304
 3233TIP3   OH231113   1.617   2.019  15.558 -0.3703  0.0337 -0.5710
 3233TIP3    H131114   1.542   1.991  15.611 -0.4174 -0.1372 -0.7247
 3233TIP3    H231115   1.599   1.983  15.471  0.8134 -1.6643 -0.1597
 3234TIP3   OH231116   0.721   0.402  15.256 -0.6970  0.4753 -0.3444
 3234TIP3    H131117   0.815   0.388  15.254 -0.8153 -0.4507  0.1064
 3234TIP3    H231118   0.686   0.344  15.187 -1.1365 -1.0733  1.1180
 3235TIP3   OH231119   6.201   3.342   0.124  0.3226  0.2649 -0.0645
 3235TIP3    H131120   6.294   3.361   0.118  0.2144  0.5363 -1.1101
 3235TIP3    H231121   6.194   3.247   0.117  0.5556  0.1947  0.6171
 3236TIP3   OH231122   2.985   3.536  15.865 -0.4009  0.2317  0.0981
 3236TIP3    H131123   3.073   3.552  15.899 -0.2567 -0.2027 -0.0687
 3236TIP3    H231124   2.949   3.624  15.851 -0.9607  0.4720  2.5925
 3237TIP3   OH231125   1.971   5.005  12.029 -0.5414 -0.1253  0.2331
 3237TIP3    H131126   2.011   4.929  12.072 -1.5028 -1.3436 -0.9334
 3237TIP3    H231127   1.877   4.990  12.036 -0.7332  0.4730 -0.8562
 3238TIP3   OH231128   6.033   6.832  13.015 -0.2688  0.0473  0.2778
 3238TIP3    H131129   5.960   6.814  13.074  1.4016 -2.1830  1.8445
 3238TIP3    H231130   6.064   6.745  12.988  0.9461  0.9506 -1.4710
 3239TIP3   OH231131   6.570   5.976   3.046 -0.2448 -0.0522  0.0821
 3239TIP3    H131132   6.530   5.890   3.061 -1.7012  0.8317  1.5319
 3239TIP3    H231133   6.643   5.979   3.109  1.1981 -1.0223 -1.4537
 3240TIP3   OH231134   5.107   3.252   4.824 -0.1006  0.2756  0.7075
 3240TIP3    H131135   5.047   3.269   4.751 -0.5651  1.9503  1.4355
 3240TIP3    H231136   5.072   3.175   4.867 -0.7686  0.2473  0.1250
 3241TIP3   OH231137   5.050   3.346   9.846 -0.0140  0.1711 -0.0097
 3241TIP3    H131138   5.146   3.348   9.838  0.1706 -2.0636  0.9948
 3241TIP3    H231139   5.028   3.427   9.891  1.7679 -0.6715  2.5703
 3242TIP3   OH231140   3.215   5.905  14.311  0.1866 -0.8595  0.5588
 3242TIP3    H131141   3.140   5.925  14.255  0.6264 -1.9718 -0.4938
 3242TIP3    H231142   3.183   5.837  14.370 -0.3383  0.4629  1.8423
 3243TIP3   OH231143   6.697   2.587   5.735 -0.0225  0.5397  0.2562
 3243TIP3    H131144   6.620   2.534   5.757  0.8978 -0.8509  0.2845
 3243TIP3    H231145   6.714   2.566   5.643  1.1445 -0.3070  0.6356
 3244TIP3   OH231146   3.149   6.883  14.979  0.0470 -0.4446 -0.6696
 3244TIP3    H131147   3.071   6.915  15.025 -0.8021 -1.5807 -1.2555
 3244TIP3    H231148   3.123   6.798  14.944  1.8414 -1.2339 -0.1865
 3245TIP3   OH231149   4.429   1.774  13.042 -0.5131  0.0574  0.2016
 3245TIP3    H131150   4.434   1.865  13.013  0.5986  1.1308  3.3807
 3245TIP3    H231151   4.509   1.733  13.008 -0.3296  0.6442 -0.0823
 3246TIP3   OH231152   0.533   1.767  15.012 -0.0873 -0.4119  0.1527
 3246TIP3    H131153   0.614   1.812  14.987 -0.4150  0.8789  1.2429
 3246TIP3    H231154   0.563   1.688  15.058  0.6584  0.8636  2.0282
 3247TIP3   OH231155   1.835   1.368  12.604 -0.5075 -0.4123 -0.4796
 3247TIP3    H131156   1.780   1.291  12.616  0.1238 -0.7211  0.5842
 3247TIP3    H231157   1.925   1.335  12.613 -0.2353  0.4947  0.3491
 3248TIP3   OH231158   1.343   1.827  12.818  0.1573  0.0597 -0.0407
 3248TIP3    H131159   1.330   1.738  12.786  0.4436  0.2992 -0.8736
 3248TIP3    H231160   1.437   1.842  12.809  0.2979  0.0380  1.2331
 3249TIP3   OH231161   2.808   0.303   1.398 -0.3791 -0.2381 -0.1556
 3249TIP3    H131162   2.767   0.240   1.339 -1.3134 -0.7498  1.0018
 3249TIP3    H231163   2.893   0.322   1.358 -0.8851 -0.7542 -1.5195
 3250TIP3   OH231164   1.315   5.093  13.292  0.0755 -0.0807  0.7182
 3250TIP3    H131165   1.351   5.173  13.255 -0.2540 -0.0854  0.3898
 3250TIP3    H231166   1.291   5.117  13.382 -2.1013  0.8195 -0.0559
 3251TIP3   OH231167   5.551   2.907  16.581  0.3257 -0.2830 -0.2803
 3251TIP3    H131168   5.528   2.820  16.549  1.9622 -0.2342 -1.6997
 3251TIP3    H231169   5.598   2.891  16.663 -1.2365 -0.5712  0.6089
 3252TIP3   OH231170   3.332   0.122   1.311  0.9597 -0.4095 -0.6054
 3252TIP3    H131171   3.357   0.047   1.365 -2.0220 -0.8621  0.3538
 3252TIP3    H231172   3.237   0.114   1.302  0.5777  2.9542 -0.9201
 3253TIP3   OH231173   4.894   4.424  11.085 -0.1826  0.6328 -0.6267
 3253TIP3    H131174   4.927   4.491  11.144 -1.1483  0.9734 -0.4609
 3253TIP3    H231175   4.955   4.351  11.095  0.6891  1.3522 -0.5612
 3254TIP3   OH231176   0.979   6.527  10.037 -0.3318  0.4115  0.3307
 3254TIP3    H131177   0.926   6.602  10.013 -0.7745 -0.3152 -1.1286
 3254TIP3    H231178   0.919   6.453  10.035  0.0992 -0.0088  1.7177
 3255TIP3   OH231179   2.839   3.310  13.535 -0.0698  0.0140 -0.4667
 3255TIP3    H131180   2.795   3.270  13.460  0.0458  0.6195 -0.8687
 3255TIP3    H231181   2.769   3.353  13.584 -0.0835 -0.0094 -0.4655
 3256TIP3   OH231182   4.549   1.868   3.733 -0.0076  0.3626 -0.8085
 3256TIP3    H131183   4.606   1.935   3.694  0.5596 -0.0135 -0.6329
 3256TIP3    H231184   4.609   1.799   3.761 -0.2688  0.9550  1.4487
 3257TIP3   OH231185   3.612   0.063   3.339 -0.1589  0.3019 -0.8913
 3257TIP3    H131186   3.528   0.017   3.340  1.4507 -2.8898 -1.3045
 3257TIP3    H231187   3.632   0.079   3.431 -0.4581 -0.4189 -0.6972
 3258TIP3   OH231188   5.679   6.610  11.976  0.2691 -0.5416  0.1037
 3258TIP3    H131189   5.753   6.628  11.917  1.6279 -1.0559  1.5681
 3258TIP3    H231190   5.672   6.689  12.031  1.8652 -1.6670  2.0685
 3259TIP3   OH231191   1.324   0.805   4.082 -0.3585 -0.6683 -0.3065
 3259TIP3    H131192   1.414   0.777   4.099 -0.0288  0.1823 -0.5789
 3259TIP3    H231193   1.284   0.813   4.168 -0.1068 -0.8350 -0.1736
 3260TIP3   OH231194   4.213   2.322   4.462 -0.3802 -0.1869 -0.6362
 3260TIP3    H131195   4.296   2.331   4.509 -0.2412  1.2346 -1.1252
 3260TIP3    H231196   4.152   2.290   4.529  0.4999 -1.1118 -0.2334
 3261TIP3   OH231197   0.963   1.162   0.473 -0.1896 -0.0377 -0.7171
 3261TIP3    H131198   1.037   1.159   0.413 -1.2530 -0.4877 -2.0635
 3261TIP3    H231199   0.889   1.190   0.418 -0.7887  1.6021  0.8315
 3262TIP3   OH231200   4.401   6.287   1.479 -0.0159  0.0700  0.4430
 3262TIP3    H131201   4.375   6.353   1.414 -1.4952 -0.7133  0.1921
 3262TIP3    H231202   4.354   6.313   1.558  0.6246  0.1836  0.7914
 3263TIP3   OH231203   3.346   1.605  15.838  0.5748  0.4530  0.1055
 3263TIP3    H131204   3.251   1.614  15.835  0.7672  2.7903 -0.4190
 3263TIP3    H231205   3.372   1.598  15.746  0.8060 -2.4715  0.2955
 3264TIP3   OH231206   3.061   2.904  15.112  0.5955 -0.0676 -0.6510
 3264TIP3    H131207   3.070   2.823  15.061  3.5040  0.5881 -1.3794
 3264TIP3    H231208   3.125   2.896  15.182 -0.8573  0.5905  0.8194
 3265TIP3   OH231209   0.886   2.058   4.747 -0.5023  0.0317  0.1072
 3265TIP3    H131210   0.795   2.030   4.735 -2.3631  3.7873  3.0792
 3265TIP3    H231211   0.912   2.019   4.831 -0.3763  0.9848  0.5271
 3266TIP3   OH231212   0.327   5.822   0.151  0.9249  0.4536  0.6288
 3266TIP3    H131213   0.413   5.865   0.150  1.8865 -1.3187 -1.5804
 3266TIP3    H231214   0.328   5.765   0.074 -2.7370  1.2888 -0.2355
 3267TIP3   OH231215   0.664   6.567  16.521  0.5118  0.2082 -0.2710
 3267TIP3    H131216   0.684   6.501  16.454  2.5120  0.9236 -0.4564
 3267TIP3    H231217   0.650   6.516  16.601 -2.9848 -0.7408 -1.3471
 3268TIP3   OH231218   5.705   3.757  14.497  0.5030  0.1342 -0.4063
 3268TIP3    H131219   5.642   3.828  14.511  1.2807  0.7932 -0.1071
 3268TIP3    H231220   5.703   3.707  14.579  0.0012 -0.1450 -0.5900
 3269TIP3   OH231221   6.499   4.029   1.064  0.0094 -0.4248 -0.3367
 3269TIP3    H131222   6.505   4.109   1.012  0.8836 -0.6665 -0.6321
 3269TIP3    H231223   6.406   4.020   1.085 -0.2566  0.0490 -1.2754
 3270TIP3   OH231224   2.773   3.171  15.172 -0.2535  0.1531 -0.7556
 3270TIP3    H131225   2.868   3.179  15.179 -0.2650 -0.4735  0.3336
 3270TIP3    H231226   2.740   3.260  15.184  0.1753  0.3525 -1.0243
 3271TIP3   OH231227   2.747   2.975  12.232  0.6628  0.2391 -0.2880
 3271TIP3    H131228   2.813   2.944  12.170  0.3874  1.3392 -1.1592
 3271TIP3    H231229   2.768   2.929  12.314  0.7241 -1.6358 -1.2915
 3272TIP3   OH231230   0.806   6.621   4.341  0.0790  0.1099 -0.4502
 3272TIP3    H131231   0.894   6.609   4.377 -0.6993 -0.5446  1.3540
 3272TIP3    H231232   0.778   6.706   4.374 -0.1286  0.1153 -0.6402
 3273TIP3   OH231233   4.949   3.302   0.449  0.3676 -0.3699  0.0561
 3273TIP3    H131234   4.880   3.273   0.389 -0.6697  1.3464  0.3656
 3273TIP3    H231235   5.029   3.298   0.396 -0.4323  0.5559 -1.2885
 3274TIP3   OH231236   5.663   2.862   1.729 -0.0653 -0.3581  0.3024
 3274TIP3    H131237   5.622   2.784   1.767  0.8251 -0.8361  0.3222
 3274TIP3    H231238   5.715   2.898   1.801 -0.3339  0.1605  0.2389
 3275TIP3   OH231239   3.237   0.095  11.402  0.5512 -0.1383 -0.1049
 3275TIP3    H131240   3.230   0.092  11.498  2.6024 -2.2670  0.0660
 3275TIP3    H231241   3.155   0.057  11.371 -0.4798  1.2752  0.7110
 3276TIP3   OH231242   6.392   0.154  12.421 -0.2951  0.0501 -0.1655
 3276TIP3    H131243   6.422   0.163  12.331 -0.8136  1.1500 -0.2480
 3276TIP3    H231244   6.370   0.243  12.448  0.9987 -0.0512  1.4560
 3277TIP3   OH231245   4.412   5.318  15.066 -0.0564  0.2950  0.8062
 3277TIP3    H131246   4.348   5.383  15.038  0.6265  0.5935 -0.0770
 3277TIP3    H231247   4.428   5.264  14.989  0.4881 -0.0067  1.1193
 3278TIP3   OH231248   5.572   0.899  10.587 -0.3039  0.2584 -0.9567
 3278TIP3    H131249   5.622   0.933  10.661 -1.7335 -0.8292  0.5823
 3278TIP3    H231250   5.631   0.837  10.544 -0.9776 -3.0593  2.3887
 3279TIP3   OH231251   4.324   3.648   4.519  0.5896  0.3747 -0.0338
 3279TIP3    H131252   4.365   3.645   4.606  1.9839  0.6326 -0.6420
 3279TIP3    H231253   4.294   3.559   4.503  0.5409  0.2723  0.6130
 3280TIP3   OH231254   6.790   1.215  10.825 -0.5744 -0.2469  0.2117
 3280TIP3    H131255   6.711   1.174  10.861 -2.3600  2.1897 -0.6807
 3280TIP3    H231256   6.821   1.153  10.759 -1.5153 -1.4177  0.8336
 3281TIP3   OH231257   3.469   5.686  15.477  0.1185  0.1649  0.3752
 3281TIP3    H131258   3.458   5.773  15.437 -0.4744  0.2099  0.6289
 3281TIP3    H231259   3.455   5.625  15.405 -2.2985  0.2017  0.7498
 3282TIP3   OH231260   2.763   6.895   2.443 -0.1402  0.4854 -0.4149
 3282TIP3    H131261   2.835   6.956   2.457  0.5495 -0.4735  0.2979
 3282TIP3    H231262   2.684   6.948   2.460  0.4510  1.1106  0.4581
 3283TIP3   OH231263   2.453   5.831  13.962 -0.2278 -0.0997 -0.1968
 3283TIP3    H131264   2.439   5.810  13.870 -0.7128  0.1524 -0.1840
 3283TIP3    H231265   2.376   5.797  14.007  0.6263 -1.4295  0.3090
 3284TIP3   OH231266   5.933   6.509  10.951 -0.3038 -0.6118 -0.8958
 3284TIP3    H131267   5.899   6.557  11.027 -0.4818 -2.9003  0.5619
 3284TIP3    H231268   5.942   6.419  10.982  0.2755 -1.4902 -3.4227
 3285TIP3   OH231269   1.638   0.790   2.979 -0.3621 -0.4134 -0.0996
 3285TIP3    H131270   1.643   0.714   3.037 -1.5295 -1.4087 -1.2550
 3285TIP3    H231271   1.614   0.863   3.037  0.4013 -0.9740  0.9577
 3286TIP3   OH231272   0.300   3.885  16.408  0.7917  0.4412  0.3209
 3286TIP3    H131273   0.339   3.970  16.428 -1.8281  1.3166  2.3000
 3286TIP3    H231274   0.244   3.902  16.332  0.1056  0.5822  0.8454
 3287TIP3   OH231275   2.690   0.790   4.691 -0.1451 -0.4102 -0.0827
 3287TIP3    H131276   2.741   0.838   4.627 -1.6304 -0.8611 -1.6723
 3287TIP3    H231277   2.750   0.724   4.726  0.5475 -0.5164 -1.4261
 3288TIP3   OH231278   0.636   3.502  15.743  0.0268  0.0800 -0.2765
 3288TIP3    H131279   0.648   3.542  15.829  1.8853  1.6500 -1.1990
 3288TIP3    H231280   0.708   3.440  15.735 -1.0581 -1.2624 -0.1196
 3289TIP3   OH231281   3.154   0.448  13.272 -0.2836 -0.7431  0.2233
 3289TIP3    H131282   3.167   0.359  13.305  1.1149 -0.3767  0.7230
 3289TIP3    H231283   3.202   0.503  13.333  1.2488  0.0976 -1.6410
 3290TIP3   OH231284   2.554   1.364  12.016 -0.3013 -0.3217 -0.6047
 3290TIP3    H131285   2.540   1.307  12.091 -0.1195 -0.8643 -0.9820
 3290TIP3    H231286   2.479   1.425  12.018 -0.4807 -0.5566 -0.1913
 3291TIP3   OH231287   5.100   1.749  12.594 -0.0320 -0.1802 -0.0765
 3291TIP3    H131288   5.057   1.671  12.561  0.1912  0.0247 -0.8552
 3291TIP3    H231289   5.169   1.768  12.531 -1.5329  1.9680 -1.1978
 3292TIP3   OH231290   0.312   2.117   2.193  0.2492 -0.0046 -0.4533
 3292TIP3    H131291   0.397   2.152   2.220 -0.1815  1.6739 -1.1416
 3292TIP3    H231292   0.331   2.028   2.163  1.7738  0.3699 -0.6933
 3293TIP3   OH231293   3.838   4.281  15.207 -0.2673  0.5546 -0.4207
 3293TIP3    H131294   3.759   4.297  15.260 -0.2815 -0.5072 -0.0962
 3293TIP3    H231295   3.908   4.326  15.254 -0.2806 -0.3733  0.5382
 3294TIP3   OH231296   6.171   4.544   0.512  0.1771 -0.0843 -0.0527
 3294TIP3    H131297   6.223   4.485   0.457 -0.2470 -0.5694  0.0555
 3294TIP3    H231298   6.083   4.507   0.508  0.1216 -0.0580  0.8688
 3295TIP3   OH231299   0.255   6.271  11.688  0.9323 -0.4528 -0.6238
 3295TIP3    H131300   0.257   6.203  11.756  2.0773  0.0680 -0.1139
 3295TIP3    H231301   0.336   6.320  11.700  1.6520 -0.9230 -2.9769
 3296TIP3   OH231302   0.541   5.567  11.937 -0.0181  0.5495  0.1852
 3296TIP3    H131303   0.569   5.627  12.007 -1.8361  1.3708  0.2672
 3296TIP3    H231304   0.569   5.611  11.857  2.3576 -0.5463  0.3319
 3297TIP3   OH231305   2.312   1.147  14.513  0.1549  0.6335 -0.5676
 3297TIP3    H131306   2.398   1.172  14.547 -0.2032  1.3599 -0.1739
 3297TIP3    H231307   2.289   1.068  14.563  1.9121 -1.4265 -2.8056
 3298TIP3   OH231308   4.075   0.136  14.544  0.0830 -0.1765  0.0546
 3298TIP3    H131309   4.151   0.078  14.534  0.5343  0.1542  1.4336
 3298TIP3    H231310   4.089   0.205  14.479 -0.1446 -1.2365 -1.1774
 3299TIP3   OH231311   5.691   1.088   4.575  0.0621 -0.0847 -0.2000
 3299TIP3    H131312   5.644   1.087   4.658 -0.6315 -1.7290 -0.5721
 3299TIP3    H231313   5.762   1.025   4.586 -0.5142 -0.9112 -1.1018
 3300TIP3   OH231314   6.577   6.641  11.350 -0.8049 -0.5956  0.7764
 3300TIP3    H131315   6.556   6.675  11.437 -1.1207  1.5453 -0.0696
 3300TIP3    H231316   6.498   6.594  11.323 -2.3175  2.1051  0.1209
 3301TIP3   OH231317   5.966   6.479  12.719 -0.1565 -0.2304  0.0621
 3301TIP3    H131318   6.043   6.512  12.673  0.0131  1.0313  1.1995
 3301TIP3    H231319   6.000   6.440  12.799 -0.6135 -0.6945  0.0371
 3302TIP3   OH231320   1.869   0.239   5.858  0.2691 -0.3195 -0.1905
 3302TIP3    H131321   1.795   0.193   5.818 -0.4877 -0.2790  1.1126
 3302TIP3    H231322   1.924   0.170   5.894  0.5108 -0.3189 -0.5580
 3303TIP3   OH231323   5.264   4.687   5.090  0.2600  0.2617  0.0255
 3303TIP3    H131324   5.196   4.628   5.121  0.1462 -0.1364 -0.9512
 3303TIP3    H231325   5.216   4.757   5.046  0.4391  0.5586  0.2984
 3304TIP3   OH231326   6.048   3.816   0.931 -0.0539 -0.3268  0.3431
 3304TIP3    H131327   6.022   3.887   0.872 -0.3833 -1.2751 -0.6735
 3304TIP3    H231328   6.108   3.858   0.993 -0.1470  0.8104 -0.3011
 3305TIP3   OH231329   0.882   1.880   3.712 -0.4020  0.1612 -0.7461
 3305TIP3    H131330   0.901   1.947   3.777 -2.4882 -0.7487  0.9012
 3305TIP3    H231331   0.786   1.876   3.708 -0.3840 -2.7552 -0.6730
 3306TIP3   OH231332   3.796   1.460  10.514  0.0233  0.1206 -0.5843
 3306TIP3    H131333   3.701   1.472  10.505  0.1951  0.8416 -1.5778
 3306TIP3    H231334   3.810   1.450  10.608 -0.7865  2.3781 -0.1709
 3307TIP3   OH231335   2.216   5.588  10.376 -0.0171 -0.6729 -0.0243
 3307TIP3    H131336   2.297   5.557  10.335 -0.3060 -0.9307 -0.4162
 3307TIP3    H231337   2.162   5.616  10.302  0.2451  0.8253  0.3054
 3308TIP3   OH231338   4.551   2.390   0.949  0.5422 -0.1340 -1.0084
 3308TIP3    H131339   4.637   2.433   0.948  0.6227 -0.0910  1.2050
 3308TIP3    H231340   4.488   2.461   0.952  0.6274 -0.0700  1.2213
 3309TIP3   OH231341   3.050   0.527  16.006  0.5255 -0.0371  0.0202
 3309TIP3    H131342   3.094   0.499  16.086  0.1077 -0.2830  0.1619
 3309TIP3    H231343   3.099   0.605  15.978  1.1982 -0.4450  0.0438
 3310TIP3   OH231344   5.015   5.942  12.394  0.1368 -0.2635  0.1735
 3310TIP3    H131345   4.925   5.947  12.426  0.4546 -1.2216  1.2547
 3310TIP3    H231346   5.063   6.004  12.448  0.3290 -0.5182  0.2917
 3311TIP3   OH231347   2.590   1.833  15.969 -0.2559 -0.1800  0.0514
 3311TIP3    H131348   2.603   1.875  16.054  0.4783 -0.1963 -0.0471
 3311TIP3    H231349   2.598   1.739  15.986  1.2246 -0.1239 -0.2501
 3312TIP3   OH231350   0.182   5.724   4.418  0.1794 -0.5820  0.4766
 3312TIP3    H131351   0.141   5.791   4.362 -0.4938 -0.5550  0.9889
 3312TIP3    H231352   0.276   5.740   4.410  0.0172  2.2715  2.7886
 3313TIP3   OH231353   1.418   3.070  12.114 -0.1360  0.2092  0.4135
 3313TIP3    H131354   1.421   2.975  12.129  2.5472  0.4147  1.7930
 3313TIP3    H231355   1.496   3.089  12.062  0.5311  1.8658  1.9023
 3314TIP3   OH231356   5.167   6.350   4.954  0.3167 -0.6790  0.0810
 3314TIP3    H131357   5.091   6.409   4.955  0.4605 -0.4855 -0.3715
 3314TIP3    H231358   5.141   6.278   5.012 -0.3626 -0.8091 -0.3684
 3315TIP3   OH231359   4.723   2.220   1.819 -0.3426 -0.1143 -0.2609
 3315TIP3    H131360   4.788   2.205   1.751 -1.5643 -0.2483 -1.4222
 3315TIP3    H231361   4.747   2.158   1.889  0.4956 -0.4801 -0.8565
 3316TIP3   OH231362   0.746   0.489   0.761  0.2063 -0.4217  0.8798
 3316TIP3    H131363   0.799   0.467   0.838  0.8685 -0.0350  0.5458
 3316TIP3    H231364   0.691   0.412   0.747  0.3717 -0.6612  1.4923
 3317TIP3   OH231365   0.809   6.514  16.085  0.8641  0.3455 -0.0996
 3317TIP3    H131366   0.775   6.496  15.997  2.8789 -0.3159 -0.7912
 3317TIP3    H231367   0.762   6.593  16.112 -2.0208 -1.1071 -0.4748
 3318TIP3   OH231368   0.067   6.500  14.365  0.4459  0.0308  0.1226
 3318TIP3    H131369   0.049   6.416  14.323  1.2170 -0.5683  0.9394
 3318TIP3    H231370   0.005   6.561  14.325 -1.0619 -1.2118  0.4835
 3319TIP3   OH231371   4.518   4.766  14.439  0.5207  0.5976 -0.6785
 3319TIP3    H131372   4.565   4.687  14.413 -0.2825 -0.0746 -0.1430
 3319TIP3    H231373   4.426   4.748  14.416  0.4192  1.6483 -1.1766
 3320TIP3   OH231374   2.331   3.566  10.458  0.3699 -0.0634  0.0441
 3320TIP3    H131375   2.420   3.533  10.472  1.6508  2.6993 -0.9392
 3320TIP3    H231376   2.334   3.655  10.491 -1.4791  0.7558 -1.8416
 3321TIP3   OH231377   6.807   3.040   5.205  0.4735  0.0435 -0.6911
 3321TIP3    H131378   6.793   3.006   5.293  0.6625  1.2312 -0.1795
 3321TIP3    H231379   6.805   2.963   5.149 -0.3780 -0.6504  0.2634
 3322TIP3   OH231380   1.405   6.366   0.840 -0.3105  0.2848 -0.4363
 3322TIP3    H131381   1.442   6.405   0.761  3.7579  0.9193  1.5487
 3322TIP3    H231382   1.387   6.439   0.898 -0.0700 -0.3395  0.4498
 3323TIP3   OH231383   2.004   4.379  13.484  0.1698  0.0398  0.4427
 3323TIP3    H131384   2.055   4.379  13.403 -1.0664  0.6822 -0.3672
 3323TIP3    H231385   1.913   4.393  13.455 -0.4034 -0.5345  1.8746
 3324TIP3   OH231386   0.844   4.665   2.032  0.4935 -0.5710 -0.2313
 3324TIP3    H131387   0.915   4.643   2.092  1.1762  0.1958 -0.7314
 3324TIP3    H231388   0.824   4.757   2.051  1.6246  0.1146 -2.0060
 3325TIP3   OH231389   5.281   6.339   1.657 -0.0661  0.3557  0.0938
 3325TIP3    H131390   5.345   6.320   1.588  0.1089  2.3311 -0.3522
 3325TIP3    H231391   5.258   6.253   1.692  0.6286 -0.6337 -1.7113
 3326TIP3   OH231392   1.497   4.580   2.509  0.0972  0.4093  0.6642
 3326TIP3    H131393   1.417   4.528   2.505  0.2078  0.2981 -0.4092
 3326TIP3    H231394   1.501   4.623   2.424  2.1533 -1.0562 -0.0436
 3327TIP3   OH231395   1.593   2.244   5.319 -0.6722 -0.3342  0.4701
 3327TIP3    H131396   1.673   2.253   5.267 -0.5632  0.1958  0.7183
 3327TIP3    H231397   1.531   2.202   5.260 -0.2109 -0.7601  0.2748
 3328TIP3   OH231398   6.767   3.202   9.919 -0.4321 -0.3017 -0.2540
 3328TIP3    H131399   6.758   3.298   9.913 -0.6441 -0.2089  1.2114
 3328TIP3    H231400   6.820   3.188   9.997  1.9415 -1.3311 -1.9269
 3329TIP3   OH231401   2.033   4.212  13.178 -0.3125  0.3457 -0.5030
 3329TIP3    H131402   2.083   4.293  13.173  0.4827  0.0179  1.5335
 3329TIP3    H231403   1.942   4.240  13.170 -0.4274  2.0759  4.2052
 3330TIP3   OH231404   3.485   1.976  15.280  0.2043  0.4676 -0.2187
 3330TIP3    H131405   3.535   2.044  15.234  0.3175  0.4917 -0.0615
 3330TIP3    H231406   3.477   1.905  15.216 -1.1160  1.1731 -0.8764
 3331TIP3   OH231407   6.258   3.058   0.121  0.6146 -0.3448  0.1367
 3331TIP3    H131408   6.216   2.988   0.070 -0.0674 -0.1952  0.4757
 3331TIP3    H231409   6.243   3.034   0.212 -1.3612  1.1903  0.3030
 3332TIP3   OH231410   3.290   4.871  15.897  0.2719  0.0442 -0.0649
 3332TIP3    H131411   3.337   4.827  15.968 -0.4685  1.7483  1.5624
 3332TIP3    H231412   3.210   4.819  15.885  1.7240 -1.9925 -1.8169
 3333TIP3   OH231413   3.490   1.808  14.602  0.1319 -0.0541 -0.0972
 3333TIP3    H131414   3.578   1.800  14.567 -0.2966  0.4110 -1.3338
 3333TIP3    H231415   3.440   1.740  14.558 -0.4444  0.6113 -0.4970
 3334TIP3   OH231416   6.030   2.418  10.043 -0.4579 -0.5256  0.4824
 3334TIP3    H131417   6.110   2.461  10.014 -0.8276 -0.6788 -0.8060
 3334TIP3    H231418   6.050   2.389  10.132  1.3681 -1.6807 -0.2432
 3335TIP3   OH231419   0.882   5.346  16.142 -0.5598 -0.1975 -0.1273
 3335TIP3    H131420   0.916   5.417  16.195 -1.8374  0.4059 -0.0757
 3335TIP3    H231421   0.957   5.289  16.126  0.6255  1.4479 -0.6426
 3336TIP3   OH231422   6.578   4.565  16.706 -0.4344  0.1454 -0.0354
 3336TIP3    H131423   6.614   4.568  16.618 -0.8440  0.8037 -0.1880
 3336TIP3    H231424   6.484   4.549  16.693 -0.1462 -2.3945  0.3705
 3337TIP3   OH231425   6.802   1.714  13.137 -0.2088 -0.2698  1.0356
 3337TIP3    H131426   6.819   1.717  13.043 -1.1397 -1.3265  0.8115
 3337TIP3    H231427   6.752   1.634  13.150  0.6881 -0.6294  2.5710
 3338TIP3   OH231428   5.911   6.638  14.262 -0.0303  0.0490  0.1419
 3338TIP3    H131429   5.848   6.572  14.292 -0.3089 -0.0682 -0.6885
 3338TIP3    H231430   5.863   6.721  14.267  0.4025  0.2403  1.4355
 3339TIP3   OH231431   5.903   0.923  12.771 -0.1352 -0.1363 -0.6005
 3339TIP3    H131432   5.810   0.920  12.793  0.1528 -0.8163  0.5696
 3339TIP3    H231433   5.933   0.832  12.776  0.9596  0.2544  0.7464
 3340TIP3   OH231434   0.703   4.069   2.740 -0.2215  0.1094 -0.1506
 3340TIP3    H131435   0.708   4.164   2.729  2.3381  0.0765  0.1906
 3340TIP3    H231436   0.713   4.034   2.651 -0.9850  0.1419 -0.2541
 3341TIP3   OH231437   2.320   3.019   5.981 -0.3619 -0.2784 -0.4313
 3341TIP3    H131438   2.390   3.002   6.044 -0.6465  1.3042  0.3630
 3341TIP3    H231439   2.250   3.058   6.033 -0.2728  1.8726 -1.8070
 3342TIP3   OH231440   2.716   1.774  11.889 -0.2302 -0.1391 -0.0081
 3342TIP3    H131441   2.743   1.819  11.969  0.2813  0.5679 -0.5692
 3342TIP3    H231442   2.632   1.734  11.911 -0.8560  1.3555  0.4120
 3343TIP3   OH231443   5.525   0.017  13.965  0.3321 -0.0315 -0.5729
 3343TIP3    H131444   5.573   0.094  13.933 -0.7647  0.8175 -0.2087
 3343TIP3    H231445   5.462  -0.002  13.895 -1.8795  1.6531  0.8504
 3344TIP3   OH231446   5.263   1.520   3.739 -0.0946 -0.2496  0.0085
 3344TIP3    H131447   5.343   1.482   3.704 -1.3410 -1.7021 -1.4273
 3344TIP3    H231448   5.291   1.566   3.818  2.0577 -1.1407 -0.1620
 3345TIP3   OH231449   6.448   6.508   4.233  0.2640  0.3958  0.1380
 3345TIP3    H131450   6.399   6.430   4.258 -0.4276  0.7822  0.0238
 3345TIP3    H231451   6.512   6.477   4.170  0.5795 -0.2245  0.7538
 3346TIP3   OH231452   2.195   6.516   4.658  0.7149  0.2048  0.4546
 3346TIP3    H131453   2.281   6.475   4.648 -0.0255 -1.5621  0.8690
 3346TIP3    H231454   2.133   6.444   4.642 -0.7004  1.5093 -0.1962
 3347TIP3   OH231455   5.540   3.691  15.065 -0.2037 -0.2694  0.1132
 3347TIP3    H131456   5.499   3.737  15.138 -0.6580 -2.2781  1.1959
 3347TIP3    H231457   5.632   3.684  15.089 -0.4850 -1.5884  0.9087
 3348TIP3   OH231458   0.970   3.851  15.894 -0.0322 -0.0779 -0.0211
 3348TIP3    H131459   1.042   3.880  15.838 -0.5159 -0.9861 -1.1768
 3348TIP3    H231460   0.959   3.920  15.959  1.1900  0.5535 -0.4642
 3349TIP3   OH231461   0.158   2.578   5.599  0.7336  0.1386 -0.6546
 3349TIP3    H131462   0.117   2.499   5.635  1.5567 -0.3140 -0.6867
 3349TIP3    H231463   0.242   2.585   5.645  2.1207 -0.8251 -2.8808
 3350TIP3   OH231464   4.092   2.117  10.329  0.5243 -0.1865  0.3166
 3350TIP3    H131465   4.025   2.065  10.373 -0.4984 -0.6366 -1.6408
 3350TIP3    H231466   4.052   2.202  10.316  0.6911 -0.1565 -0.0087
 3351TIP3   OH231467   5.596   5.684   4.808  0.4663 -0.0381  0.1943
 3351TIP3    H131468   5.579   5.752   4.874  1.9331 -0.3667  0.9401
 3351TIP3    H231469   5.649   5.729   4.742  1.4990 -0.4419  0.7235
 3352TIP3   OH231470   2.026   3.362   1.167  0.3510 -0.5164 -0.3477
 3352TIP3    H131471   2.069   3.382   1.084 -0.9698 -1.2672 -1.2434
 3352TIP3    H231472   1.988   3.276   1.155 -1.5074  0.1578  0.3471
 3353TIP3   OH231473   4.418   6.681  16.125 -0.3585 -0.1519 -0.5214
 3353TIP3    H131474   4.327   6.666  16.101 -0.3194 -0.9703 -0.1719
 3353TIP3    H231475   4.450   6.744  16.060 -1.4300  0.8900 -0.0863
 3354TIP3   OH231476   6.296   5.644  13.027 -0.1243  0.1710 -0.1212
 3354TIP3    H131477   6.334   5.558  13.009  1.5780  0.4449  1.8224
 3354TIP3    H231478   6.367   5.694  13.067 -1.7477  1.6759  1.0213
 3355TIP3   OH231479   2.901   2.018   3.049  0.1433  0.1704 -0.2255
 3355TIP3    H131480   2.861   2.100   3.078 -0.7543 -0.3905  0.1865
 3355TIP3    H231481   2.881   1.956   3.119  2.2280 -0.0246  0.2724
 3356TIP3   OH231482   3.455   6.244   5.824 -0.2193 -0.1513  0.2974
 3356TIP3    H131483   3.445   6.275   5.734  3.3059 -2.0960 -0.9723
 3356TIP3    H231484   3.386   6.179   5.834 -0.8185  0.2543 -0.9091
 3357TIP3   OH231485   5.482   2.377  15.680  0.7265 -0.3158  0.3572
 3357TIP3    H131486   5.435   2.460  15.678  1.1619 -0.0841 -0.7589
 3357TIP3    H231487   5.453   2.335  15.761  0.9300  1.1740  1.2399
 3358TIP3   OH231488   0.987   2.070   1.901 -0.0637 -0.1659 -0.3004
 3358TIP3    H131489   0.942   2.051   1.983 -1.1398 -1.7538 -1.1825
 3358TIP3    H231490   0.971   2.163   1.885 -0.6418 -0.0603  0.8226
 3359TIP3   OH231491   4.681   5.812  10.726 -0.1151  0.1572  0.3933
 3359TIP3    H131492   4.724   5.733  10.693 -0.1310 -0.3430  1.5327
 3359TIP3    H231493   4.589   5.788  10.735 -0.6449  1.1441 -1.7819
 3360TIP3   OH231494   4.584   3.041   1.343 -0.2654 -0.1416  0.0013
 3360TIP3    H131495   4.667   2.993   1.352  0.5488  1.0874 -0.7552
 3360TIP3    H231496   4.592   3.112   1.406 -0.8250 -0.1189  0.0429
 3361TIP3   OH231497   0.685   2.995  12.894 -0.0352  0.1024  0.0612
 3361TIP3    H131498   0.689   2.927  12.827 -1.8874 -0.3250  0.3439
 3361TIP3    H231499   0.761   3.051  12.876  0.6629 -1.1740 -1.0997
 3362TIP3   OH231500   3.528   0.414   3.770  0.9378  0.1895  0.7352
 3362TIP3    H131501   3.435   0.434   3.761  1.5012  2.3831 -1.2313
 3362TIP3    H231502   3.544   0.416   3.864 -0.9698 -0.2235  1.1176
 3363TIP3   OH231503   2.503   1.741  11.553 -0.0868  0.4939  0.1430
 3363TIP3    H131504   2.472   1.807  11.491 -1.8653  1.2747  1.7608
 3363TIP3    H231505   2.598   1.755  11.558 -0.0890  1.2739 -1.3599
 3364TIP3   OH231506   1.160   1.076   4.877  0.0448 -0.9258  0.2801
 3364TIP3    H131507   1.067   1.055   4.886 -0.0105 -1.0159 -0.4491
 3364TIP3    H231508   1.180   1.056   4.786  0.4390  0.4342  0.0582
 3365TIP3   OH231509   0.405   1.400  11.340 -0.1954 -0.0420  0.4824
 3365TIP3    H131510   0.316   1.367  11.351 -0.3326 -1.1713 -2.7807
 3365TIP3    H231511   0.438   1.353  11.263  2.1685  2.4740 -0.1984
 3366TIP3   OH231512   3.554   3.073   4.637 -0.0431  0.1631  0.6546
 3366TIP3    H131513   3.473   3.023   4.651  1.0698 -1.7840  0.5634
 3366TIP3    H231514   3.623   3.019   4.678  1.5846  0.3226 -1.6773
 3367TIP3   OH231515   6.061   3.055  15.696  0.3396 -0.5991 -0.3891
 3367TIP3    H131516   6.087   3.142  15.726 -0.7062  0.2317 -1.7747
 3367TIP3    H231517   6.043   3.006  15.777 -1.3838  1.2241  0.4283
 3368TIP3   OH231518   0.382   2.262  10.717 -0.4052 -0.0649  0.4819
 3368TIP3    H131519   0.341   2.347  10.704 -1.2073 -0.5099  0.0126
 3368TIP3    H231520   0.314   2.199  10.695  0.7967 -0.8403 -1.2166
 3369TIP3   OH231521   5.246   4.869   3.648  0.7582 -0.2917 -0.4607
 3369TIP3    H131522   5.250   4.920   3.729 -0.8468  0.2070 -0.6678
 3369TIP3    H231523   5.289   4.925   3.583 -0.0734  0.3605 -0.4636
 3370TIP3   OH231524   5.830   4.698   4.862  0.4246 -0.2193  0.2669
 3370TIP3    H131525   5.803   4.785   4.889 -0.7897 -0.4341 -0.1930
 3370TIP3    H231526   5.897   4.713   4.795  0.5455  0.3494  0.5124
 3371TIP3   OH231527   4.070   4.373   2.352 -0.9682 -0.2107  0.0671
 3371TIP3    H131528   4.065   4.290   2.304 -0.8365 -0.1920  0.0200
 3371TIP3    H231529   4.103   4.349   2.438  2.2044  0.1583 -0.9191
 3372TIP3   OH231530   6.365   5.432   1.010  0.0587 -0.1733  0.1233
 3372TIP3    H131531   6.401   5.518   1.034  2.1560  0.5419 -4.4691
 3372TIP3    H231532   6.439   5.384   0.975 -2.0877 -1.2375 -3.5878
 3373TIP3   OH231533   5.157   0.942  13.366  0.7612 -0.0060  0.1403
 3373TIP3    H131534   5.167   0.907  13.454  2.1761 -1.3170 -0.5021
 3373TIP3    H231535   5.241   0.984  13.347  0.7182 -0.3237 -0.8124
 3374TIP3   OH231536   4.309   0.938   5.341 -0.3186 -0.7815 -0.3926
 3374TIP3    H131537   4.263   0.874   5.287  0.8433 -2.5915  0.6436
 3374TIP3    H231538   4.255   0.946   5.420  0.3339 -1.8064  0.1928
 3375TIP3   OH231539   3.987   1.376  11.038 -0.4689  0.2552 -0.1787
 3375TIP3    H131540   4.043   1.453  11.049  0.5691 -0.6295  1.0627
 3375TIP3    H231541   3.957   1.356  11.127 -2.6001  0.5433 -0.7793
 3376TIP3   OH231542   3.248   5.081   4.979  0.2421  0.6210  0.1440
 3376TIP3    H131543   3.311   5.019   5.015  1.1186 -0.6174 -3.1451
 3376TIP3    H231544   3.297   5.163   4.970  1.8747 -0.5108 -3.0576
 3377TIP3   OH231545   1.753   6.336   4.505  0.1749  0.0618 -1.2066
 3377TIP3    H131546   1.769   6.255   4.458 -0.1348 -0.7868  0.0995
 3377TIP3    H231547   1.807   6.401   4.460 -0.3389 -0.6280 -2.8876
 3378TIP3   OH231548   1.916   3.528  13.763 -0.6022  0.7116  0.3880
 3378TIP3    H131549   1.897   3.443  13.725  2.4638  0.7207 -1.5697
 3378TIP3    H231550   1.836   3.578  13.752 -1.3984 -0.8609 -1.6618
 3379TIP3   OH231551   5.639   1.022   3.669  0.4628  0.1849 -0.1887
 3379TIP3    H131552   5.554   1.008   3.711 -0.7545 -0.1865 -2.5736
 3379TIP3    H231553   5.642   0.955   3.600  2.8595 -0.0059  0.0201
 3380TIP3   OH231554   5.745   0.559  13.080 -0.0535  0.5293  0.1410
 3380TIP3    H131555   5.827   0.527  13.042 -0.1556 -0.5149  0.7479
 3380TIP3    H231556   5.690   0.580  13.005 -0.0461 -0.9402 -0.3051
 3381TIP3   OH231557   5.856   5.967   6.002  0.1930  0.3517  0.8125
 3381TIP3    H131558   5.766   5.944   6.025 -0.5587  1.3387 -0.9544
 3381TIP3    H231559   5.882   5.901   5.938  0.6583  0.1849  1.1710
 3382TIP3   OH231560   3.400   5.834   2.826 -0.0331  0.2608  0.4848
 3382TIP3    H131561   3.456   5.841   2.904 -1.0674 -1.2426  1.4047
 3382TIP3    H231562   3.414   5.917   2.780  0.7861  1.0974  2.1335
 3383TIP3   OH231563   2.389   1.921   4.457  0.5699 -0.9534  0.6376
 3383TIP3    H131564   2.483   1.933   4.446  0.7735 -1.1655  1.9780
 3383TIP3    H231565   2.356   2.007   4.483  0.1361 -0.5155 -1.2207
 3384TIP3   OH231566   6.668   2.117   1.256 -0.0541 -0.0858 -0.9308
 3384TIP3    H131567   6.615   2.044   1.288  0.1565  0.2010  0.1149
 3384TIP3    H231568   6.743   2.120   1.316 -0.3799  1.3776 -0.5695
 3385TIP3   OH231569   5.431   5.829  11.089 -0.1556  0.6952 -0.0820
 3385TIP3    H131570   5.368   5.765  11.121  0.8946  0.3288  1.3424
 3385TIP3    H231571   5.393   5.914  11.114 -0.5160  0.5289 -0.0567
 3386TIP3   OH231572   5.581   4.101   5.236 -0.3840 -0.0313  0.6735
 3386TIP3    H131573   5.580   4.187   5.279  1.4877 -1.1624  3.2397
 3386TIP3    H231574   5.640   4.113   5.162 -1.7829  1.3727 -0.2836
 3387TIP3   OH231575   6.588   0.661   2.304  0.1434 -0.4053  0.2354
 3387TIP3    H131576   6.606   0.576   2.264 -0.3323 -0.0019 -0.8792
 3387TIP3    H231577   6.529   0.704   2.243  0.1263  0.6069  0.9412
 3388TIP3   OH231578   5.185   1.288   1.964  0.1933  0.0000 -0.0530
 3388TIP3    H131579   5.201   1.195   1.981 -0.6904 -0.6463 -2.3648
 3388TIP3    H231580   5.142   1.320   2.043  0.6366 -1.5058  0.8358
 3389TIP3   OH231581   0.671   5.978   0.468 -0.3318  0.1831 -0.6851
 3389TIP3    H131582   0.606   5.947   0.531 -0.5823  1.2913 -0.3858
 3389TIP3    H231583   0.740   6.016   0.522  0.4042 -0.6466 -1.0152
 3390TIP3   OH231584   3.103   4.080   0.064 -0.9144  0.2543  0.0003
 3390TIP3    H131585   3.126   4.062  -0.027  0.0097 -2.1272  0.6371
 3390TIP3    H231586   3.184   4.116   0.102 -0.7624 -0.3710  0.2773
 3391TIP3   OH231587   1.965   2.574   5.154 -0.3866 -0.1445 -0.1874
 3391TIP3    H131588   2.047   2.576   5.203  0.1566  1.3473 -1.1088
 3391TIP3    H231589   1.925   2.659   5.170 -2.2778 -1.1646  1.0186
 3392TIP3   OH231590   0.161   0.586   5.938  0.3289  0.0452 -0.3804
 3392TIP3    H131591   0.253   0.603   5.962  0.3580  0.4720 -0.7784
 3392TIP3    H231592   0.146   0.642   5.862 -0.2239 -0.1312 -0.4008
 3393TIP3   OH231593   5.919   5.371  11.262  0.3058  0.0559  0.3518
 3393TIP3    H131594   5.988   5.436  11.247 -0.0101  0.1158 -1.0210
 3393TIP3    H231595   5.941   5.331  11.346  0.5953  1.8158  1.1545
 3394TIP3   OH231596   6.550   0.726  10.360 -0.5739  0.0499  0.3469
 3394TIP3    H131597   6.604   0.677  10.297  2.4097  1.5474  1.5184
 3394TIP3    H231598   6.580   0.695  10.446 -1.9174  0.6807  1.0717
 3395TIP3   OH231599   5.335   3.641   5.244  0.0012 -0.3249 -0.2064
 3395TIP3    H131600   5.390   3.579   5.292 -1.7156 -0.4836  1.7062
 3395TIP3    H231601   5.351   3.622   5.152  0.7007 -2.5607  0.3251
 3396TIP3   OH231602   3.313   1.314   5.085  0.4572 -0.4166 -0.1118
 3396TIP3    H131603   3.324   1.394   5.135  0.2479  0.0033 -0.7257
 3396TIP3    H231604   3.274   1.252   5.147  0.8148 -0.1148  0.4204
 3397TIP3   OH231605   4.293   4.428  12.210  0.1610 -0.0137  0.5575
 3397TIP3    H131606   4.282   4.461  12.300  0.6809  0.8039  0.3324
 3397TIP3    H231607   4.333   4.501  12.163  0.9990 -0.8619 -0.0598
 3398TIP3   OH231608   1.876   4.106   4.475 -0.1007 -0.0760 -0.5295
 3398TIP3    H131609   1.795   4.068   4.507  0.1818  0.8298  1.4067
 3398TIP3    H231610   1.929   4.031   4.447 -1.7418 -0.6434 -2.2649
 3399TIP3   OH231611   4.397   0.665  11.804  0.2356 -0.2893  0.3343
 3399TIP3    H131612   4.367   0.748  11.839  0.5094 -0.4385  0.9331
 3399TIP3    H231613   4.470   0.687  11.747 -0.0937 -0.0626 -0.0023
 3400TIP3   OH231614   6.709   0.554  13.849 -0.2103 -0.4142  0.4428
 3400TIP3    H131615   6.784   0.594  13.806 -0.0378 -3.0207 -1.9439
 3400TIP3    H231616   6.633   0.585  13.799 -0.6197  0.7817  1.7286
 3401TIP3   OH231617   3.548   5.880  15.231 -0.1440 -0.0411 -0.1671
 3401TIP3    H131618   3.632   5.917  15.258  0.1983  0.0465 -1.3284
 3401TIP3    H231619   3.546   5.889  15.136 -0.3474 -2.3968 -0.4473
 3402TIP3   OH231620   0.461   5.926  10.035 -0.4693 -0.4122  0.3937
 3402TIP3    H131621   0.497   6.010  10.061 -0.0062 -0.0010 -1.4585
 3402TIP3    H231622   0.491   5.865  10.103  1.3633  0.4344  0.3786
 3403TIP3   OH231623   2.548   0.273  14.909  0.5912  0.1178 -0.1957
 3403TIP3    H131624   2.573   0.364  14.895  1.7273  0.0248  1.0436
 3403TIP3    H231625   2.628   0.231  14.942 -0.0447 -1.2161 -0.2731
 3404TIP3   OH231626   3.170   0.085  15.471 -0.5710  0.1903  0.0968
 3404TIP3    H131627   3.166   0.033  15.551  0.2973  0.5332  0.3777
 3404TIP3    H231628   3.088   0.134  15.470  0.3348  1.9614  2.0480
 3405TIP3   OH231629   0.871   4.380   4.042 -0.1789 -0.3887  0.1868
 3405TIP3    H131630   0.810   4.324   4.090 -0.7185  1.0957  1.3147
 3405TIP3    H231631   0.924   4.421   4.111  1.9461 -1.4187 -0.7420
 3406TIP3   OH231632   3.091   1.942  10.766 -0.2272  0.3518 -0.2635
 3406TIP3    H131633   3.146   1.956  10.844 -0.4350  3.0028 -0.5244
 3406TIP3    H231634   3.153   1.938  10.694 -0.2452  1.9582 -0.3953
 3407TIP3   OH231635   1.825   4.163   5.548  0.0108  0.2207  0.3375
 3407TIP3    H131636   1.794   4.086   5.500 -0.8443  1.1365 -0.6206
 3407TIP3    H231637   1.778   4.160   5.631 -1.7781  0.8990 -0.5990
 3408TIP3   OH231638   4.349   2.619   3.233 -0.4840 -0.1264  0.4780
 3408TIP3    H131639   4.282   2.598   3.169 -0.1435 -1.0927  0.4258
 3408TIP3    H231640   4.312   2.690   3.285 -0.2763  1.5623 -1.5741
 3409TIP3   OH231641   5.321   0.525   0.344  0.3943  0.2612  0.2256
 3409TIP3    H131642   5.309   0.618   0.362 -2.0651  0.3220 -1.3758
 3409TIP3    H231643   5.243   0.483   0.380  1.0509 -1.1127  0.1394
 3410TIP3   OH231644   2.567   2.206   1.105 -0.0204  0.4380 -0.7820
 3410TIP3    H131645   2.609   2.163   1.179  0.6268  3.1514  0.5515
 3410TIP3    H231646   2.492   2.252   1.144 -2.9739 -2.2837 -2.7144
 3411TIP3   OH231647   5.116   1.816  13.124  0.2287  0.8879  0.7470
 3411TIP3    H131648   5.190   1.762  13.149  1.3863  1.3385 -1.4970
 3411TIP3    H231649   5.153   1.903  13.110 -0.2632  0.7141 -2.2755
 3412TIP3   OH231650   0.334   1.646  11.858 -0.1500  0.5329 -0.1212
 3412TIP3    H131651   0.359   1.565  11.812 -0.0707  0.6840 -0.3475
 3412TIP3    H231652   0.418   1.682  11.889  0.0507  1.5575 -1.7358
 3413TIP3   OH231653   4.649   4.890  16.500  0.4424 -0.2576 -0.6815
 3413TIP3    H131654   4.575   4.867  16.444  0.8877 -0.0723 -1.3523
 3413TIP3    H231655   4.714   4.927  16.441  1.1664 -0.6208 -0.1316
 3414TIP3   OH231656   4.490   0.598   5.909 -0.0809  0.4791  0.4326
 3414TIP3    H131657   4.571   0.563   5.873  0.2667 -0.1166  1.7444
 3414TIP3    H231658   4.513   0.684   5.942 -0.5411  1.2863 -1.2520
 3415TIP3   OH231659   4.694   6.568  15.858  0.0537  0.1865  0.1132
 3415TIP3    H131660   4.635   6.512  15.809 -0.4610 -1.6030  2.5964
 3415TIP3    H231661   4.647   6.651  15.865 -1.1250 -0.4519  0.0541
 3416TIP3   OH231662   6.184   1.108   5.059 -0.3113 -0.4640 -0.7611
 3416TIP3    H131663   6.147   1.068   4.980  2.4088 -0.7500 -1.9848
 3416TIP3    H231664   6.274   1.076   5.063 -0.5880 -1.3481  3.1288
 3417TIP3   OH231665   5.819   1.314   4.497 -0.0756  0.1978 -0.6028
 3417TIP3    H131666   5.754   1.254   4.535  0.1425  0.7909  0.7840
 3417TIP3    H231667   5.858   1.265   4.426 -2.6565  0.1347 -2.1161
 3418TIP3   OH231668   5.449   3.002   0.926 -0.4785  0.3703  0.1152
 3418TIP3    H131669   5.479   3.023   0.837 -2.4438 -0.6244 -0.8503
 3418TIP3    H231670   5.489   3.070   0.981  2.4347 -0.1479 -1.1629
 3419TIP3   OH231671   3.767   3.627  14.170 -0.1006 -0.4256  0.2308
 3419TIP3    H131672   3.685   3.673  14.190 -1.1348 -0.6351 -2.9448
 3419TIP3    H231673   3.818   3.689  14.118  0.2954 -1.4039 -0.5880
 3420TIP3   OH231674   6.013   0.929  14.244 -0.7155  0.0310  0.7636
 3420TIP3    H131675   5.918   0.924  14.243 -0.6695 -1.1322  0.7302
 3420TIP3    H231676   6.036   0.973  14.163 -1.1870 -0.9291  0.0890
 3421TIP3   OH231677   3.516   4.374  12.182 -0.0181 -0.5893 -0.3803
 3421TIP3    H131678   3.473   4.457  12.162  2.3483  0.5500 -1.0809
 3421TIP3    H231679   3.518   4.328  12.098 -0.7294 -1.0950 -0.1311
 3422TIP3   OH231680   1.754   2.674   1.225  0.3513 -0.4096  0.6560
 3422TIP3    H131681   1.748   2.585   1.189 -0.5195 -0.2448  0.3612
 3422TIP3    H231682   1.711   2.667   1.311  1.7759 -0.6368  1.3845
 3423TIP3   OH231683   5.186   6.371   1.317 -0.4471 -0.4757  0.0538
 3423TIP3    H131684   5.134   6.311   1.370 -1.1457  0.8049  0.8369
 3423TIP3    H231685   5.233   6.313   1.256 -4.1109 -1.6437 -1.9907
 3424TIP3   OH231686   6.189   3.766   4.081  0.4297 -0.0892 -0.4265
 3424TIP3    H131687   6.116   3.770   4.018  2.4164 -0.4610 -2.9046
 3424TIP3    H231688   6.195   3.854   4.117 -1.2133 -0.0506 -0.1684
 3425TIP3   OH231689   6.019   4.110  14.737  0.2044  0.3375  0.3737
 3425TIP3    H131690   6.057   4.035  14.783  0.6009 -0.4518 -1.1730
 3425TIP3    H231691   5.964   4.071  14.669 -2.0193  1.4744  1.4339
 3426TIP3   OH231692   5.953   6.735   0.631  0.2168 -0.2302  0.4759
 3426TIP3    H131693   5.962   6.704   0.721 -0.0314 -0.7278  0.3320
 3426TIP3    H231694   5.978   6.660   0.577  2.9597  0.8141  0.1049
 3427TIP3   OH231695   1.693   3.762   4.596 -0.0294  0.5357 -0.7174
 3427TIP3    H131696   1.780   3.800   4.584 -0.3737  1.1325 -1.4082
 3427TIP3    H231697   1.708   3.667   4.591  0.6090  0.6266 -0.6492
 3428TIP3   OH231698   6.135   6.600   4.279  0.7388  0.4237  0.1083
 3428TIP3    H131699   6.128   6.585   4.184  2.4120 -0.7398  0.1208
 3428TIP3    H231700   6.228   6.618   4.293  0.8726 -1.2323  1.7362
 3429TIP3   OH231701   3.144   4.215   0.575  0.2385 -1.1386  0.1845
 3429TIP3    H131702   3.186   4.171   0.501  1.4844  0.0320  0.1512
 3429TIP3    H231703   3.149   4.308   0.554 -0.6269 -0.8625  1.1149
 3430TIP3   OH231704   4.241   4.831   4.221  0.4130  0.5941 -0.1672
 3430TIP3    H131705   4.311   4.767   4.227  0.4153  0.6159  0.0614
 3430TIP3    H231706   4.265   4.887   4.147 -0.8846 -1.2033 -2.0405
 3431TIP3   OH231707   0.873   4.540  14.815  0.3857 -1.0597 -0.0182
 3431TIP3    H131708   0.876   4.497  14.729  2.0632 -0.1174 -0.4762
 3431TIP3    H231709   0.965   4.551  14.840 -0.0443 -2.6486  2.6272
 3432TIP3   OH231710   3.103   5.399   3.756 -0.0433 -0.1048  0.4351
 3432TIP3    H131711   3.063   5.399   3.669 -0.2340  0.1034  0.5210
 3432TIP3    H231712   3.049   5.340   3.808  0.1637 -0.3522  0.3711
 3433TIP3   OH231713   5.228   3.623  14.254 -0.4467  0.0469  0.1598
 3433TIP3    H131714   5.316   3.601  14.225 -0.1744  1.1261  0.1269
 3433TIP3    H231715   5.172   3.604  14.178 -0.4044 -1.5490  0.4897
 3434TIP3   OH231716   0.393   5.626  12.221  0.2248  0.0209 -0.1824
 3434TIP3    H131717   0.371   5.701  12.276  0.3402  1.4182 -1.9370
 3434TIP3    H231718   0.413   5.556  12.282 -2.0298  0.7632  1.5225
 3435TIP3   OH231719   3.993   5.791   3.084  0.2646 -0.0865 -0.1360
 3435TIP3    H131720   4.002   5.884   3.064  0.3153  0.0137  0.3372
 3435TIP3    H231721   3.924   5.787   3.150 -1.3274 -0.5990 -1.7569
 3436TIP3   OH231722   1.849   0.304  12.195  0.2073 -0.3220 -0.4813
 3436TIP3    H131723   1.766   0.320  12.240  0.1182  0.8002 -0.9878
 3436TIP3    H231724   1.856   0.209  12.188  0.7371 -0.6343  2.7979
 3437TIP3   OH231725   6.591   3.392  13.946 -0.5408 -0.1546  0.1096
 3437TIP3    H131726   6.557   3.436  14.024 -0.2152  1.5959 -0.6838
 3437TIP3    H231727   6.527   3.323  13.928 -2.3685  1.4260  0.1358
 3438TIP3   OH231728   5.973   3.414  15.556  0.3297 -0.7110 -1.1637
 3438TIP3    H131729   6.019   3.396  15.638  0.6467 -1.6128 -1.5178
 3438TIP3    H231730   5.888   3.371  15.565 -0.4898  0.9790 -0.5006
 3439TIP3   OH231731   4.975   3.912   0.008 -0.1724  0.7198  0.6410
 3439TIP3    H131732   4.939   3.833  -0.032 -2.1893  0.5998  2.4828
 3439TIP3    H231733   5.065   3.889   0.031 -0.1371 -0.3992 -0.5058
 3440TIP3   OH231734   0.832   5.262  13.049 -0.5554  0.3855  0.3293
 3440TIP3    H131735   0.742   5.233  13.062 -0.6864  0.9094  0.6205
 3440TIP3    H231736   0.825   5.348  13.009 -0.3252  2.2451  3.8695
 3441TIP3   OH231737   0.478   1.719   3.624  0.0031 -0.6041 -0.3671
 3441TIP3    H131738   0.526   1.674   3.554  0.8639  1.1433 -0.9610
 3441TIP3    H231739   0.515   1.807   3.625 -0.9483 -0.1881  1.4011
 3442TIP3   OH231740   5.393   1.727   3.487 -0.1175 -0.0197  0.0673
 3442TIP3    H131741   5.469   1.700   3.435  0.1373 -0.3038  0.5810
 3442TIP3    H231742   5.328   1.754   3.422  0.7982  1.2642 -0.3522
 3443TIP3   OH231743   1.582   6.825   4.494  0.1623  0.1207 -0.0747
 3443TIP3    H131744   1.592   6.758   4.426 -0.3196  1.9369 -2.0618
 3443TIP3    H231745   1.671   6.852   4.515  0.3380 -0.8404  0.4525
 3444TIP3   OH231746   0.771   6.196   3.782  0.5637  0.0125 -0.1986
 3444TIP3    H131747   0.725   6.204   3.698  1.4706 -1.2504 -0.8374
 3444TIP3    H231748   0.864   6.206   3.760  0.9975 -2.3184  0.3249
 3445TIP3   OH231749   0.516   2.601   5.148  0.1278  0.0024  0.0870
 3445TIP3    H131750   0.447   2.561   5.096 -1.1232 -1.7037  2.8548
 3445TIP3    H231751   0.592   2.604   5.090 -1.4116 -0.8719 -2.0793
 3446TIP3   OH231752   4.973   4.816  11.376 -0.0893 -1.1049 -0.0798
 3446TIP3    H131753   4.914   4.837  11.448 -0.1917  0.2880 -0.5500
 3446TIP3    H231754   5.006   4.900  11.346 -1.5982 -1.4150 -2.9741
 3447TIP3   OH231755   4.937   1.773   5.216 -0.2038  0.2937 -0.0884
 3447TIP3    H131756   4.850   1.813   5.218 -0.2553  0.2699 -1.3370
 3447TIP3    H231757   4.929   1.695   5.271 -1.2846 -0.3163 -1.0817
 3448TIP3   OH231758   3.463   0.834   0.527  0.2285  0.0488 -0.1790
 3448TIP3    H131759   3.515   0.909   0.497  0.6098 -0.6150 -1.2287
 3448TIP3    H231760   3.517   0.758   0.508 -0.3677 -0.5351  0.4177
 3449TIP3   OH231761   5.129   4.490  16.097  0.2079 -0.1729 -0.3478
 3449TIP3    H131762   5.081   4.570  16.120  0.4353 -0.0523 -0.2902
 3449TIP3    H231763   5.221   4.517  16.096  0.1381  0.1950 -2.7959
 3450TIP3   OH231764   5.124   4.776   1.735  0.4537 -0.4291  0.0293
 3450TIP3    H131765   5.189   4.842   1.713  0.9801 -0.8814  0.1852
 3450TIP3    H231766   5.129   4.769   1.831 -2.0231  1.7441  0.4356
 3451TIP3   OH231767   0.668   0.382  12.644  0.1982 -0.7538 -0.4415
 3451TIP3    H131768   0.710   0.389  12.559  1.1044 -2.3160 -0.1602
 3451TIP3    H231769   0.574   0.380  12.625  0.3923 -1.1005 -1.3985
 3452TIP3   OH231770   3.743   2.281   4.939  0.4551  0.4257 -0.3584
 3452TIP3    H131771   3.718   2.207   4.993 -2.0039  2.0537  0.9313
 3452TIP3    H231772   3.836   2.268   4.921  0.6637 -1.6983  1.7996
 3453TIP3   OH231773   6.691   4.955   9.580 -0.3385  0.2643  0.0791
 3453TIP3    H131774   6.646   4.947   9.663  0.6054  0.1104  0.5878
 3453TIP3    H231775   6.701   5.049   9.566  1.5752  0.3051  1.3199
 3454TIP3   OH231776   5.967   5.468  13.848  0.1574 -0.7620 -0.0258
 3454TIP3    H131777   6.024   5.491  13.921  1.1217  0.6204 -1.1567
 3454TIP3    H231778   5.891   5.525  13.858  0.4234 -0.3665 -0.2677
 3455TIP3   OH231779   3.909   6.502  10.120 -0.2753  0.2733  0.1409
 3455TIP3    H131780   3.867   6.417  10.134 -0.0688  0.2330  0.5406
 3455TIP3    H231781   3.840   6.566  10.138  0.0001  0.2267  1.4887
 3456TIP3   OH231782   1.863   3.217  12.071  0.2647 -0.4523 -0.4487
 3456TIP3    H131783   1.842   3.166  12.150  0.0018 -1.4939 -1.1636
 3456TIP3    H231784   1.907   3.154  12.014  1.0412  0.4625 -0.8807
 3457TIP3   OH231785   6.350   6.323  13.322 -0.2200 -0.2699  0.0809
 3457TIP3    H131786   6.265   6.282  13.306 -0.0671  0.1066 -1.9859
 3457TIP3    H231787   6.384   6.343  13.234  0.4313  2.7574  0.8884
 3458TIP3   OH231788   0.587   2.474  15.108  0.4825  0.0617  0.5661
 3458TIP3    H131789   0.496   2.472  15.135  0.2811  0.2233 -0.0781
 3458TIP3    H231790   0.586   2.446  15.016  1.1549 -0.5630  0.7377
 3459TIP3   OH231791   5.103   4.991  14.215  0.8414 -0.7407 -0.4956
 3459TIP3    H131792   5.149   5.073  14.231 -0.2676 -0.0651 -0.7107
 3459TIP3    H231793   5.082   4.993  14.122 -1.0922 -0.2355 -0.0856
 3460TIP3   OH231794   0.958   6.615  12.542  0.3462 -0.1900  0.2695
 3460TIP3    H131795   1.010   6.537  12.559  1.1682  0.6767  2.0050
 3460TIP3    H231796   0.950   6.619  12.446  2.6273 -0.8955 -0.0004
 3461TIP3   OH231797   4.682   4.101   4.331  0.5020 -0.2909 -0.0777
 3461TIP3    H131798   4.761   4.051   4.311 -0.3636 -0.8013 -2.5530
 3461TIP3    H231799   4.610   4.041   4.313 -0.5212  1.1540 -1.0218
 3462TIP3   OH231800   2.219   3.157  15.217 -0.1154  0.2358 -0.2337
 3462TIP3    H131801   2.268   3.233  15.248 -1.6946 -0.0421  3.5317
 3462TIP3    H231802   2.277   3.083  15.233  0.9428  0.4158 -2.7603
 3463TIP3   OH231803   6.388   2.078  12.940 -0.4304  0.0445  0.0044
 3463TIP3    H131804   6.475   2.046  12.964 -1.4106 -1.9572  1.2050
 3463TIP3    H231805   6.378   2.053  12.848  0.1538 -0.0135 -0.0439
 3464TIP3   OH231806   1.236   4.246  14.685 -0.5133 -0.1275 -0.0128
 3464TIP3    H131807   1.278   4.229  14.770 -1.5320  1.8061  0.9382
 3464TIP3    H231808   1.143   4.228  14.701 -0.8079  0.8937 -0.5229
 3465TIP3   OH231809   0.855   1.570  11.343  0.0613  0.5674 -0.0235
 3465TIP3    H131810   0.793   1.633  11.306 -0.5479  0.3981  0.6901
 3465TIP3    H231811   0.887   1.612  11.422  1.3035  0.8946 -0.6800
 3466TIP3   OH231812   4.203   1.021  15.106  0.0037 -1.0187  0.2466
 3466TIP3    H131813   4.160   1.105  15.095 -0.5141 -0.7925  3.0666
 3466TIP3    H231814   4.151   0.959  15.056  0.2820  0.2476 -1.7132
 3467TIP3   OH231815   6.733   6.812  10.339  0.1716 -0.2958 -0.0734
 3467TIP3    H131816   6.733   6.907  10.341 -1.6601 -0.2668  0.5413
 3467TIP3    H231817   6.650   6.789  10.297 -0.6053 -1.5892  1.9999
 3468TIP3   OH231818   0.187   4.994   0.512  0.3002  0.1348 -0.2278
 3468TIP3    H131819   0.104   4.968   0.471  0.0817 -0.8651  0.7829
 3468TIP3    H231820   0.160   5.049   0.586  0.2486 -2.4857  1.8829
 3469TIP3   OH231821   0.378   0.659   5.219 -0.4012 -0.8833  0.0686
 3469TIP3    H131822   0.342   0.572   5.204 -1.3103 -0.1114 -3.0359
 3469TIP3    H231823   0.305   0.710   5.255 -0.7969 -0.7088 -0.9428
 3470TIP3   OH231824   1.074   4.006   5.272  0.3609  0.0324 -0.0304
 3470TIP3    H131825   1.030   4.038   5.350  0.8132  0.8415 -0.0898
 3470TIP3    H231826   1.004   3.980   5.213  0.0042  0.0875  0.3678
 3471TIP3   OH231827   5.466   4.951  15.928  0.4465 -0.0004  0.0829
 3471TIP3    H131828   5.425   5.019  15.875  0.0974 -0.2599  0.0242
 3471TIP3    H231829   5.558   4.952  15.900  0.3292  0.0700 -0.3112
 3472TIP3   OH231830   1.109   4.732   3.227  0.6509  0.2659 -0.0832
 3472TIP3    H131831   1.153   4.804   3.271 -3.7791  3.3643 -0.0857
 3472TIP3    H231832   1.105   4.758   3.135 -0.7125 -0.0591 -0.1497
 3473TIP3   OH231833   2.642   0.286  10.893  0.0510 -0.4205 -0.6690
 3473TIP3    H131834   2.732   0.316  10.882  0.0250  0.0734  0.3548
 3473TIP3    H231835   2.610   0.334  10.969 -1.8428  1.1165 -2.3375
 3474TIP3   OH231836   4.086   2.203   4.681  0.0876 -0.0073  0.1685
 3474TIP3    H131837   4.036   2.273   4.722 -1.0797 -1.5005  1.4312
 3474TIP3    H231838   4.135   2.163   4.753 -2.0439 -2.7354  0.3043
 3475TIP3   OH231839   2.528   4.520   2.784 -0.5376 -0.3332  0.4983
 3475TIP3    H131840   2.491   4.469   2.855  1.5573  0.3562  2.2174
 3475TIP3    H231841   2.527   4.611   2.816  1.8553 -0.1933  0.4132
 3476TIP3   OH231842   1.821   5.592   5.034  0.0224 -0.3553 -0.7684
 3476TIP3    H131843   1.892   5.601   5.097 -0.4474 -1.9511  0.0568
 3476TIP3    H231844   1.860   5.540   4.963  0.6688  1.7728 -2.0597
 3477TIP3   OH231845   0.468   1.919   9.798  0.9945 -0.4196 -0.1097
 3477TIP3    H131846   0.441   1.982   9.865  1.0156  2.2583 -2.4065
 3477TIP3    H231847   0.424   1.949   9.718  3.8045 -1.1810 -2.1016
 3478TIP3   OH231848   2.256   4.204   3.225  0.5212  0.6777  0.2243
 3478TIP3    H131849   2.245   4.296   3.250  0.0982  1.2339 -1.8266
 3478TIP3    H231850   2.168   4.175   3.203  0.9347  0.4156 -1.1396
 3479TIP3   OH231851   2.571   0.529   3.473  0.2638 -0.2574  0.0174
 3479TIP3    H131852   2.596   0.621   3.463 -3.3252  0.9181  0.2277
 3479TIP3    H231853   2.557   0.518   3.567  1.0591 -1.1666  0.0405
 3480TIP3   OH231854   0.035   4.463  12.463 -0.0328  0.1460  0.1440
 3480TIP3    H131855   0.019   4.405  12.388 -0.1953 -0.1091  0.3715
 3480TIP3    H231856   0.114   4.428  12.504 -0.4692 -0.2933  0.6333
 3481TIP3   OH231857   4.809   6.719   2.812  0.3627  0.1012 -0.2207
 3481TIP3    H131858   4.893   6.765   2.813 -0.3415  1.5054 -1.5394
 3481TIP3    H231859   4.806   6.671   2.895  0.8905  2.9563  1.5588
 3482TIP3   OH231860   1.142   4.170  16.355  0.6707  0.2391  0.4198
 3482TIP3    H131861   1.110   4.232  16.420  0.8355 -0.7669  1.4927
 3482TIP3    H231862   1.094   4.089  16.373  1.0666 -0.1973 -0.4084
 3483TIP3   OH231863   5.724   3.272  13.799  0.7246 -0.3400 -0.3560
 3483TIP3    H131864   5.684   3.191  13.767  0.5742 -0.7244  0.7728
 3483TIP3    H231865   5.751   3.318  13.719 -0.3416 -0.8994 -1.0664
 3484TIP3   OH231866   2.705   2.255   5.852 -0.2477 -0.4136  0.1704
 3484TIP3    H131867   2.762   2.186   5.884  0.1203  0.0986  0.6487
 3484TIP3    H231868   2.636   2.262   5.918  1.0942  1.3732  1.5002
 3485TIP3   OH231869   1.102   3.466  13.188 -0.2233  0.0996  0.5665
 3485TIP3    H131870   1.060   3.389  13.149  1.0084 -1.1821  1.6688
 3485TIP3    H231871   1.174   3.431  13.239  1.4261  2.1196 -0.2126
 3486TIP3   OH231872   2.296   0.189  11.179  0.2436  0.3160  0.6691
 3486TIP3    H131873   2.240   0.257  11.142  0.2330  0.6992  1.3675
 3486TIP3    H231874   2.249   0.159  11.257  0.9732  0.6085  1.2319
 3487TIP3   OH231875   1.072   2.343   1.590 -0.0656 -0.6467  0.2427
 3487TIP3    H131876   1.103   2.280   1.524 -0.4771 -0.1983 -0.3948
 3487TIP3    H231877   1.138   2.413   1.589 -0.1728 -0.5454  0.1578
 3488TIP3   OH231878   0.280   2.310   2.827  0.2013  0.2122  0.3123
 3488TIP3    H131879   0.258   2.280   2.739  0.0428  2.1723 -0.3719
 3488TIP3    H231880   0.215   2.269   2.884  0.3656 -1.1608 -0.4454
 3489TIP3   OH231881   5.987   0.867   1.841 -0.1824  0.0663 -0.2998
 3489TIP3    H131882   6.071   0.829   1.868 -0.4609 -1.0384 -0.8837
 3489TIP3    H231883   5.961   0.815   1.764 -1.8530 -0.2612  0.4330
 3490TIP3   OH231884   4.799   0.440   0.121 -0.1775 -0.0655 -0.0891
 3490TIP3    H131885   4.778   0.506   0.055  3.2435  1.2249 -0.0888
 3490TIP3    H231886   4.731   0.450   0.188 -0.3901  2.7753 -0.6199
 3491TIP3   OH231887   2.393   0.139   3.335 -0.0444 -0.1515 -0.4496
 3491TIP3    H131888   2.333   0.196   3.383 -0.8380 -1.1884 -0.1658
 3491TIP3    H231889   2.337   0.091   3.274  0.7512  0.0724 -1.3763
 3492TIP3   OH231890   6.735   1.010  15.493 -0.0370 -0.0028 -0.4099
 3492TIP3    H131891   6.657   1.061  15.476 -0.7875 -1.3155 -1.1066
 3492TIP3    H231892   6.759   0.973  15.408  2.5727  1.9586 -0.6654
 3493TIP3   OH231893   2.299   1.994  15.954 -0.1200 -0.3848  0.0662
 3493TIP3    H131894   2.361   2.057  15.989  0.5523 -1.7607  1.4613
 3493TIP3    H231895   2.213   2.028  15.978  0.1971  0.3946  0.1021
 3494TIP3   OH231896   3.726   3.593   2.617 -0.3389  0.1780 -0.0321
 3494TIP3    H131897   3.650   3.544   2.585 -0.3786 -1.2118  1.9946
 3494TIP3    H231898   3.694   3.682   2.630 -1.1905 -0.0281 -0.6223
 3495TIP3   OH231899   2.257   5.083   5.528 -0.3595 -0.3569  0.0394
 3495TIP3    H131900   2.286   4.992   5.518  1.6934  0.0901  1.3996
 3495TIP3    H231901   2.192   5.080   5.598  0.3877 -0.6821  0.7376
 3496TIP3   OH231902   4.605   1.665   1.207  0.0934 -0.1823  0.2176
 3496TIP3    H131903   4.623   1.697   1.118 -3.6946  2.6510  0.2014
 3496TIP3    H231904   4.675   1.700   1.261  0.6221  0.9910 -1.1836
 3497TIP3   OH231905   5.426   2.001   9.875  0.0077  0.3432  0.0530
 3497TIP3    H131906   5.447   1.946   9.799 -2.0870  0.7820 -0.9159
 3497TIP3    H231907   5.390   2.081   9.837 -0.3809  0.8907  1.5217
 3498TIP3   OH231908   0.961   2.509  11.132 -0.0725  0.1986  0.2734
 3498TIP3    H131909   0.881   2.466  11.163 -0.8612 -0.3153 -2.2241
 3498TIP3    H231910   0.930   2.575  11.069  1.4290  0.3019 -0.4190
 3499TIP3   OH231911   0.083   4.993   4.403  0.1801 -0.1243 -0.3880
 3499TIP3    H131912   0.039   4.974   4.320  0.0572 -2.3594  0.1161
 3499TIP3    H231913   0.012   4.995   4.467  0.4678 -0.5152 -0.0500
 3500TIP3   OH231914   6.827   2.498  12.634  0.0005 -0.5350 -0.3187
 3500TIP3    H131915   6.882   2.517  12.711 -1.4167  0.4426  0.4986
 3500TIP3    H231916   6.740   2.481  12.670 -0.6567 -0.2266 -1.6929
 3501TIP3   OH231917   3.408   2.496   3.373  0.1987  0.3189  0.3551
 3501TIP3    H131918   3.349   2.568   3.396 -1.6594 -0.3984 -1.8043
 3501TIP3    H231919   3.394   2.430   3.441  1.9718  1.9243  2.3951
 3502TIP3   OH231920   4.851   6.632  14.489 -0.0119  0.4604 -0.2311
 3502TIP3    H131921   4.943   6.657  14.496  0.1297 -0.0670 -0.1277
 3502TIP3    H231922   4.845   6.553  14.542 -0.5869  0.6493 -0.0161
 3503TIP3   OH231923   1.422   2.442  11.372  0.2174 -1.1603  0.5749
 3503TIP3    H131924   1.483   2.378  11.409 -0.2974 -0.3290  3.0506
 3503TIP3    H231925   1.383   2.397  11.298  0.2713 -3.5460  1.8768
 3504TIP3   OH231926   1.859   4.769  11.500  0.1495  0.2510  0.8863
 3504TIP3    H131927   1.939   4.730  11.464 -0.4257 -1.5153  1.4000
 3504TIP3    H231928   1.798   4.695  11.508 -2.1411  1.7831 -1.0115
 3505TIP3   OH231929   2.809   6.835   3.970  0.3553  0.4221 -0.2301
 3505TIP3    H131930   2.844   6.903   4.027  1.1672 -1.0730  1.1612
 3505TIP3    H231931   2.846   6.754   4.004 -0.2557 -0.7003 -2.0603
 3506TIP3   OH231932   5.340   5.434   3.219  0.2662 -0.8421  0.1832
 3506TIP3    H131933   5.267   5.372   3.218 -0.5239  0.0561  0.8795
 3506TIP3    H231934   5.408   5.391   3.167  0.2536 -2.9032  1.7064
 3507TIP3   OH231935   5.073   3.737   4.283 -0.2198 -0.3956 -0.1881
 3507TIP3    H131936   5.109   3.720   4.370 -2.3269 -0.9505  0.6322
 3507TIP3    H231937   5.068   3.650   4.242 -0.9868 -0.3952 -0.1137
 3508TIP3   OH231938   6.776   5.372  11.323  0.4733  0.1934 -0.3710
 3508TIP3    H131939   6.690   5.370  11.282 -0.1391 -3.0644  0.7673
 3508TIP3    H231940   6.758   5.356  11.416  2.0853  3.4717  0.6559
 3509TIP3   OH231941   6.497   2.177   2.822 -0.6773 -0.1075 -0.4637
 3509TIP3    H131942   6.478   2.271   2.825  0.7409  0.2006  1.7291
 3509TIP3    H231943   6.583   2.171   2.781  0.6274 -0.0569  2.0365
 3510TIP3   OH231944   0.242   2.268   4.030  0.4055  0.2368  0.3250
 3510TIP3    H131945   0.188   2.342   4.055 -0.6176 -0.3256 -0.1748
 3510TIP3    H231946   0.279   2.236   4.112  0.1441  0.7454  0.6464
 3511TIP3   OH231947   5.222   3.086  16.455 -0.1780  0.3219  0.0054
 3511TIP3    H131948   5.206   3.162  16.398  2.8256  1.5808  0.6719
 3511TIP3    H231949   5.283   3.031  16.406 -0.7013 -0.6256  0.3946
 3512TIP3   OH231950   4.117   4.183  11.485 -0.0207  0.5607 -0.1322
 3512TIP3    H131951   4.075   4.110  11.438 -0.5278 -0.5014  1.8514
 3512TIP3    H231952   4.203   4.191  11.444  0.3105 -1.6387  0.0029
 3513TIP3   OH231953   5.747   1.221   3.199 -0.6968 -0.4460 -0.2132
 3513TIP3    H131954   5.652   1.230   3.189 -0.7411  0.2644  0.6971
 3513TIP3    H231955   5.784   1.266   3.123 -1.0693  0.4229  0.1156
 3514TIP3   OH231956   6.497   2.810   1.802  0.2360 -0.5131  0.1370
 3514TIP3    H131957   6.423   2.858   1.765  0.0412 -1.2674 -0.4751
 3514TIP3    H231958   6.532   2.869   1.869 -0.1964  0.3374 -0.3602
 3515TIP3   OH231959   4.057   6.582  15.152 -0.9183  0.5410 -0.6012
 3515TIP3    H131960   4.150   6.601  15.161 -0.3304 -1.4837 -1.6228
 3515TIP3    H231961   4.028   6.559  15.241 -0.3420  0.8055 -0.3415
 3516TIP3   OH231962   0.183   6.713   4.658 -0.0625 -0.2699  0.0342
 3516TIP3    H131963   0.134   6.668   4.589 -0.2666 -0.4677  0.3066
 3516TIP3    H231964   0.166   6.662   4.737  0.1001  0.0053  0.2500
 3517TIP3   OH231965   1.618   5.962  11.597 -0.3780 -0.1422 -0.1679
 3517TIP3    H131966   1.650   6.051  11.583  0.1625 -0.2554  0.3217
 3517TIP3    H231967   1.523   5.972  11.606 -0.7602 -0.0074 -3.2590
 3518TIP3   OH231968   2.979   2.779  10.679 -0.1331 -0.2484  0.1862
 3518TIP3    H131969   2.979   2.777  10.583 -2.3266  0.5511  0.1190
 3518TIP3    H231970   3.069   2.800  10.702  0.2273  0.5693 -1.7508
 3519TIP3   OH231971   2.165   4.398  11.240 -0.3198 -0.2218 -0.4004
 3519TIP3    H131972   2.143   4.369  11.328  0.2007  0.5203 -0.0135
 3519TIP3    H231973   2.240   4.457  11.252 -0.5567  0.2823 -1.2754
 3520TIP3   OH231974   6.410   1.265  12.716 -0.4879  0.0969 -0.3002
 3520TIP3    H131975   6.352   1.326  12.671  0.8085  2.1955  0.6887
 3520TIP3    H231976   6.371   1.254  12.802 -1.0828 -1.0497 -0.7077
 3521TIP3   OH231977   6.181   0.245  15.171 -0.6560 -0.8486  0.0577
 3521TIP3    H131978   6.108   0.184  15.159 -1.3596 -0.1906  0.8471
 3521TIP3    H231979   6.259   0.189  15.172 -1.1608 -1.5927 -0.5079
 3522TIP3   OH231980   4.919   1.306  10.309 -0.1733 -0.1989 -0.0172
 3522TIP3    H131981   4.983   1.332  10.375 -2.5341 -0.5207  2.5495
 3522TIP3    H231982   4.933   1.212  10.298 -0.3255 -0.3082  0.6828
 3523TIP3   OH231983   0.775   1.436  13.056  0.2988 -0.2936 -0.0696
 3523TIP3    H131984   0.777   1.511  12.997  0.4297 -0.0152  0.2926
 3523TIP3    H231985   0.711   1.377  13.016 -1.0645  0.7396  0.5406
 3524TIP3   OH231986   1.862   1.601   1.243  0.8826  0.0075 -0.3961
 3524TIP3    H131987   1.920   1.551   1.186  1.4877 -0.0227  0.2347
 3524TIP3    H231988   1.809   1.654   1.183 -0.6039 -2.2192 -1.1763
 3525TIP3   OH231989   6.585   1.960   1.477 -0.2805  0.1688  0.3983
 3525TIP3    H131990   6.535   1.879   1.465 -0.4928  0.1842  1.1656
 3525TIP3    H231991   6.625   1.951   1.563  0.2357  0.5969  0.2111
 3526TIP3   OH231992   1.150   4.521  11.963  0.5940  0.0420  0.5112
 3526TIP3    H131993   1.232   4.540  12.009  0.6294  0.1989  0.3820
 3526TIP3    H231994   1.143   4.589  11.895  0.8374 -0.5340 -0.1006
 3527TIP3   OH231995   5.879   2.681   3.705 -0.3118 -0.1925 -0.8458
 3527TIP3    H131996   5.954   2.701   3.762  0.2658  0.1046 -1.6936
 3527TIP3    H231997   5.847   2.597   3.738 -1.6253  1.1464  1.5734
 3528TIP3   OH231998   3.389   2.091  12.860  0.5122  0.7546 -0.2622
 3528TIP3    H131999   3.411   2.036  12.935 -2.1878  0.1632  0.1768
 3528TIP3    H232000   3.363   2.174  12.899 -0.1142  0.7157 -0.6028
 3529TIP3   OH232001   2.775   1.624   4.855  0.8449  0.1993  0.2430
 3529TIP3    H132002   2.856   1.677   4.854 -0.8198  2.9577  0.3875
 3529TIP3    H232003   2.718   1.670   4.916 -1.2150 -1.1207 -0.5937
 3530TIP3   OH232004   4.962   4.728  14.871 -0.8415  0.1991  0.8146
 3530TIP3    H132005   4.960   4.701  14.779 -0.6687  0.9121  0.5899
 3530TIP3    H232006   4.882   4.691  14.908 -0.2728 -1.1864  0.7087
 3531TIP3   OH232007   5.559   6.563  15.065 -0.9452  0.3173  0.1034
 3531TIP3    H132008   5.525   6.652  15.051  1.0927  0.9831 -1.0013
 3531TIP3    H232009   5.543   6.518  14.982  1.4934  0.9202 -0.7771
 3532TIP3   OH232010   0.677   1.491  14.953  0.1613 -0.1867 -0.0963
 3532TIP3    H132011   0.748   1.550  14.981 -0.0643 -0.3453  0.8419
 3532TIP3    H232012   0.709   1.404  14.974  0.2689 -0.3752 -0.9903
 3533TIP3   OH232013   3.293   3.576   2.750 -0.0942  0.1114 -0.4392
 3533TIP3    H132014   3.205   3.581   2.712 -1.0543 -4.3924  0.6799
 3533TIP3    H232015   3.344   3.526   2.686  0.0598 -1.9700  1.2064
 3534TIP3   OH232016   2.013   5.539  10.584 -0.5942 -0.1697 -0.7879
 3534TIP3    H132017   2.050   5.454  10.610 -1.4292 -0.1986  0.3745
 3534TIP3    H232018   2.076   5.574  10.522 -0.6359 -2.0123 -1.9501
 3535TIP3   OH232019   2.911   2.001  12.868  0.2453 -0.2718 -0.7687
 3535TIP3    H132020   2.953   2.058  12.804 -0.1371  0.4830 -0.3710
 3535TIP3    H232021   2.833   2.050  12.896  1.1996  0.1637  1.3958
 3536TIP3   OH232022   0.948   1.688  11.565  0.5612  0.4983 -0.3436
 3536TIP3    H132023   0.965   1.663  11.656  1.6163 -0.7435 -0.8463
 3536TIP3    H232024   1.024   1.740  11.540  0.5259  0.3969 -0.6694
 3537TIP3   OH232025   2.280   4.744   3.310  0.3680  0.1504 -0.1414
 3537TIP3    H132026   2.269   4.830   3.349 -1.0692 -0.1367  0.1310
 3537TIP3    H232027   2.275   4.683   3.384  2.7906 -0.1398 -0.1246
 3538TIP3   OH232028   6.758   3.808   3.776 -0.0866 -0.2548  0.0508
 3538TIP3    H132029   6.737   3.719   3.750  2.5437 -1.1069  0.6100
 3538TIP3    H232030   6.755   3.858   3.694  2.0070 -1.6377 -0.9541
 3539TIP3   OH232031   5.667   4.412   3.411  0.5169 -0.1294  0.1488
 3539TIP3    H132032   5.679   4.379   3.322 -0.8553 -0.2039 -0.0294
 3539TIP3    H232033   5.611   4.489   3.401 -0.3999 -0.6460  1.0026
 3540TIP3   OH232034   3.456   2.375   4.348  0.4091  0.3487  0.2419
 3540TIP3    H132035   3.446   2.463   4.384 -0.6794  0.5596 -0.5245
 3540TIP3    H232036   3.546   2.372   4.315  0.4700  1.1517  0.3271
 3541TIP3   OH232037   5.313   0.186  10.962  0.2209 -0.1229  0.1761
 3541TIP3    H132038   5.245   0.241  10.924 -0.7973 -2.1348 -1.0836
 3541TIP3    H232039   5.294   0.185  11.055  0.5286  1.9123  0.3191
 3542TIP3   OH232040   5.433   3.902   2.587  0.4653  0.1003 -0.4568
 3542TIP3    H132041   5.410   3.972   2.526 -0.8627  0.8598  0.8480
 3542TIP3    H232042   5.509   3.860   2.548  0.7389  1.6897 -1.7267
 3543TIP3   OH232043   3.759   2.041   5.059 -0.4114 -0.6962 -0.0009
 3543TIP3    H132044   3.748   1.962   5.006 -0.8022 -0.6745  0.0390
 3543TIP3    H232045   3.853   2.049   5.072  0.1201  1.3347 -3.7750
 3544TIP3   OH232046   2.253   5.578   4.451  0.4589 -0.4841 -0.0397
 3544TIP3    H132047   2.246   5.586   4.356  2.7740 -2.5094 -0.4765
 3544TIP3    H232048   2.225   5.489   4.471 -1.1542  0.2686  1.4157
 3545TIP3   OH232049   3.979   2.460   4.715  0.6618  0.9259 -0.0916
 3545TIP3    H132050   3.916   2.487   4.783 -1.0193 -1.3238 -0.6364
 3545TIP3    H232051   3.965   2.521   4.643 -2.6837 -0.7940 -1.1099
 3546TIP3   OH232052   6.681   4.392  15.174  0.0586  0.3430 -0.2892
 3546TIP3    H132053   6.767   4.360  15.148  0.2217  0.2998  0.3126
 3546TIP3    H232054   6.620   4.332  15.131  0.3631 -0.7128  0.7319
 3547TIP3   OH232055   6.187   0.079   3.923 -0.5670  0.1475 -0.2514
 3547TIP3    H132056   6.184  -0.016   3.911  1.1054 -0.3787  2.6822
 3547TIP3    H232057   6.241   0.110   3.849 -0.1091 -1.3383 -0.5756
 3548TIP3   OH232058   4.973   6.444  12.475  0.1729 -0.2797 -0.0356
 3548TIP3    H132059   4.915   6.518  12.460  1.3602  0.6083 -0.4432
 3548TIP3    H232060   5.053   6.483  12.511  1.3238 -1.1839 -1.4708
 3549TIP3   OH232061   0.350   3.812  12.129 -0.4354  0.0051  0.7483
 3549TIP3    H132062   0.308   3.792  12.213  1.7039 -1.5073  1.5348
 3549TIP3    H232063   0.298   3.765  12.064 -1.1904 -0.0951  1.4099
 3550TIP3   OH232064   1.940   0.279  16.379 -0.3473 -0.2151  0.2332
 3550TIP3    H132065   1.917   0.236  16.297  0.1660  3.1152 -1.8763
 3550TIP3    H232066   1.869   0.343  16.392  1.3492  1.7677  0.3013
 3551TIP3   OH232067   5.950   3.808   3.934  0.9702 -0.2964  0.0026
 3551TIP3    H132068   5.920   3.809   3.843 -0.4242 -1.5858  0.4161
 3551TIP3    H232069   5.874   3.836   3.984  2.2413  2.1433  0.6912
 3552TIP3   OH232070   2.723   1.363  10.984 -0.0780  0.4745 -0.4060
 3552TIP3    H132071   2.634   1.357  11.017  0.1607 -0.0922  0.1445
 3552TIP3    H232072   2.765   1.429  11.040  0.4412 -0.7704  0.7271
 3553TIP3   OH232073   6.331   4.175   0.146  0.3097  0.9184 -0.2873
 3553TIP3    H132074   6.260   4.203   0.088  0.0622  1.9794  0.5088
 3553TIP3    H232075   6.296   4.186   0.234  0.3300 -1.5801  0.1100
 3554TIP3   OH232076   1.528   4.402   3.797  0.4048  0.2189  0.2843
 3554TIP3    H132077   1.479   4.320   3.802  1.5387 -0.4123  3.2385
 3554TIP3    H232078   1.464   4.468   3.770 -1.1149 -1.2008  0.3057
 3555TIP3   OH232079   3.508   3.483   2.112 -0.3927 -0.5755  0.3466
 3555TIP3    H132080   3.418   3.460   2.089 -0.9133  1.9646 -0.4654
 3555TIP3    H232081   3.500   3.526   2.198 -0.0834  0.2806 -0.0408
 3556TIP3   OH232082   2.278   1.051   2.696 -0.0518  0.4741 -0.5713
 3556TIP3    H132083   2.296   1.076   2.605 -0.4093 -1.4074 -1.1895
 3556TIP3    H232084   2.365   1.041   2.736  0.3856 -3.3754 -2.0914
 3557TIP3   OH232085   3.323   0.673   0.992  0.5315  0.1667  0.2821
 3557TIP3    H132086   3.270   0.621   0.931  0.6565 -0.5871  0.8001
 3557TIP3    H232087   3.281   0.661   1.077 -1.1999  3.3005 -0.0086
 3558TIP3   OH232088   1.825   1.478  14.368 -0.2528  0.4341  0.6134
 3558TIP3    H132089   1.805   1.539  14.439 -0.0619  0.1684  0.9044
 3558TIP3    H232090   1.751   1.484  14.309 -1.5341 -0.9738  1.9682
 3559TIP3   OH232091   1.071   6.103  16.151 -0.2915  0.1333  0.2725
 3559TIP3    H132092   1.082   6.061  16.066 -1.9501  1.7322 -0.8013
 3559TIP3    H232093   0.988   6.151  16.144 -0.0361  1.0270  2.4836
 3560TIP3   OH232094   2.883   3.895   3.412 -0.4560  0.0881 -0.0009
 3560TIP3    H132095   2.876   3.803   3.439  0.1088  0.0427  0.0071
 3560TIP3    H232096   2.802   3.911   3.363 -0.5858 -0.3968  0.0393
 3561TIP3   OH232097   5.365   2.992   4.596  0.5421 -0.5287  0.0045
 3561TIP3    H132098   5.458   2.975   4.582  0.4637 -1.0879  0.1364
 3561TIP3    H232099   5.358   3.087   4.601  1.0222 -0.4583 -0.5889
 3562TIP3   OH232100   0.552   1.570  13.296 -0.0410 -0.0762 -0.1029
 3562TIP3    H132101   0.607   1.640  13.330  2.1005 -1.8589  0.3373
 3562TIP3    H232102   0.561   1.577  13.201  1.6433 -0.7943 -0.0340
 3563TIP3   OH232103   1.538   0.872  13.038  0.1040  0.3587  0.0609
 3563TIP3    H132104   1.492   0.803  12.990 -1.3058  0.2896  1.4541
 3563TIP3    H232105   1.552   0.941  12.973  0.4046 -0.6941 -1.0366
 3564TIP3   OH232106   2.373   5.218   4.755 -0.4111  0.1181 -0.0396
 3564TIP3    H132107   2.321   5.190   4.680  1.8281 -3.1790 -0.6136
 3564TIP3    H232108   2.431   5.286   4.721 -1.2837  0.6195 -0.5338
 3565TIP3   OH232109   4.530   3.658  12.098  0.0293 -0.4296  0.2337
 3565TIP3    H132110   4.611   3.671  12.048  0.9202 -0.0521  1.7096
 3565TIP3    H232111   4.469   3.723  12.063  1.0123  0.6214  0.4220
 3566TIP3   OH232112   1.322   4.655  15.452  0.4909 -0.3741  0.1311
 3566TIP3    H132113   1.415   4.648  15.474  1.1787  0.5592 -2.2106
 3566TIP3    H232114   1.292   4.564  15.444  1.8778 -0.7427 -1.5045
 3567TIP3   OH232115   0.371   4.568   2.535 -0.2204  0.0071 -0.5724
 3567TIP3    H132116   0.325   4.616   2.604  1.2134 -0.1818  0.5693
 3567TIP3    H232117   0.457   4.611   2.531  0.8654 -2.0091  0.0134
 3568TIP3   OH232118   5.563   0.279   2.956 -0.2696 -0.9105 -0.2640
 3568TIP3    H132119   5.591   0.342   3.023 -2.3341 -0.7646  0.5477
 3568TIP3    H232120   5.517   0.332   2.891 -1.9031 -1.5021  0.3574
 3569TIP3   OH232121   3.252   1.941   0.290 -0.2896 -0.6121 -0.2463
 3569TIP3    H132122   3.208   1.918   0.208  0.5711  0.1162 -0.9346
 3569TIP3    H232123   3.290   2.028   0.273 -0.7768 -0.0833  1.1982
 3570TIP3   OH232124   4.224   4.989  11.487  0.2391  0.2882 -0.2314
 3570TIP3    H132125   4.201   4.897  11.482  0.2005  0.1439  1.6372
 3570TIP3    H232126   4.176   5.021  11.563  1.1430  1.5628 -0.1688
 3571TIP3   OH232127   5.776   2.913  15.564 -0.2335  0.0335 -0.2903
 3571TIP3    H132128   5.823   2.830  15.576 -0.5320 -0.8563 -4.0491
 3571TIP3    H232129   5.684   2.891  15.580 -0.2101 -0.1143 -0.3600
 3572TIP3   OH232130   5.529   6.657  11.652 -0.1456  0.3147 -0.7340
 3572TIP3    H132131   5.527   6.623  11.562  1.9102 -0.8617 -0.3995
 3572TIP3    H232132   5.505   6.582  11.706 -0.2190  0.7008 -0.2284
 3573TIP3   OH232133   3.775   5.785   3.883 -0.7646  0.1380  0.1244
 3573TIP3    H132134   3.790   5.737   3.801  0.9719  1.4452 -0.3778
 3573TIP3    H232135   3.857   5.776   3.931  0.2624  3.8158 -0.6840
 3574TIP3   OH232136   1.536   4.246  11.090  0.2188 -0.5355 -0.0312
 3574TIP3    H132137   1.591   4.254  11.013 -0.3132  1.5447 -0.2474
 3574TIP3    H232138   1.529   4.151  11.105  1.6966 -0.9187 -1.5098
 3575TIP3   OH232139   2.934   3.930   4.220 -0.3672 -0.3275 -0.2114
 3575TIP3    H132140   3.016   3.963   4.183 -0.0805 -0.0089  0.6916
 3575TIP3    H232141   2.937   3.955   4.313 -1.8958  0.4945 -0.3459
 3576TIP3   OH232142   4.436   2.958   1.647 -0.8025 -0.0497  0.4124
 3576TIP3    H132143   4.469   3.045   1.622 -0.1882 -0.3671  0.1117
 3576TIP3    H232144   4.393   2.925   1.569  0.7558 -0.8660 -0.1448
 3577TIP3   OH232145   3.738   3.246  12.582 -0.3103  0.5033 -0.9553
 3577TIP3    H132146   3.754   3.235  12.488  0.4429 -1.1008 -0.6765
 3577TIP3    H232147   3.822   3.228  12.623 -1.3101 -2.1392  0.1978
 3578TIP3   OH232148   1.268   0.189   2.662  0.3213  0.0989 -0.4738
 3578TIP3    H132149   1.216   0.171   2.740  0.4267 -1.9155 -0.8166
 3578TIP3    H232150   1.205   0.193   2.590  0.2773  1.4407 -0.3783
 3579TIP3   OH232151   4.206   0.512  14.616 -0.0403  0.3543 -0.1514
 3579TIP3    H132152   4.252   0.456  14.679  0.7982 -0.4616 -1.4477
 3579TIP3    H232153   4.130   0.545  14.665  0.1714 -0.8498  1.0605
 3580TIP3   OH232154   0.028   5.914  14.383 -0.0210  0.6219 -0.2049
 3580TIP3    H132155   0.038   6.009  14.390 -0.8904  0.8247 -1.4353
 3580TIP3    H232156  -0.001   5.899  14.293  0.4549 -0.8500 -0.1417
 3581TIP3   OH232157   0.520   3.979   0.849 -0.1225 -0.0656 -0.0546
 3581TIP3    H132158   0.511   4.063   0.894 -1.9626  0.1858 -0.7764
 3581TIP3    H232159   0.445   3.928   0.880 -1.3797  0.0653 -2.6149
 3582TIP3   OH232160   3.975   5.150   1.046 -0.1203  0.1848 -0.6625
 3582TIP3    H132161   3.935   5.109   1.122 -1.8444  0.6389 -1.2809
 3582TIP3    H232162   3.902   5.167   0.986  1.0995  0.3477 -2.1839
 3583TIP3   OH232163   6.391   2.886  12.380 -0.3825  0.6522 -0.5583
 3583TIP3    H132164   6.376   2.901  12.474 -1.2323 -0.6326 -0.4571
 3583TIP3    H232165   6.475   2.841  12.377 -1.2120 -1.0379 -0.1893
 3584TIP3   OH232166   6.658   5.835   0.877  0.2773  0.2465 -0.8679
 3584TIP3    H132167   6.681   5.927   0.864  0.9174  0.2447  0.1072
 3584TIP3    H232168   6.568   5.836   0.907  0.7561  0.6808  0.6121
 3585TIP3   OH232169   1.279   0.738   4.834 -0.0543  0.2250  0.0099
 3585TIP3    H132170   1.242   0.770   4.917 -1.3670  0.1248 -0.5224
 3585TIP3    H232171   1.267   0.643   4.837  1.3468  0.0462  0.3863
 3586TIP3   OH232172   1.031   2.234  14.331 -0.0617 -0.3650  0.7646
 3586TIP3    H132173   0.986   2.152  14.350  0.1488 -0.5194  0.5915
 3586TIP3    H232174   1.097   2.212  14.266 -1.6679  0.3908 -1.2497
 3587TIP3   OH232175   2.613   4.697   2.466  0.2549  0.6414  0.0499
 3587TIP3    H132176   2.567   4.653   2.395  0.3279  0.5995  0.0292
 3587TIP3    H232177   2.543   4.738   2.518  0.2122  0.7904 -0.1255
 3588TIP3   OH232178   4.707   6.529   5.358 -0.3805  0.4055 -0.0191
 3588TIP3    H132179   4.739   6.616   5.383  0.1257 -0.1768  1.5241
 3588TIP3    H232180   4.613   6.540   5.346 -0.2411  1.2729 -0.3538
 3589TIP3   OH232181   1.757   1.029   0.506 -0.0336 -0.0891  0.1060
 3589TIP3    H132182   1.800   1.114   0.515  0.1049 -0.1067 -0.3392
 3589TIP3    H232183   1.671   1.049   0.468  1.1986 -0.3637 -3.1446
 3590TIP3   OH232184   5.625   0.748   1.846 -0.2001 -0.0258 -0.0746
 3590TIP3    H132185   5.616   0.696   1.766  0.3599 -0.7343  0.3042
 3590TIP3    H232186   5.687   0.817   1.824  1.9820 -1.6919  0.3956
 3591TIP3   OH232187   1.588   3.518  10.539  0.2759  0.3228 -0.2420
 3591TIP3    H132188   1.495   3.517  10.561  0.6212  2.2270  1.7304
 3591TIP3    H232189   1.618   3.604  10.569  2.6508 -0.1871 -0.9609
 3592TIP3   OH232190   4.928   4.319  14.780  0.1747  0.0509 -0.8681
 3592TIP3    H132191   4.934   4.413  14.762 -0.9358  0.0164 -1.5128
 3592TIP3    H232192   4.997   4.279  14.727  2.4607  0.6937  1.3970
 3593TIP3   OH232193   3.321   6.664   1.276 -0.4017  0.7115  0.0381
 3593TIP3    H132194   3.327   6.572   1.301 -0.8508  0.4723 -0.6876
 3593TIP3    H232195   3.325   6.712   1.358  1.1819  0.1140  0.3342
 3594TIP3   OH232196   6.382   5.207   5.284 -0.0086 -0.2221  0.1071
 3594TIP3    H132197   6.467   5.188   5.246  0.0874  1.0640 -0.3676
 3594TIP3    H232198   6.319   5.170   5.222  0.1738  0.7116 -0.6496
 3595TIP3   OH232199   2.731   3.873  14.535  0.2272  0.0489  0.0264
 3595TIP3    H132200   2.730   3.864  14.630  2.5451 -1.6434 -0.0347
 3595TIP3    H232201   2.656   3.823  14.505 -0.8739  1.0873  0.9468
 3596TIP3   OH232202   0.742   1.822   4.261 -0.0367 -0.1112  0.1557
 3596TIP3    H132203   0.732   1.797   4.169  0.7216 -4.4079  1.0263
 3596TIP3    H232204   0.827   1.866   4.264 -0.4888  0.9505 -1.2728
 3597TIP3   OH232205   2.017   2.873  10.762 -0.1329 -0.1313 -0.6978
 3597TIP3    H132206   2.082   2.807  10.736 -0.7913 -0.9694 -0.2795
 3597TIP3    H232207   1.933   2.834  10.738 -0.6622 -0.3021  1.2893
 3598TIP3   OH232208   4.249   6.359  15.396 -0.4016 -0.1736  0.3363
 3598TIP3    H132209   4.296   6.300  15.337 -0.6595 -0.5218  0.4728
 3598TIP3    H232210   4.265   6.446  15.361  1.7982 -0.0977  1.3642
 3599TIP3   OH232211   3.404   1.808  10.555 -0.5348 -0.2718  0.1903
 3599TIP3    H132212   3.456   1.876  10.598 -2.4163  0.3888  1.5869
 3599TIP3    H232213   3.369   1.852  10.477 -0.7511 -0.0108  0.4291
 3600TIP3   OH232214   3.717   2.629   4.717  0.1646 -0.0614 -0.3579
 3600TIP3    H132215   3.666   2.642   4.797  0.3982 -0.4774 -0.1394
 3600TIP3    H232216   3.693   2.541   4.688  1.7830 -0.8313  0.5043
 3601TIP3   OH232217   5.343   6.129  10.834  0.3495  0.2233 -0.1395
 3601TIP3    H132218   5.356   6.034  10.841  1.1974  0.2545 -1.0707
 3601TIP3    H232219   5.371   6.150  10.745 -0.4828  1.2547 -0.1706
 3602TIP3   OH232220   2.978   4.530   5.470 -0.3472 -0.1759 -0.3845
 3602TIP3    H132221   3.064   4.569   5.456 -0.6089  0.5927  0.1092
 3602TIP3    H232222   2.996   4.448   5.515  0.0350  0.8222  1.3589
 3603TIP3   OH232223   4.260   6.745  14.282  0.2671 -0.0431  0.3539
 3603TIP3    H132224   4.263   6.782  14.370  0.4554 -1.4704  0.9634
 3603TIP3    H232225   4.320   6.801  14.231  0.2732  0.6978  1.1522
 3604TIP3   OH232226   5.382   0.647  11.430 -0.0806  0.2165  0.6262
 3604TIP3    H132227   5.352   0.594  11.504 -1.7351  1.5534  0.9884
 3604TIP3    H232228   5.327   0.618  11.357  1.8045 -1.3693 -0.2491
 3605TIP3   OH232229   4.223   3.900  11.785 -0.4066  0.7105 -0.1358
 3605TIP3    H132230   4.183   3.813  11.773  0.3794  0.3374 -0.0838
 3605TIP3    H232231   4.256   3.923  11.699 -1.3729  1.3557 -0.3530
 3606TIP3   OH232232   2.047   2.524  10.544  0.3486  0.1960 -0.0072
 3606TIP3    H132233   2.027   2.598  10.487  1.7719  1.5225  1.1353
 3606TIP3    H232234   2.087   2.458  10.486  2.8505  1.9613 -0.4474
 3607TIP3   OH232235   5.022   0.599  10.899 -0.1092 -0.0939 -0.2419
 3607TIP3    H132236   4.943   0.558  10.934 -0.4524  0.0170 -0.8798
 3607TIP3    H232237   5.002   0.692  10.898  1.0819  0.2933  2.3014
 3608TIP3   OH232238   2.959   5.668  13.128 -0.2160 -0.0619  0.1527
 3608TIP3    H132239   3.050   5.681  13.103 -0.1645 -0.5270  0.0857
 3608TIP3    H232240   2.937   5.581  13.095 -1.5343  1.1143 -2.3425
 3609TIP3   OH232241   3.956   4.640   2.649  0.0467 -0.8071 -0.3597
 3609TIP3    H132242   4.029   4.580   2.666  1.4584  0.7465 -0.7182
 3609TIP3    H232243   3.912   4.603   2.572 -0.0789 -2.1939  0.3365
 3610TIP3   OH232244   1.677   5.860   4.935 -0.3673 -0.2157  0.2545
 3610TIP3    H132245   1.638   5.780   4.969  0.2207 -0.0033  1.4971
 3610TIP3    H232246   1.759   5.831   4.896 -0.7344 -0.3770 -0.4008
 3611TIP3   OH232247   4.531   2.728  13.809 -0.4112  0.1580  0.6185
 3611TIP3    H132248   4.537   2.693  13.720 -1.1269  1.0053  0.2182
 3611TIP3    H232249   4.568   2.659  13.865  0.0720 -0.3724 -0.3323
 3612TIP3   OH232250   2.457   6.290  16.085  0.1175  0.6565  0.3305
 3612TIP3    H132251   2.461   6.385  16.093  1.0822  0.5779  0.9460
 3612TIP3    H232252   2.538   6.259  16.124  1.2514 -0.2685 -2.4912
 3613TIP3   OH232253   0.541   4.240   0.989 -0.3109 -0.1528 -0.5464
 3613TIP3    H132254   0.530   4.298   1.064  0.1397 -0.7420 -0.0115
 3613TIP3    H232255   0.635   4.242   0.970 -0.2993 -0.6520 -0.5630
 3614TIP3   OH232256   1.149   6.676   4.106 -0.8949  0.3786 -0.4965
 3614TIP3    H132257   1.224   6.633   4.066 -0.7996  0.6868 -0.6558
 3614TIP3    H232258   1.176   6.691   4.197 -0.4130  1.2892 -0.7810
 3615TIP3   OH232259   4.946   6.323  11.198  0.1475  0.5253 -0.3810
 3615TIP3    H132260   4.946   6.241  11.148 -0.4522  0.6226 -0.5442
 3615TIP3    H232261   4.999   6.383  11.145  0.8785  0.1443 -0.0906
 3616TIP3   OH232262   5.258   0.536   4.649  0.7056  0.3211  1.1504
 3616TIP3    H132263   5.296   0.493   4.573  0.2526  0.2893  0.9396
 3616TIP3    H232264   5.281   0.629   4.639 -0.1733  0.4760  0.4665
 3617TIP3   OH232265   0.190   6.844   4.129 -0.3382 -0.5407  0.0581
 3617TIP3    H132266   0.121   6.875   4.187  1.8147  1.2279  1.8662
 3617TIP3    H232267   0.193   6.908   4.058 -1.3991 -1.3906 -0.7919
 3618TIP3   OH232268   5.283   0.094  10.410 -0.2956  0.7478  0.7747
 3618TIP3    H132269   5.241   0.012  10.385 -0.2483  1.1226 -0.6267
 3618TIP3    H232270   5.295   0.141  10.327  0.4287  1.8113  1.4574
 3619TIP3   OH232271   6.735   0.540  14.313 -0.3027  0.1906  0.0643
 3619TIP3    H132272   6.700   0.552  14.402 -1.3786  1.7362 -0.5265
 3619TIP3    H232273   6.730   0.446  14.298 -1.1036  0.0169  1.2620
 3620TIP3   OH232274   6.259   1.027  12.277  0.7669  0.1980  0.0054
 3620TIP3    H132275   6.218   0.948  12.314  0.4691  0.4298  0.1795
 3620TIP3    H232276   6.270   1.007  12.184 -0.8280  0.5607 -0.2908
 3621TIP3   OH232277   2.016   0.968  11.830  0.0266 -0.3402  0.0947
 3621TIP3    H132278   1.974   0.910  11.894  0.6600  0.5621  1.3524
 3621TIP3    H232279   1.948   1.031  11.806  0.0536 -0.1118  0.6008
 3622TIP3   OH232280   0.764   1.278   3.230 -0.4937  0.1733  0.3675
 3622TIP3    H132281   0.847   1.319   3.205 -1.2245  1.5980  0.1738
 3622TIP3    H232282   0.697   1.339   3.200 -1.6637 -1.3245 -0.1958
 3623TIP3   OH232283   6.021   3.003  15.157  0.0601  0.0032  0.1825
 3623TIP3    H132284   5.980   2.919  15.180 -1.1872  0.6415  0.3870
 3623TIP3    H232285   6.032   3.048  15.241  2.1951 -0.5536  0.2640
 3624TIP3   OH232286   2.716   3.839  11.344  0.8033 -0.4284  0.0993
 3624TIP3    H132287   2.642   3.894  11.317  0.0399 -0.9642  1.0448
 3624TIP3    H232288   2.769   3.832  11.265  1.0803  1.8635  0.0076
 3625TIP3   OH232289   3.475   6.255  15.103  0.1277  0.4860 -0.5688
 3625TIP3    H132290   3.465   6.349  15.088  1.0521  0.5066 -1.1108
 3625TIP3    H232291   3.514   6.222  15.022  3.2303  0.2266  0.8804
 3626TIP3   OH232292   2.227   6.179  12.266  0.2033  0.4243 -0.7720
 3626TIP3    H132293   2.277   6.261  12.268  0.0677  0.4933  0.4819
 3626TIP3    H232294   2.143   6.202  12.305  0.3440 -0.4314  0.0574
 3627TIP3   OH232295   0.906   4.442  11.509 -0.4097  0.7883 -0.2402
 3627TIP3    H132296   0.844   4.420  11.579 -0.7347 -1.6643 -1.2117
 3627TIP3    H232297   0.923   4.536  11.521 -1.8333  0.8357  1.9978
 3628TIP3   OH232298   4.625   2.616  11.086  0.3877 -0.4731  0.0082
 3628TIP3    H132299   4.672   2.699  11.072 -0.3411 -0.2099 -0.9952
 3628TIP3    H232300   4.695   2.551  11.095  0.9662  0.1180 -0.1071
 3629TIP3   OH232301   6.061   0.865   3.487 -0.2244 -0.5208 -0.2485
 3629TIP3    H132302   6.020   0.938   3.441  2.7269  0.8067 -1.0134
 3629TIP3    H232303   6.033   0.787   3.437 -2.7513  0.0687  0.0974
 3630TIP3   OH232304   4.593   6.586  15.231  0.3781  0.2778  0.5942
 3630TIP3    H132305   4.595   6.506  15.284  3.1123 -0.7296 -0.8463
 3630TIP3    H232306   4.677   6.628  15.247 -0.6416  2.4477  0.5999
 3631TIP3   OH232307   2.415   4.581  10.382 -0.0866 -0.0325  0.1642
 3631TIP3    H132308   2.370   4.570  10.466 -3.9243  1.0071 -1.5255
 3631TIP3    H232309   2.390   4.505  10.331  1.2221 -0.0560 -0.4870
 3632TIP3   OH232310   5.244   0.170  12.392  0.0612 -0.1457  0.1527
 3632TIP3    H132311   5.172   0.195  12.450 -0.9772 -0.8447 -0.8003
 3632TIP3    H232312   5.235   0.229  12.316 -0.0883 -0.8505 -0.3883
 3633TIP3   OH232313   6.189   2.770  15.443  0.2802  0.8037 -0.0780
 3633TIP3    H132314   6.149   2.791  15.528  1.4203  0.4561  0.5641
 3633TIP3    H232315   6.262   2.831  15.436  0.7595  0.2054 -0.3763
 3634TIP3   OH232316   4.198   4.203   4.168 -0.3474  0.5095 -0.7457
 3634TIP3    H132317   4.169   4.282   4.214 -1.4494  0.5095 -1.3861
 3634TIP3    H232318   4.281   4.227   4.128  0.2776  0.7316  0.6282
 3635TIP3   OH232319   5.430   6.538  12.293 -0.2791 -0.1807  0.0072
 3635TIP3    H132320   5.423   6.632  12.273  1.6512 -0.1574 -0.7558
 3635TIP3    H232321   5.469   6.535  12.380 -2.2444 -0.3162  0.9381
 3636TIP3   OH232322   1.695   4.751   3.047  0.5846  0.5205  0.2158
 3636TIP3    H132323   1.790   4.758   3.058  0.3737  1.0409  1.9958
 3636TIP3    H232324   1.660   4.820   3.102 -0.8070  1.4724 -1.7586
 3637TIP3   OH232325   1.632   2.680   3.772  0.2754 -0.7454  0.0004
 3637TIP3    H132326   1.563   2.617   3.751 -0.2033 -0.7192  1.4027
 3637TIP3    H232327   1.670   2.703   3.687 -0.4643 -1.8665 -0.6562
 3638TIP3   OH232328   4.723   2.385  10.734 -0.2352  0.3276  0.0165
 3638TIP3    H132329   4.666   2.315  10.768  0.3829 -0.2440 -0.0882
 3638TIP3    H232330   4.708   2.384  10.640 -0.2153  0.3232  0.0136
 3639TIP3   OH232331   0.935   4.534   5.658 -0.3617 -0.8759  0.0723
 3639TIP3    H132332   0.969   4.603   5.715  0.6315 -1.9251  0.7870
 3639TIP3    H232333   0.935   4.574   5.571  0.3660 -0.0317  0.4409
 3640TIP3   OH232334   5.825   2.265  15.097  0.2043  0.7272 -0.3420
 3640TIP3    H132335   5.735   2.284  15.124  0.9029  2.0705  1.2182
 3640TIP3    H232336   5.844   2.331  15.030  0.0539  0.4761 -0.6343
 3641TIP3   OH232337   3.110   4.338  15.240 -0.4600 -0.1266 -0.0117
 3641TIP3    H132338   3.054   4.292  15.302 -1.2200  0.8004  0.0075
 3641TIP3    H232339   3.158   4.402  15.293  0.2043 -0.5168 -0.1210
 3642TIP3   OH232340   1.112   2.043   5.096  0.5476  0.1027 -0.4840
 3642TIP3    H132341   1.037   1.986   5.083  0.1740  0.0334  1.6614
 3642TIP3    H232342   1.150   2.052   5.009 -3.8133  2.8515 -2.4701
 3643TIP3   OH232343   5.912   0.538  12.567  0.1728  0.0448 -0.4668
 3643TIP3    H132344   5.869   0.538  12.481  0.2562 -1.3689 -0.5263
 3643TIP3    H232345   5.889   0.454  12.606  1.6981 -0.1458  0.0996
 3644TIP3   OH232346   0.283   3.042  12.461  0.3483  0.2201 -0.6938
 3644TIP3    H132347   0.267   2.976  12.528  0.3788  1.6226  0.7778
 3644TIP3    H232348   0.310   2.993  12.384 -3.5796 -1.7866 -1.0452
 3645TIP3   OH232349   5.510   2.937   4.284  0.1605 -0.7655 -0.5054
 3645TIP3    H132350   5.504   3.020   4.238 -2.0598 -0.5835 -0.0140
 3645TIP3    H232351   5.544   2.959   4.370  1.0089 -0.6074 -0.8721
 3646TIP3   OH232352   0.664   3.316   1.726 -0.1239 -0.1120  0.5299
 3646TIP3    H132353   0.674   3.398   1.775 -0.2013 -0.4340  1.1005
 3646TIP3    H232354   0.678   3.248   1.792  2.2312 -0.5927 -0.3913
 3647TIP3   OH232355   5.518   0.190  11.838  0.1249 -0.2863  0.2894
 3647TIP3    H132356   5.513   0.261  11.774 -1.3582 -0.6017  0.0116
 3647TIP3    H232357   5.593   0.137  11.810  1.2801  1.1517  0.5232
 3648TIP3   OH232358   2.105   2.364  16.064  0.3336 -0.6409  0.4938
 3648TIP3    H132359   2.099   2.445  16.114 -1.6133 -0.1249 -0.4559
 3648TIP3    H232360   2.063   2.385  15.980 -0.7737 -2.7613  0.4439
 3649TIP3   OH232361   4.787   5.047   3.516 -0.5657  0.1426  0.4580
 3649TIP3    H132362   4.841   5.027   3.439  0.6701  0.1211  1.3164
 3649TIP3    H232363   4.801   4.974   3.575 -1.8603 -0.0554  0.5504
 3650TIP3   OH232364   5.389   5.861  10.791 -0.3453 -0.2325 -0.3659
 3650TIP3    H132365   5.358   5.783  10.744 -0.4327 -0.7892  0.5742
 3650TIP3    H232366   5.402   5.830  10.881 -1.3172  1.0702  0.2516
 3651TIP3   OH232367   1.270   3.518   3.167  0.3062 -0.1696  0.0669
 3651TIP3    H132368   1.363   3.510   3.189  0.3993 -1.3926 -0.6579
 3651TIP3    H232369   1.230   3.554   3.245  1.0824 -1.5683  1.1511
 3652TIP3   OH232370   3.036   0.503  15.583 -0.0455  0.3413  0.0775
 3652TIP3    H132371   3.063   0.593  15.602 -0.1321  0.4905 -0.4862
 3652TIP3    H232372   3.116   0.451  15.594  0.4741  0.7684 -1.5179
 3653TIP3   OH232373   4.763   2.992  15.916 -0.2814  0.3652 -0.1559
 3653TIP3    H132374   4.833   2.928  15.925 -0.3586  0.4581  1.4094
 3653TIP3    H232375   4.752   3.003  15.821  1.5224  0.0383 -0.4410
 3654TIP3   OH232376   4.558   4.622  12.282 -0.2278 -0.1701  0.5462
 3654TIP3    H132377   4.558   4.680  12.358  0.4079  0.8798 -0.2159
 3654TIP3    H232378   4.479   4.646  12.234 -0.6266 -0.8287  0.8578
 3655TIP3   OH232379   1.758   4.229   3.629  0.7514 -0.2574  0.1353
 3655TIP3    H132380   1.714   4.277   3.699  0.4692 -0.1554 -0.1058
 3655TIP3    H232381   1.696   4.232   3.556  2.1858  2.1349 -1.0893
 3656TIP3   OH232382   0.734   2.622   1.556 -0.3582  0.4024 -0.1556
 3656TIP3    H132383   0.760   2.697   1.609  2.3491 -0.7682  0.3541
 3656TIP3    H232384   0.715   2.553   1.621  0.7714 -0.3866 -0.6387
 3657TIP3   OH232385   1.328   5.365  15.493  0.1364 -0.1300 -0.3988
 3657TIP3    H132386   1.283   5.444  15.525  1.2784  1.5548 -2.6527
 3657TIP3    H232387   1.292   5.352  15.405  2.6677  0.2408 -1.5835
 3658TIP3   OH232388   0.103   4.361  11.705  0.2390  0.7815 -0.2211
 3658TIP3    H132389   0.145   4.275  11.696  0.2950  0.8585 -0.7247
 3658TIP3    H232390   0.141   4.398  11.785 -1.3138 -0.5194  1.2136
 3659TIP3   OH232391   4.266   6.238   2.064 -0.3559 -0.1120  0.2709
 3659TIP3    H132392   4.219   6.155   2.055 -0.6355 -0.1055  1.5598
 3659TIP3    H232393   4.352   6.213   2.097 -0.4902  0.1251  0.7946
 3660TIP3   OH232394   2.103   6.423  10.805 -0.0785  0.4493  0.0169
 3660TIP3    H132395   2.137   6.488  10.867  1.2357 -0.6411  0.4880
 3660TIP3    H232396   2.169   6.419  10.736 -1.1877  1.1351 -1.1379
 3661TIP3   OH232397   4.470   1.598   0.454  0.0915  0.1757 -0.4700
 3661TIP3    H132398   4.403   1.646   0.405 -0.0350 -0.6223 -1.1135
 3661TIP3    H232399   4.522   1.665   0.498 -0.5322  0.8504 -0.7520
 3662TIP3   OH232400   5.060   0.757  15.736  0.0733 -0.2407 -0.5352
 3662TIP3    H132401   5.046   0.703  15.814  0.0133 -0.6511 -0.8303
 3662TIP3    H232402   4.990   0.732  15.676  0.6457 -0.5752 -1.0754
 3663TIP3   OH232403   5.434   5.146   2.873 -0.6405  0.2867  0.3327
 3663TIP3    H132404   5.512   5.097   2.846 -0.3816  0.4179  0.8234
 3663TIP3    H232405   5.464   5.199   2.947 -0.1523  3.4628 -1.9776
 3664TIP3   OH232406   1.262   2.411   6.100  0.0032 -0.1021  0.5056
 3664TIP3    H132407   1.207   2.488   6.090 -0.5687 -0.6309 -0.6067
 3664TIP3    H232408   1.350   2.441   6.076 -0.2535  0.1628 -0.1427
 3665TIP3   OH232409   2.589   5.336  12.548  0.6163  0.2590  0.6026
 3665TIP3    H132410   2.646   5.412  12.537  1.4236 -0.1813  1.6765
 3665TIP3    H232411   2.645   5.261  12.530 -0.1714 -0.1087 -0.4299
 3666TIP3   OH232412   1.941   0.884   3.000  0.5738 -0.1666  0.3053
 3666TIP3    H132413   1.898   0.923   2.924 -0.4853  1.5628  1.7173
 3666TIP3    H232414   1.908   0.795   3.003 -4.4189  1.3782  2.1420
 3667TIP3   OH232415   4.024   0.803   6.244 -0.9976 -0.6294  0.0092
 3667TIP3    H132416   3.951   0.743   6.264 -0.9320 -1.1447 -1.2430
 3667TIP3    H232417   4.101   0.759   6.280 -1.1634 -0.5519  0.4679
 3668TIP3   OH232418   4.306   1.309  15.367  0.3088 -0.9802  0.7380
 3668TIP3    H132419   4.352   1.298  15.284 -0.6263  0.4013 -0.0181
 3668TIP3    H232420   4.292   1.404  15.374  1.7414 -0.8637  3.2683
 3669TIP3   OH232421   5.427   0.387  13.822 -0.4915 -0.2231 -0.4042
 3669TIP3    H132422   5.391   0.411  13.907 -0.2826 -0.8950 -0.1213
 3669TIP3    H232423   5.510   0.342  13.842 -0.1870  0.0668 -0.9811
 3670TIP3   OH232424   2.195   0.807  12.568 -0.1154  0.0670  0.0156
 3670TIP3    H132425   2.265   0.863  12.602 -1.3064  1.3792  0.4398
 3670TIP3    H232426   2.136   0.794  12.643 -2.6465  2.7883 -1.2882
 3671TIP3   OH232427   2.351   6.766   4.189 -0.6110  0.2012  0.2263
 3671TIP3    H132428   2.312   6.752   4.103 -0.6157  0.6314  0.1534
 3671TIP3    H232429   2.382   6.680   4.216 -3.1106 -0.5221  1.0434
 3672TIP3   OH232430   2.135   1.632  14.006 -0.4593  0.3701 -0.0736
 3672TIP3    H132431   2.139   1.627  14.102 -2.3305  0.6905  0.0660
 3672TIP3    H232432   2.098   1.548  13.979  0.8628 -0.0616 -0.6146
 3673TIP3   OH232433   3.672   2.064   4.696 -0.7087 -0.4427  0.1052
 3673TIP3    H132434   3.593   2.097   4.652 -0.2082 -0.5182 -0.8779
 3673TIP3    H232435   3.743   2.080   4.634 -0.0223 -0.8560  0.7607
 3674TIP3   OH232436   0.621   3.705  11.032  0.4216  0.6839  0.6863
 3674TIP3    H132437   0.612   3.744  11.119  0.1554  2.0590  0.0769
 3674TIP3    H232438   0.548   3.742  10.982  0.3309 -0.4033 -0.0113
 3675TIP3   OH232439   4.635   1.979  15.450 -0.5131 -0.1613  0.1100
 3675TIP3    H132440   4.680   2.052  15.491 -1.5218 -0.2049  1.3530
 3675TIP3    H232441   4.569   2.020  15.394  0.7643 -0.1054 -1.4276
 3676TIP3   OH232442   4.006   3.147  14.559  0.1948 -0.1273 -0.0572
 3676TIP3    H132443   4.017   3.072  14.618  0.3510  0.5826  0.8349
 3676TIP3    H232444   4.086   3.148  14.506 -0.3866 -1.3757 -1.0103
 3677TIP3   OH232445   4.669   0.098  16.116  0.0384 -0.5496  0.0515
 3677TIP3    H132446   4.686   0.086  16.209  1.3056 -2.3436 -0.3649
 3677TIP3    H232447   4.735   0.162  16.087 -0.7727  0.5085  0.4804
 3678TIP3   OH232448   2.319   0.177  13.698 -0.2417 -0.3249 -0.0127
 3678TIP3    H132449   2.409   0.203  13.712 -0.4605 -0.1456  1.1335
 3678TIP3    H232450   2.283   0.245  13.640 -0.5221  1.4375  2.0974
 3679TIP3   OH232451   5.666   5.662   1.760 -0.1749  0.2615  0.6003
 3679TIP3    H132452   5.588   5.631   1.806 -0.5593  2.4277  1.5308
 3679TIP3    H232453   5.738   5.645   1.821 -0.0758 -0.6830  0.2271
 3680TIP3   OH232454   2.544   0.273   0.606 -0.3457  0.1928 -0.4240
 3680TIP3    H132455   2.522   0.359   0.570 -0.8158  0.7128  1.0332
 3680TIP3    H232456   2.486   0.212   0.561 -1.4777  0.9249  0.0185
 3681TIP3   OH232457   4.679   3.312  15.905  0.3888 -0.6929  0.1005
 3681TIP3    H132458   4.669   3.223  15.872  0.2908 -1.4545  2.0585
 3681TIP3    H232459   4.599   3.357  15.878  0.0859 -1.4105 -0.2213
 3682TIP3   OH232460   0.044   0.551  12.375  0.0845 -0.0540  0.3379
 3682TIP3    H132461  -0.030   0.598  12.336 -0.0513  0.6959  1.4622
 3682TIP3    H232462   0.061   0.480  12.313 -3.1356 -1.7541  1.1473
 3683TIP3   OH232463   6.190   6.685  16.468 -0.9718 -0.3458 -0.3198
 3683TIP3    H132464   6.099   6.655  16.470 -1.6886  1.6949  0.4329
 3683TIP3    H232465   6.240   6.613  16.507 -2.1975 -1.6436 -1.0686
 3684TIP3   OH232466   6.518   4.846   4.937  0.3409  0.3098 -0.4979
 3684TIP3    H132467   6.439   4.817   4.982 -0.0549  0.8408 -0.8271
 3684TIP3    H232468   6.495   4.840   4.844  1.6512 -2.2354 -0.7398
 3685TIP3   OH232469   6.251   2.996  14.420 -0.1322  0.6925  0.6830
 3685TIP3    H132470   6.190   3.053  14.374 -1.0451 -1.2955 -0.7071
 3685TIP3    H232471   6.338   3.024  14.391 -0.6541 -0.4286 -2.3734
 3686TIP3   OH232472   5.142   6.171  11.614 -0.6303  0.8295 -0.0664
 3686TIP3    H132473   5.199   6.120  11.671 -0.0437  1.5216 -0.0199
 3686TIP3    H232474   5.148   6.129  11.529 -1.5031 -0.2086  0.3619
 3687TIP3   OH232475   3.287   6.369   2.577 -0.5035 -0.5959  0.0735
 3687TIP3    H132476   3.211   6.370   2.519 -0.2613  0.6291 -0.2714
 3687TIP3    H232477   3.316   6.278   2.580 -1.9980 -1.0788  0.2383
 3688TIP3   OH232478   4.645   2.545  15.495 -0.4628  0.2748  0.2525
 3688TIP3    H132479   4.729   2.546  15.449  0.1293 -1.7215  1.1907
 3688TIP3    H232480   4.580   2.526  15.427 -0.4110  3.2128 -0.7350
 3689TIP3   OH232481   1.575   2.820   0.985 -0.2604  0.2077  0.5497
 3689TIP3    H132482   1.508   2.888   0.983 -0.5235 -0.0625 -0.1205
 3689TIP3    H232483   1.557   2.771   1.064 -0.0044  0.9769  1.0989
 3690TIP3   OH232484   0.853   2.795  15.570  0.2809 -0.4293  0.1963
 3690TIP3    H132485   0.925   2.749  15.613 -0.3151 -0.4773  1.1952
 3690TIP3    H232486   0.829   2.740  15.496  0.9614 -0.6554  0.1437
 3691TIP3   OH232487   6.750   5.305  11.588 -0.1925  0.2069  0.3264
 3691TIP3    H132488   6.707   5.355  11.657  2.2553 -0.1274  2.2249
 3691TIP3    H232489   6.744   5.214  11.617  1.9164  0.1676  0.8265
 3692TIP3   OH232490   5.481   5.642  11.853  0.4380 -0.7147  0.0825
 3692TIP3    H132491   5.511   5.567  11.905  3.3280 -1.2501 -2.0894
 3692TIP3    H232492   5.477   5.609  11.764 -0.9716  1.0445 -0.5602
 3693TIP3   OH232493   0.902   4.891  16.220 -0.3679 -0.1601  0.2774
 3693TIP3    H132494   0.820   4.887  16.171 -1.6733  1.7013  2.0992
 3693TIP3    H232495   0.890   4.965  16.280  1.0379 -2.2523  3.4339
 3694TIP3   OH232496   3.378   6.506   3.433  0.7212  0.0613  0.0075
 3694TIP3    H132497   3.415   6.592   3.456 -0.5499  1.1378 -1.7228
 3694TIP3    H232498   3.336   6.476   3.514  0.6462  1.3556  0.4764
 3695TIP3   OH232499   0.287   3.134   0.967 -0.5465 -0.0923  0.4464
 3695TIP3    H132500   0.376   3.113   0.939 -0.4348  0.9538 -0.0400
 3695TIP3    H232501   0.233   3.064   0.929  0.1085 -1.0020  1.1569
 3696TIP3   OH232502   1.314   3.720   0.760  0.2304  0.0115  0.0645
 3696TIP3    H132503   1.264   3.643   0.736 -0.0941  0.8955 -2.3318
 3696TIP3    H232504   1.403   3.702   0.728  1.2701 -0.9728  3.0817
 3697TIP3   OH232505   3.029   3.722  11.395  0.7393  0.4301 -0.1830
 3697TIP3    H132506   3.064   3.651  11.450  1.5793  0.3097 -0.8545
 3697TIP3    H232507   3.056   3.699  11.306  0.5889  1.3433 -0.4757
 3698TIP3   OH232508   3.407   2.557  14.986  0.4973 -0.4476  0.8988
 3698TIP3    H132509   3.399   2.584  14.894 -0.7724 -2.1278  0.4661
 3698TIP3    H232510   3.468   2.620  15.024  1.3114  0.1055 -1.1733
 3699TIP3   OH232511   3.163   1.338  15.538  0.2778 -0.0955  0.4817
 3699TIP3    H132512   3.169   1.433  15.530  0.6240 -0.0449  1.2094
 3699TIP3    H232513   3.202   1.304  15.458  1.6416  0.3719  0.9125
 3700TIP3   OH232514   0.482   3.177  15.551 -0.5216 -0.2100  0.1988
 3700TIP3    H132515   0.530   3.110  15.502 -2.4893 -1.0736 -0.6762
 3700TIP3    H232516   0.431   3.128  15.615 -2.5617  0.2819 -0.9350
 3701TIP3   OH232517   5.152   3.979   4.168  0.3394  0.0399 -0.2156
 3701TIP3    H132518   5.238   3.946   4.144  0.0650 -0.3166 -0.7173
 3701TIP3    H232519   5.111   3.908   4.218 -0.0213 -0.1615 -0.7854
 3702TIP3   OH232520   6.734   0.629   0.915 -0.1396  0.4776  0.3547
 3702TIP3    H132521   6.771   0.683   0.985  0.1056  0.8735 -0.0720
 3702TIP3    H232522   6.692   0.692   0.856  3.1838  0.7035 -2.0547
 3703TIP3   OH232523   1.399   1.337  12.276  0.2529  0.4538  0.2599
 3703TIP3    H132524   1.433   1.285  12.349 -1.6162 -0.7470  0.3360
 3703TIP3    H232525   1.405   1.428  12.305  0.4013  0.0453  1.5272
 3704TIP3   OH232526   3.185   1.971  13.934  0.0894  0.3797  0.1668
 3704TIP3    H132527   3.142   1.919  13.866  0.4207 -0.3261  0.4783
 3704TIP3    H232528   3.231   1.906  13.987  0.5070  1.0029  0.5753
 3705TIP3   OH232529   3.366   4.588  10.977 -0.1033 -0.8220 -0.2194
 3705TIP3    H132530   3.365   4.522  11.047  1.2352 -2.0961 -1.3248
 3705TIP3    H232531   3.311   4.550  10.908 -0.1411 -0.3007 -0.4759
 3706TIP3   OH232532   4.145   2.644  12.768 -0.2075 -0.5451  0.5782
 3706TIP3    H132533   4.234   2.623  12.797 -0.6163 -0.1218  2.2960
 3706TIP3    H232534   4.112   2.705  12.835 -1.2986  0.4299 -0.7951
 3707TIP3   OH232535   4.914   1.518  10.968  0.2696 -0.1822 -0.3687
 3707TIP3    H132536   4.959   1.456  11.024 -0.9522 -0.2241  0.6110
 3707TIP3    H232537   4.880   1.465  10.895 -0.0812 -0.5417  0.0478
 3708TIP3   OH232538   5.988   1.603   4.155  0.6463 -0.3630  0.3210
 3708TIP3    H132539   6.037   1.522   4.174  0.3280 -0.3413  1.2694
 3708TIP3    H232540   5.924   1.609   4.226  0.5562  0.6365  0.1578
 3709TIP3   OH232541   2.872   0.028  10.856 -0.5316  0.7711  0.1669
 3709TIP3    H132542   2.920   0.081  10.792 -0.5884 -0.1310 -0.6357
 3709TIP3    H232543   2.786   0.016  10.817 -0.5685  0.2213  0.4175
 3710TIP3   OH232544   3.150   1.988   2.308 -0.1779 -0.2177 -0.2504
 3710TIP3    H132545   3.091   2.034   2.367 -0.1281 -0.9789  0.4083
 3710TIP3    H232546   3.105   1.906   2.288 -1.2461  0.9443 -3.1112
 3711TIP3   OH232547   5.368   4.193  16.083 -0.1093  0.0964 -0.3789
 3711TIP3    H132548   5.344   4.177  15.991 -0.4189 -1.4302 -0.0607
 3711TIP3    H232549   5.285   4.193  16.130  0.0879  0.4116 -0.0193
 3712TIP3   OH232550   0.300   3.561  13.063  0.3759  0.3456 -0.1716
 3712TIP3    H132551   0.343   3.516  13.136  0.5741  2.7863  1.3611
 3712TIP3    H232552   0.351   3.536  12.986  0.4152 -1.9995  0.5287
 3713TIP3   OH232553   2.990   2.189   0.507  0.4562  0.6247  0.0642
 3713TIP3    H132554   2.919   2.127   0.523  0.5145  0.6517  0.4274
 3713TIP3    H232555   2.996   2.193   0.411  0.0988  0.4770  0.0322
 3714TIP3   OH232556   1.751   2.338  13.773  0.2164  0.4605 -0.7177
 3714TIP3    H132557   1.817   2.366  13.837  1.3557  0.5425 -1.8871
 3714TIP3    H232558   1.799   2.331  13.691 -0.8948 -1.0973 -1.2814
 3715TIP3   OH232559   6.666   3.720  11.848  0.7539  0.0184 -0.0242
 3715TIP3    H132560   6.737   3.774  11.883  1.5245 -1.8074  1.3739
 3715TIP3    H232561   6.645   3.660  11.919 -0.7897 -0.8354 -1.1614
 3716TIP3   OH232562   0.546   1.644   2.009 -0.1076 -0.8018  0.7259
 3716TIP3    H132563   0.561   1.690   2.092  0.9559 -0.9997  0.6532
 3716TIP3    H232564   0.617   1.674   1.952 -0.7530 -0.7735 -0.0735
 3717TIP3   OH232565   0.711   4.266  14.264 -0.1185  0.2984 -0.4318
 3717TIP3    H132566   0.775   4.337  14.271  0.1130  0.2087 -1.4943
 3717TIP3    H232567   0.757   4.189  14.298 -0.1691  0.5208  0.1622
 3718TIP3   OH232568   3.570   0.298  14.884 -0.0924 -0.0399  0.1355
 3718TIP3    H132569   3.483   0.260  14.881  0.4397 -1.3075  0.2122
 3718TIP3    H232570   3.568   0.357  14.960 -1.1882  0.7860 -0.5051
 3719TIP3   OH232571   3.879   1.568  15.198  0.2006  0.0163 -0.3795
 3719TIP3    H132572   3.856   1.579  15.290 -1.1859  0.5558 -0.7819
 3719TIP3    H232573   3.975   1.571  15.198  0.2888 -1.0980  1.1688
 3720TIP3   OH232574   1.000   1.955  12.199  0.4347  0.5208  0.8368
 3720TIP3    H132575   0.993   1.893  12.127  0.7971  0.3664  0.9315
 3720TIP3    H232576   0.978   2.040  12.159 -0.5389  0.2649  0.8235
 3721TIP3   OH232577   0.432   1.374  11.824  0.3695  0.2799  0.2401
 3721TIP3    H132578   0.480   1.345  11.746  1.7987  3.2116 -0.1569
 3721TIP3    H232579   0.438   1.301  11.885  1.1589 -1.2700 -1.5775
 3722TIP3   OH232580   0.426   6.018  12.926  0.1920  0.0262 -0.1073
 3722TIP3    H132581   0.501   6.076  12.913  0.4319  0.6686  3.1143
 3722TIP3    H232582   0.350   6.075  12.915  0.2991  0.1014 -0.4617
 3723TIP3   OH232583   5.864   6.606   3.630 -0.3032  0.2959  0.0111
 3723TIP3    H132584   5.880   6.522   3.672  3.4231  1.2155  0.7112
 3723TIP3    H232585   5.838   6.583   3.540 -2.5262 -1.5579  1.0381
 3724TIP3   OH232586   1.394   5.419  10.873  0.2705 -0.7865  0.5396
 3724TIP3    H132587   1.311   5.375  10.853 -0.0360 -0.6291  1.4012
 3724TIP3    H232588   1.371   5.512  10.875  1.2111 -0.3263 -2.8141
 3725TIP3   OH232589   4.283   5.126  13.987  0.3311 -0.1116  0.0813
 3725TIP3    H132590   4.215   5.133  14.054  1.4118 -0.7530  1.2777
 3725TIP3    H232591   4.320   5.213  13.979  0.5427 -0.1446  0.6968
 3726TIP3   OH232592   6.222   6.709  15.169 -0.0030  0.2693  0.1971
 3726TIP3    H132593   6.237   6.684  15.261 -0.7165  0.4070  0.3573
 3726TIP3    H232594   6.309   6.730  15.136  0.0800  2.1658  1.4194
 3727TIP3   OH232595   4.740   3.000   0.294 -0.5299 -0.0013 -0.0584
 3727TIP3    H132596   4.796   3.078   0.295  1.0216 -1.0291 -0.9616
 3727TIP3    H232597   4.667   3.021   0.352  0.0708  1.9453  0.0569
 3728TIP3   OH232598   6.323   3.539   4.157  0.0530 -0.3378  0.2319
 3728TIP3    H132599   6.274   3.619   4.141 -0.1938 -0.7666 -1.2460
 3728TIP3    H232600   6.257   3.474   4.180  0.0029 -0.7068 -0.9328
 3729TIP3   OH232601   2.248   0.889   3.208 -0.5210 -0.3435 -0.3356
 3729TIP3    H132602   2.154   0.877   3.192 -1.2229 -0.1789  2.8818
 3729TIP3    H232603   2.258   0.870   3.301  1.9941  3.1841  0.2940
 3730TIP3   OH232604   0.091   0.305   1.936  0.4564 -0.4893  0.3712
 3730TIP3    H132605   0.131   0.256   1.864 -0.1593 -0.5215  0.0495
 3730TIP3    H232606   0.164   0.356   1.973  1.0315 -1.3668  0.4900
 3731TIP3   OH232607   6.547   6.130  16.310 -0.8412 -0.6894  0.1577
 3731TIP3    H132608   6.514   6.042  16.325 -1.2509 -0.9941 -2.1392
 3731TIP3    H232609   6.637   6.128  16.342 -0.7930 -1.9990 -0.0081
 3732TIP3   OH232610   5.917   6.495   0.377 -0.6059 -0.0398 -0.5295
 3732TIP3    H132611   5.922   6.403   0.403 -1.7674 -0.3851 -1.4653
 3732TIP3    H232612   5.835   6.502   0.328 -0.5374  1.4978 -0.4694
 3733TIP3   OH232613   6.147   6.370  14.651 -0.5061 -0.2109 -0.7864
 3733TIP3    H132614   6.061   6.412  14.655 -0.0425  1.1308 -3.0996
 3733TIP3    H232615   6.168   6.366  14.558  2.2269  0.1608 -0.2852
 3734TIP3   OH232616   0.366   5.982  16.293 -0.6837 -0.0901  0.9664
 3734TIP3    H132617   0.328   6.066  16.318  0.3906  0.9569 -0.7722
 3734TIP3    H232618   0.382   5.989  16.199  0.6004 -1.7607  1.0085
 3735TIP3   OH232619   6.339   0.711  14.465 -0.3760 -0.2035 -0.6987
 3735TIP3    H132620   6.322   0.620  14.490 -0.8672 -0.4402 -1.8232
 3735TIP3    H232621   6.252   0.749  14.455 -0.2212 -0.1722 -2.1530
 3736TIP3   OH232622   5.276   0.363  14.064  0.2043  0.4660  0.2829
 3736TIP3    H132623   5.198   0.396  14.019  0.5781  1.0973  0.0899
 3736TIP3    H232624   5.252   0.274  14.091 -0.9116  0.9719  1.0434
 3737TIP3   OH232625   6.409   4.443   4.375  0.0583 -0.0637  0.1545
 3737TIP3    H132626   6.385   4.404   4.291  0.6014 -1.6211  0.6957
 3737TIP3    H232627   6.350   4.402   4.439 -1.0843  1.8924  0.4342
 3738TIP3   OH232628   5.471   3.416  12.308  0.0801 -0.5953 -0.1854
 3738TIP3    H132629   5.415   3.493  12.302 -0.0944 -0.6464  0.6356
 3738TIP3    H232630   5.557   3.451  12.332  0.2535 -0.5752 -0.8106
 3739TIP3   OH232631   4.193   0.046   9.957 -0.2081  0.4624 -0.6211
 3739TIP3    H132632   4.258  -0.016   9.926 -0.2236  0.0204  0.2077
 3739TIP3    H232633   4.201   0.044  10.052 -0.5834  1.3279 -0.5600
 3740TIP3   OH232634   2.110   4.872  13.166  0.7775 -0.0473 -0.2345
 3740TIP3    H132635   2.140   4.939  13.227 -1.1449 -1.0248  1.9045
 3740TIP3    H232636   2.145   4.900  13.081  1.2384  2.8525  0.8118
 3741TIP3   OH232637   1.667   3.443   3.570  0.0921 -0.3892  0.1866
 3741TIP3    H132638   1.685   3.349   3.576  0.9001 -0.2412  0.2133
 3741TIP3    H232639   1.741   3.485   3.614 -0.5258  0.2482  0.6497
 3742TIP3   OH232640   3.727   3.681  15.934 -0.1410  0.5981 -0.0304
 3742TIP3    H132641   3.802   3.652  15.986 -1.6849 -1.0246  1.3866
 3742TIP3    H232642   3.724   3.621  15.859 -0.5669  0.0477  0.4202
 3743TIP3   OH232643   4.982   1.142   0.351  0.3744 -0.0070  1.4128
 3743TIP3    H132644   5.043   1.124   0.279  1.3754  2.5702  1.5237
 3743TIP3    H232645   4.962   1.055   0.387  0.0954 -1.3585 -1.6995
 3744TIP3   OH232646   4.218   3.354  12.936 -0.0695  0.0222 -0.8089
 3744TIP3    H132647   4.142   3.296  12.940 -1.4090  1.7365  0.7894
 3744TIP3    H232648   4.284   3.311  12.990 -0.7188 -0.4152 -0.3494
 3745TIP3   OH232649   1.892   1.182  11.694  0.2732 -0.4392 -0.5150
 3745TIP3    H132650   1.813   1.155  11.647  0.0575 -0.1988 -0.2938
 3745TIP3    H232651   1.873   1.270  11.725 -0.2571 -1.2056  1.4749
 3746TIP3   OH232652   5.091   1.554   1.902 -0.3003 -0.5067  0.2043
 3746TIP3    H132653   5.124   1.482   1.849  0.2321  0.5543 -0.9767
 3746TIP3    H232654   5.019   1.516   1.952 -1.6094 -1.3579 -2.1426
 3747TIP3   OH232655   4.745   1.015   0.900 -0.2673 -0.9143 -0.5257
 3747TIP3    H132656   4.653   1.040   0.913 -0.2054 -0.3667 -1.0960
 3747TIP3    H232657   4.791   1.053   0.975 -0.4718 -0.9746 -0.3698
 3748TIP3   OH232658   4.947   4.953   1.310  0.0487 -0.2705  0.9493
 3748TIP3    H132659   4.941   4.867   1.352  0.6874  0.1623  1.9715
 3748TIP3    H232660   4.902   5.012   1.371 -0.2417  0.1498  0.3373
 3749TIP3   OH232661   6.813   5.995   3.206  0.1561 -0.1641  0.7964
 3749TIP3    H132662   6.769   6.035   3.281 -1.0457  0.7340 -0.3565
 3749TIP3    H232663   6.817   5.902   3.228  0.4083  0.1601  2.2479
 3750TIP3   OH232664   0.072   4.164  13.248 -0.0710  0.3906 -0.2093
 3750TIP3    H132665  -0.002   4.145  13.190 -0.2746 -0.2067  0.2315
 3750TIP3    H232666   0.031   4.191  13.330  0.1872 -0.1844  0.1189
 3751TIP3   OH232667   2.047   2.883   4.204  0.6470 -0.2874 -0.8863
 3751TIP3    H132668   2.075   2.968   4.171  1.6574 -0.0649  0.4925
 3751TIP3    H232669   2.075   2.821   4.136  1.4859  0.2875 -1.0756
 3752TIP3   OH232670   4.718   3.427  14.136 -0.2052 -0.0950 -1.3672
 3752TIP3    H132671   4.770   3.462  14.208 -2.2408  0.7396 -0.2147
 3752TIP3    H232672   4.769   3.447  14.058  1.8399 -0.5756 -0.2276
 3753TIP3   OH232673   3.747   0.607   2.080  0.4799 -0.3577  0.2707
 3753TIP3    H132674   3.711   0.676   2.136 -0.8798 -2.7716  2.5911
 3753TIP3    H232675   3.747   0.645   1.993  0.0561  2.6501  1.4518
 3754TIP3   OH232676   6.459   5.634   4.177  0.1372 -0.0617 -0.1044
 3754TIP3    H132677   6.408   5.586   4.112  0.7549  0.4128 -0.9424
 3754TIP3    H232678   6.411   5.716   4.190 -0.2339 -0.3519  0.3889
 3755TIP3   OH232679   5.530   0.069   2.244  0.2912  0.1738 -0.3982
 3755TIP3    H132680   5.460   0.123   2.207 -1.2737 -1.5888 -0.1811
 3755TIP3    H232681   5.582   0.041   2.168  0.3133  0.8992 -0.6531
 3756TIP3   OH232682   0.916   3.666   6.413 -0.4166 -0.6414  0.4413
 3756TIP3    H132683   0.966   3.690   6.491 -1.2609 -0.8671  1.0610
 3756TIP3    H232684   0.982   3.659   6.344  0.1948  0.7233  0.8561
 3757TIP3   OH232685   5.324   0.608  16.005 -0.3400  0.6591 -0.7539
 3757TIP3    H132686   5.385   0.606  16.078 -1.1820  0.8661 -0.0349
 3757TIP3    H232687   5.283   0.521  16.006 -1.9781  1.4153  0.4361
 3758TIP3   OH232688   0.615   3.504  16.445 -0.9353  0.5530 -0.0741
 3758TIP3    H132689   0.678   3.575  16.431  1.5940 -0.9769  2.3792
 3758TIP3    H232690   0.567   3.497  16.362  0.7559  3.1401 -1.3918
 3759TIP3   OH232691   4.766   5.479  11.069 -0.2527  0.2608  0.0767
 3759TIP3    H132692   4.723   5.564  11.063 -2.6194 -0.8061  0.9873
 3759TIP3    H232693   4.798   5.462  10.980 -0.4454  1.7249 -0.2961
 3760TIP3   OH232694   0.244   5.655   5.076  0.4711  0.3087  0.4459
 3760TIP3    H132695   0.155   5.643   5.044  0.7230 -0.5478  0.0265
 3760TIP3    H232696   0.280   5.726   5.024 -0.4781  1.7827  1.7264
 3761TIP3   OH232697   0.852   0.159  15.797  0.5049  0.2432 -0.1520
 3761TIP3    H132698   0.828   0.096  15.729  0.3232 -0.2407  0.3543
 3761TIP3    H232699   0.947   0.158  15.799  0.5453 -2.2736  1.8796
 3762TIP3   OH232700   6.433   4.310  12.724 -0.1777 -0.1469 -0.1306
 3762TIP3    H132701   6.384   4.377  12.773  1.6103  2.4127 -1.6421
 3762TIP3    H232702   6.374   4.284  12.654 -1.2414 -0.9085  0.9992
 3763TIP3   OH232703   4.693   1.058  12.197 -0.0142  0.3609 -0.0948
 3763TIP3    H132704   4.661   0.976  12.237  0.4696  0.2397  0.0474
 3763TIP3    H232705   4.647   1.063  12.114 -0.3388  0.1402  0.0667
 3764TIP3   OH232706   0.570   5.944   0.216 -0.8380  0.4840  0.2484
 3764TIP3    H132707   0.607   5.970   0.301  2.4651 -1.1020 -0.5406
 3764TIP3    H232708   0.608   6.006   0.154 -2.1074  0.7516 -0.2934
 3765TIP3   OH232709   1.486   1.287   0.991 -0.3750  0.1166 -0.7616
 3765TIP3    H132710   1.566   1.332   0.962  0.9215 -1.1785  0.6120
 3765TIP3    H232711   1.506   1.259   1.081 -2.1886 -0.7148 -0.5743
 3766TIP3   OH232712   6.809   2.266   9.932  0.8015  0.2961 -0.1976
 3766TIP3    H132713   6.799   2.179   9.971  0.7074 -0.5214 -1.9407
 3766TIP3    H232714   6.886   2.258   9.876 -0.7560  0.4844 -2.4865
 3767TIP3   OH232715   5.441   4.666  12.304  0.1922 -0.5545 -0.1320
 3767TIP3    H132716   5.464   4.601  12.370 -0.9545 -0.2835  0.5750
 3767TIP3    H232717   5.346   4.659  12.296 -0.1550  1.9188  0.9402
 3768TIP3   OH232718   2.573   6.819  11.181  0.3714 -0.0911  0.3171
 3768TIP3    H132719   2.589   6.729  11.207 -3.0220 -1.1245 -0.6298
 3768TIP3    H232720   2.572   6.816  11.085 -0.2186  0.8575  0.2809
 3769TIP3   OH232721   6.855   4.505   6.057 -0.7000  0.0327 -0.1741
 3769TIP3    H132722   6.771   4.493   6.013 -2.0393  1.3851  1.8389
 3769TIP3    H232723   6.848   4.454   6.137 -0.9521  2.5688  1.5595
 3770TIP3   OH232724   4.670   4.171   2.372 -0.0287  0.1028 -0.1888
 3770TIP3    H132725   4.679   4.219   2.455  0.8147  0.1877 -0.3214
 3770TIP3    H232726   4.740   4.107   2.374  0.2458  0.3650 -1.0199
 3771TIP3   OH232727   3.233   2.818   1.605 -0.7597  0.8013  0.2332
 3771TIP3    H132728   3.177   2.806   1.681 -1.6163 -0.6434 -0.5833
 3771TIP3    H232729   3.228   2.912   1.586 -0.1567  1.2824  2.1906
 3772TIP3   OH232730   3.850   0.365   1.039  0.6367  0.2036 -0.0286
 3772TIP3    H132731   3.790   0.411   0.980  0.8764  0.3680 -0.1465
 3772TIP3    H232732   3.878   0.288   0.990  2.4527  1.3814 -0.9931
 3773TIP3   OH232733   3.755   0.266  15.783  0.2247  0.4357  0.4887
 3773TIP3    H132734   3.747   0.326  15.857  1.9307 -0.8543  1.7939
 3773TIP3    H232735   3.846   0.275  15.754 -0.0328 -0.1202 -0.5440
 3774TIP3   OH232736   0.153   5.422  13.830 -0.1762  0.2874 -0.3665
 3774TIP3    H132737   0.234   5.473  13.821  0.5502 -0.6432  0.5721
 3774TIP3    H232738   0.100   5.473  13.891 -1.4086  2.1547 -2.8151
 3775TIP3   OH232739   0.866   3.692   5.633 -0.0505 -0.0802 -0.1488
 3775TIP3    H132740   0.905   3.778   5.653 -0.3434 -0.1141  0.5598
 3775TIP3    H232741   0.793   3.713   5.575  0.4781  0.0557 -0.7937
 3776TIP3   OH232742   4.499   0.318  13.232  0.3493  0.2798 -0.1848
 3776TIP3    H132743   4.512   0.400  13.280  1.1051 -0.5459  1.0966
 3776TIP3    H232744   4.585   0.298  13.194  0.6095 -0.7123  0.8692
 3777TIP3   OH232745   2.247   4.645  13.016 -0.0139  0.1303  0.5326
 3777TIP3    H132746   2.245   4.672  12.925  1.9795  0.2355  0.4706
 3777TIP3    H232747   2.192   4.708  13.062 -2.0430 -0.6336 -0.7166
 3778TIP3   OH232748   5.444   0.588  14.497 -0.2404  0.0431  0.7419
 3778TIP3    H132749   5.353   0.587  14.528 -0.9437  3.2466 -0.8390
 3778TIP3    H232750   5.439   0.559  14.406  0.4166 -0.2196  0.7815
 3779TIP3   OH232751   6.843   4.422  12.752 -0.0629  0.1813  0.1529
 3779TIP3    H132752   6.759   4.466  12.769  0.1795  0.5624  0.3853
 3779TIP3    H232753   6.844   4.410  12.657 -0.4379  0.0587  0.1610
 3780TIP3   OH232754   3.770   3.345  13.268  0.3151 -0.1168 -0.2510
 3780TIP3    H132755   3.817   3.415  13.313 -0.0104  0.0418 -0.1534
 3780TIP3    H232756   3.720   3.390  13.199  0.7106 -0.3432 -0.6889
 3781TIP3   OH232757   5.916   0.596   2.416 -0.5368 -0.6658  0.1917
 3781TIP3    H132758   5.970   0.569   2.490 -0.7283  1.0004  0.9848
 3781TIP3    H232759   5.897   0.515   2.369  1.9701 -1.4109  0.3371
 3782TIP3   OH232760   2.827   3.601   4.258  0.3446 -0.2136 -0.2494
 3782TIP3    H132761   2.898   3.665   4.261 -0.9452  1.3082 -0.7926
 3782TIP3    H232762   2.823   3.573   4.167 -0.4344  0.5553 -0.4697
 3783TIP3   OH232763   5.960   5.479   1.259 -0.5968 -0.5152 -0.2695
 3783TIP3    H132764   5.972   5.416   1.330  0.6344 -0.1016 -0.0849
 3783TIP3    H232765   5.868   5.504   1.264 -0.9198 -1.7124  0.1368
 3784TIP3   OH232766   2.150   4.408   3.607  0.4142  0.2100  0.2620
 3784TIP3    H132767   2.119   4.369   3.688  0.5454 -0.4596 -0.0035
 3784TIP3    H232768   2.089   4.377   3.540  1.2104 -0.5411 -0.1501
 3785TIP3   OH232769   3.378   2.615   5.233  0.3036  0.0432  0.4701
 3785TIP3    H132770   3.432   2.598   5.310 -2.2716  1.3091  2.7257
 3785TIP3    H232771   3.353   2.707   5.240 -0.7084 -0.0144 -1.4546
 3786TIP3   OH232772   5.340   0.703   1.423  0.8216 -0.1799  0.3019
 3786TIP3    H132773   5.248   0.680   1.406  0.9406 -0.2783 -0.2301
 3786TIP3    H232774   5.389   0.659   1.353  1.3931 -1.0328  1.2082
 3787TIP3   OH232775   1.929   5.859   2.805  0.0024  0.4057  0.5422
 3787TIP3    H132776   1.913   5.885   2.714  1.9907  0.4926  0.1763
 3787TIP3    H232777   1.946   5.942   2.851  0.3041  0.2485  0.7132
 3788TIP3   OH232778   1.866   5.456  14.353  0.3458  0.0973  0.6416
 3788TIP3    H132779   1.861   5.500  14.268  0.6436  0.6316  0.8924
 3788TIP3    H232780   1.917   5.378  14.337  2.9537  1.6435  0.8817
 3789TIP3   OH232781   1.371   5.089  14.633  0.6915 -0.0848 -0.1777
 3789TIP3    H132782   1.281   5.108  14.659  0.5735  0.3332 -0.8798
 3789TIP3    H232783   1.424   5.149  14.686  0.5594 -0.2497  0.1490
 3790TIP3   OH232784   3.319   2.267  11.644 -0.0941 -0.1782 -0.5394
 3790TIP3    H132785   3.242   2.319  11.621 -0.0452 -0.1996 -0.7541
 3790TIP3    H232786   3.312   2.188  11.591 -0.0186 -0.2621 -0.4261
 3791TIP3   OH232787   0.831   5.509  14.424 -0.5083  0.3500 -0.3048
 3791TIP3    H132788   0.890   5.446  14.467 -1.2668 -0.2191 -0.0690
 3791TIP3    H232789   0.760   5.455  14.390 -0.2091  0.8613 -1.8125
 3792TIP3   OH232790   0.250   5.495  12.012  0.0800 -0.2898 -0.5035
 3792TIP3    H132791   0.288   5.537  11.934 -0.1297 -0.0718 -0.4906
 3792TIP3    H232792   0.307   5.524  12.084 -0.1324  0.0745 -0.4773
 3793TIP3   OH232793   1.300   1.150  11.315 -0.4588  0.2494 -0.2009
 3793TIP3    H132794   1.291   1.217  11.247  0.0866  2.1935  1.5582
 3793TIP3    H232795   1.210   1.129  11.340 -0.6191  1.7184  0.5153
 3794TIP3   OH232796   4.213   3.200  16.088  0.2654 -0.7469 -0.1684
 3794TIP3    H132797   4.254   3.273  16.041 -0.1405 -1.3113 -1.4675
 3794TIP3    H232798   4.170   3.241  16.163  1.1410  0.1722 -0.1424
 3795TIP3   OH232799   6.378   1.188  11.167 -0.0640  0.0833 -0.8846
 3795TIP3    H132800   6.394   1.199  11.073  2.3021  1.1526 -0.4132
 3795TIP3    H232801   6.419   1.104  11.188 -1.0035 -0.3857 -0.8558
 3796TIP3   OH232802   5.044   2.416  16.089  0.1637  0.0797 -0.3527
 3796TIP3    H132803   5.045   2.420  16.185  1.2492  1.7920 -0.3936
 3796TIP3    H232804   4.970   2.472  16.064 -1.1384 -1.6295 -0.5358
 3797TIP3   OH232805   3.713   4.345   0.988 -0.3025 -0.3041  0.3692
 3797TIP3    H132806   3.720   4.253   1.012 -0.4953  0.4322  3.7071
 3797TIP3    H232807   3.619   4.361   0.983 -0.2729 -0.4643 -1.2654
 3798TIP3   OH232808   6.275   0.342  12.819  0.3872 -0.2338 -0.1563
 3798TIP3    H132809   6.252   0.257  12.782 -0.7648  0.0836 -0.2168
 3798TIP3    H232810   6.333   0.382  12.755  0.2965 -0.6502 -0.4997
 3799TIP3   OH232811   2.891   1.045   1.145  0.6463  0.1482  0.9855
 3799TIP3    H132812   2.796   1.056   1.139  0.5635 -0.9571 -0.1616
 3799TIP3    H232813   2.903   0.952   1.163  1.5140  0.1918  0.6719
 3800TIP3   OH232814   2.105   3.045  12.027 -0.1808 -0.5740  0.4164
 3800TIP3    H132815   2.160   3.123  12.028 -0.6257 -0.2576  0.8199
 3800TIP3    H232816   2.052   3.055  11.949  0.9866 -1.3569 -0.5087
 3801TIP3   OH232817   5.589   5.413   0.163  0.4761  0.1884  0.9371
 3801TIP3    H132818   5.506   5.459   0.176  0.3317  0.1233  0.2859
 3801TIP3    H232819   5.597   5.357   0.241 -0.9292 -1.0410  0.2609
 3802TIP3   OH232820   0.652   5.873  10.976 -0.4106  0.5288  0.1951
 3802TIP3    H132821   0.609   5.956  10.955 -0.3519  0.3039 -0.8786
 3802TIP3    H232822   0.590   5.806  10.947  0.0527  0.2053 -0.0568
 3803TIP3   OH232823   5.235   4.948  13.068  0.0740  0.3308  0.3384
 3803TIP3    H132824   5.240   4.999  13.149  2.5113  0.8970 -0.1023
 3803TIP3    H232825   5.261   5.009  12.999  0.6938 -0.8609 -0.5113
 3804TIP3   OH232826   6.753   2.143  10.617 -0.4474  0.8053  0.2734
 3804TIP3    H132827   6.688   2.172  10.680 -0.0541  1.1069  0.5441
 3804TIP3    H232828   6.819   2.212  10.617  0.6049 -0.1516  1.0705
 3805TIP3   OH232829   5.461   1.985   0.214 -0.0532  0.3963 -0.1793
 3805TIP3    H132830   5.523   2.038   0.264  1.2040 -1.4812  0.3575
 3805TIP3    H232831   5.500   1.978   0.127  0.0824 -0.1117 -0.0796
 3806TIP3   OH232832   0.572   2.276  10.331  0.0901  0.3798  0.4210
 3806TIP3    H132833   0.493   2.307  10.374 -1.2122 -2.4138  0.2334
 3806TIP3    H232834   0.551   2.278  10.237  0.2120 -0.3904  0.3695
 3807TIP3   OH232835   5.916   3.628   2.946 -0.1125 -0.1901 -0.1526
 3807TIP3    H132836   5.939   3.615   3.038  2.1748  1.9082 -0.3254
 3807TIP3    H232837   5.834   3.579   2.934 -2.9187  2.8444  4.0694
 3808TIP3   OH232838   2.623   3.167   0.959 -0.5147 -0.0709 -0.7361
 3808TIP3    H132839   2.705   3.154   1.006 -1.8763 -0.2599  1.7563
 3808TIP3    H232840   2.564   3.101   0.996 -2.5162  1.7211 -0.5602
 3809TIP3   OH232841   6.464   3.778   0.886 -0.4003 -0.3038 -0.4320
 3809TIP3    H132842   6.423   3.845   0.831 -1.0744 -1.9688 -2.0895
 3809TIP3    H232843   6.470   3.818   0.972 -0.5606  1.9451 -1.4016
 3810TIP3   OH232844   6.838   3.392  11.902 -0.0216  0.2922  0.2337
 3810TIP3    H132845   6.821   3.298  11.907 -0.5314  0.3938  0.5979
 3810TIP3    H232846   6.789   3.421  11.826 -0.0601  0.2975  0.2602
 3811TIP3   OH232847   5.291   5.762  12.001  0.6049 -0.0683 -0.5185
 3811TIP3    H132848   5.332   5.704  11.937  0.7590 -0.9598  0.3737
 3811TIP3    H232849   5.363   5.817  12.033  0.2587  1.4570 -2.1972
 3812TIP3   OH232850   1.874   3.806  10.975 -0.2065  0.2847  0.1829
 3812TIP3    H132851   1.899   3.764  11.057 -2.0908 -0.4233  0.4655
 3812TIP3    H232852   1.861   3.733  10.914  1.8885  0.8370 -1.0120
 3813TIP3   OH232853   3.434   0.830   2.736  0.2875  0.1088  0.0644
 3813TIP3    H132854   3.440   0.924   2.747  0.3737  0.0335  0.7065
 3813TIP3    H232855   3.352   0.805   2.779  1.7885 -0.4936  2.7773
 3814TIP3   OH232856   6.726   3.022  13.367 -0.0770  0.1873  0.2383
 3814TIP3    H132857   6.817   3.010  13.396  0.0778 -0.0989 -0.3514
 3814TIP3    H232858   6.704   2.940  13.323 -0.4637  0.4303 -0.0307
 3815TIP3   OH232859   2.816   0.960   3.749 -0.2461 -0.3957 -0.6230
 3815TIP3    H132860   2.855   0.875   3.768 -0.7950 -0.8045 -1.2649
 3815TIP3    H232861   2.771   0.984   3.830 -0.8018 -1.1243 -0.7000
 3816TIP3   OH232862   4.238   2.855  14.978 -0.6522 -0.0069  0.0684
 3816TIP3    H132863   4.195   2.770  14.966 -1.4846  0.4081 -0.0005
 3816TIP3    H232864   4.311   2.853  14.917 -0.4588 -0.8046  0.3087
 3817TIP3   OH232865   0.733   5.845   0.844 -0.2852 -0.0380 -0.2232
 3817TIP3    H132866   0.726   5.918   0.904  0.0103 -0.7537  0.7073
 3817TIP3    H232867   0.803   5.868   0.784  1.4951 -0.5798  1.5619
 3818TIP3   OH232868   6.401   3.438  11.904  0.0125  0.1587 -0.5272
 3818TIP3    H132869   6.384   3.389  11.984 -0.9392  0.6320 -0.4315
 3818TIP3    H232870   6.315   3.464  11.872  0.1415 -2.0604 -3.0310
 3819TIP3   OH232871   0.128   6.817   1.599  0.1678 -0.1935  0.6521
 3819TIP3    H132872   0.094   6.899   1.635 -0.7446 -1.4781  2.8894
 3819TIP3    H232873   0.066   6.793   1.530 -0.7288 -0.0172  1.3772
 3820TIP3   OH232874   4.863   6.469  11.818  0.1362 -0.3958  0.0614
 3820TIP3    H132875   4.874   6.385  11.773 -1.3212 -0.8608  0.5205
 3820TIP3    H232876   4.917   6.462  11.896 -1.0742 -1.5077  0.8405
 3821TIP3   OH232877   2.839   4.708  11.420 -0.2891  0.2633 -0.2454
 3821TIP3    H132878   2.763   4.766  11.411  0.5941  1.5933  0.4606
 3821TIP3    H232879   2.914   4.765  11.407  0.6116 -1.1613 -1.6342
 3822TIP3   OH232880   5.724   4.877  13.495 -0.5257 -0.1630 -0.2880
 3822TIP3    H132881   5.702   4.901  13.405  1.0239  0.1262 -0.6204
 3822TIP3    H232882   5.640   4.867  13.538 -1.3037 -0.1820 -1.7354
 3823TIP3   OH232883   1.301   0.874  12.257 -0.1323  0.2792 -0.2492
 3823TIP3    H132884   1.248   0.806  12.215  0.2819 -0.3379  0.2035
 3823TIP3    H232885   1.304   0.945  12.194 -0.4237 -0.2006 -0.8089
 3824TIP3   OH232886   5.224   5.444   4.906  0.0469 -0.3717  0.7304
 3824TIP3    H132887   5.190   5.472   4.991  2.9522 -3.0392  2.9815
 3824TIP3    H232888   5.173   5.365   4.885  0.1801 -0.4240  0.6063
 3825TIP3   OH232889   0.600   3.608   1.322  0.4398 -0.3251  0.0049
 3825TIP3    H132890   0.572   3.555   1.248 -1.4890  0.5100  0.0770
 3825TIP3    H232891   0.528   3.602   1.385  1.3469  0.2567  1.1394
 3826TIP3   OH232892   3.347   6.455  11.619 -0.3405  0.0935 -0.8376
 3826TIP3    H132893   3.327   6.403  11.697 -2.1668  0.4700 -1.0131
 3826TIP3    H232894   3.296   6.535  11.630 -1.0914 -0.0833 -2.6689
 3827TIP3   OH232895   1.464   0.650  15.979 -0.1076  0.7735 -0.2240
 3827TIP3    H132896   1.444   0.742  15.994 -0.7447  0.6222 -0.0939
 3827TIP3    H232897   1.404   0.603  16.038  0.2621  0.2816 -0.2367
 3828TIP3   OH232898   5.314   4.069   3.558 -0.3616 -0.0534  0.2081
 3828TIP3    H132899   5.297   4.114   3.475 -0.0957  2.0504  1.2434
 3828TIP3    H232900   5.365   3.992   3.533 -0.8927  0.1356 -1.6395
 3829TIP3   OH232901   6.083   4.049   1.535 -0.3061 -0.1792  0.9933
 3829TIP3    H132902   6.015   4.031   1.470 -1.6947  0.2076  2.2629
 3829TIP3    H232903   6.165   4.033   1.490 -1.2216 -0.0378 -0.8097
 3830TIP3   OH232904   3.295   3.024  16.711 -0.0061  0.0106  0.1190
 3830TIP3    H132905   3.298   2.930  16.729 -0.2661  0.2361  1.4304
 3830TIP3    H232906   3.315   3.065  16.795 -2.4953  1.1466  0.2512
 3831TIP3   OH232907   1.862   5.746   4.752  0.2224  0.0476  0.5648
 3831TIP3    H132908   1.935   5.703   4.796  1.4746  0.4588 -1.0050
 3831TIP3    H232909   1.890   5.754   4.661 -2.0534 -0.3460 -0.2418
 3832TIP3   OH232910   1.096   4.670  13.157  0.4362 -0.0665  0.0369
 3832TIP3    H132911   1.031   4.601  13.144  0.5305 -0.2443  0.4730
 3832TIP3    H232912   1.162   4.630  13.214  0.0851  0.6275  0.9523
 3833TIP3   OH232913   6.482   2.378  16.127  0.5173 -0.6289  0.1721
 3833TIP3    H132914   6.556   2.319  16.144  1.8841  1.0558  0.3935
 3833TIP3    H232915   6.457   2.412  16.213  1.1042  0.6190 -0.1227
 3834TIP3   OH232916   4.778   1.149   3.521  0.1109 -0.4368  0.0265
 3834TIP3    H132917   4.859   1.103   3.544  0.6472 -0.4947 -1.8692
 3834TIP3    H232918   4.755   1.196   3.601  1.2268 -1.5477  1.0559
 3835TIP3   OH232919   1.607   5.357  15.944  0.0342  0.0656  0.4416
 3835TIP3    H132920   1.689   5.376  15.897 -1.1821  1.4750 -1.2614
 3835TIP3    H232921   1.545   5.336  15.874 -2.1087  3.1205  1.2379
 3836TIP3   OH232922   3.222   6.488   0.976 -0.1187  0.3650  0.4540
 3836TIP3    H132923   3.179   6.567   0.944 -1.7207 -0.8031 -0.4480
 3836TIP3    H232924   3.306   6.486   0.930 -0.3377  1.2155 -0.0019
 3837TIP3   OH232925   0.686   0.295  15.602 -0.0590  0.0882 -0.0010
 3837TIP3    H132926   0.746   0.287  15.676  0.5060 -0.1190 -0.4687
 3837TIP3    H232927   0.702   0.217  15.549 -0.9863 -0.1323  0.0288
 3838TIP3   OH232928   5.501   1.056   2.031 -0.1126  0.7526 -0.0355
 3838TIP3    H132929   5.591   1.060   2.000 -0.2561  2.5244 -0.3135
 3838TIP3    H232930   5.508   1.015   2.118  0.9333  0.7287 -0.1156
 3839TIP3   OH232931   1.645   1.273  13.970 -0.2633  0.4309  0.0391
 3839TIP3    H132932   1.715   1.207  13.976 -1.3222 -0.5927  1.9790
 3839TIP3    H232933   1.663   1.334  14.041  0.1594  1.7610 -1.1552
 3840TIP3   OH232934   3.243   5.488  14.661 -0.0837  0.3084 -0.7650
 3840TIP3    H132935   3.248   5.393  14.671  1.7433  0.0725 -2.9626
 3840TIP3    H232936   3.286   5.522  14.740 -0.5493 -0.6737 -0.0630
 3841TIP3   OH232937   3.193   0.746  15.887  0.2287  0.3381  0.1107
 3841TIP3    H132938   3.105   0.765  15.856  0.3271 -1.2209 -1.2597
 3841TIP3    H232939   3.213   0.817  15.948 -1.0223  2.1086 -1.4143
 3842TIP3   OH232940   4.880   6.428  16.053  0.0196 -0.5047  0.4979
 3842TIP3    H132941   4.844   6.502  16.003 -0.5744 -0.6843  0.6502
 3842TIP3    H232942   4.824   6.354  16.029  0.5944 -0.8997  0.3715
 3843TIP3   OH232943   6.170   5.436   4.174  0.1826  0.0627 -0.6636
 3843TIP3    H132944   6.248   5.491   4.185  0.1018  0.2886 -1.1556
 3843TIP3    H232945   6.177   5.370   4.242  0.9306 -0.0617 -0.8556
 3844TIP3   OH232946   0.486   0.550   1.214  0.0081 -0.1406  0.3842
 3844TIP3    H132947   0.551   0.593   1.270  0.3841  1.1689 -0.9777
 3844TIP3    H232948   0.404   0.592   1.238 -0.2336 -1.2016  1.5158
 3845TIP3   OH232949   2.641   4.627  15.928 -0.5253  0.5026 -0.3256
 3845TIP3    H132950   2.658   4.573  15.851 -0.0338  1.7013 -1.0742
 3845TIP3    H232951   2.682   4.711  15.909 -1.1851  1.1266  0.8683
 3846TIP3   OH232952   2.010   1.433  15.932 -0.5257 -0.6963  0.5208
 3846TIP3    H132953   2.087   1.463  15.883 -0.5590 -0.7119  0.4589
 3846TIP3    H232954   1.936   1.474  15.888 -0.4075  1.4788  2.1323
 3847TIP3   OH232955   5.382   6.470   3.062 -0.4402 -0.5739 -0.3867
 3847TIP3    H132956   5.473   6.456   3.036 -0.2074  0.2698 -0.0614
 3847TIP3    H232957   5.376   6.564   3.079 -1.3764 -0.6196 -0.4085
 3848TIP3   OH232958   2.174   0.179  13.290 -0.7885 -0.8441  0.0725
 3848TIP3    H132959   2.248   0.120  13.304 -1.7152 -1.9574  0.3249
 3848TIP3    H232960   2.188   0.214  13.201 -0.5210 -1.8553 -0.2935
 3849TIP3   OH232961   2.866   6.491  11.741 -0.4049  0.2015  0.1045
 3849TIP3    H132962   2.951   6.534  11.755  0.1382 -0.2158 -1.5949
 3849TIP3    H232963   2.840   6.459  11.827  0.8352  0.9392  0.7801
 3850TIP3   OH232964   6.840   6.857   4.896 -0.3940 -0.3216 -0.8601
 3850TIP3    H132965   6.789   6.779   4.874 -0.7267 -0.2087 -0.4924
 3850TIP3    H232966   6.874   6.840   4.983 -2.6796  1.0324  0.3976
 3851TIP3   OH232967   5.785   0.990  10.777  0.2811  0.3349  0.3737
 3851TIP3    H132968   5.820   0.911  10.817 -1.7984 -0.1012  1.4378
 3851TIP3    H232969   5.841   1.005  10.701  0.5907 -2.2949  0.0032
 3852TIP3   OH232970   1.040   3.156   2.847  0.5141 -0.1327  0.1898
 3852TIP3    H132971   1.061   3.118   2.932  0.4250 -1.8336 -0.5050
 3852TIP3    H232972   1.035   3.250   2.863  0.0530 -0.4464  2.1571
 3853TIP3   OH232973   5.338   6.426   5.168 -0.0018  0.0224 -0.2856
 3853TIP3    H132974   5.308   6.386   5.086  1.8320 -0.9790 -0.5068
 3853TIP3    H232975   5.291   6.509   5.172 -2.1628 -1.0778 -0.9835
 3854TIP3   OH232976   0.445   6.275   0.446 -0.1426 -0.1321  0.7120
 3854TIP3    H132977   0.458   6.199   0.390 -1.8247 -0.8699  1.2674
 3854TIP3    H232978   0.521   6.275   0.505 -0.1057 -1.3585  0.6862
 3855TIP3   OH232979   2.642   4.901   1.272  0.5426 -0.6363  0.6182
 3855TIP3    H132980   2.608   4.812   1.268  0.0471 -0.4294 -0.0929
 3855TIP3    H232981   2.666   4.921   1.181 -0.3798  0.3297  0.5683
 3856TIP3   OH232982   0.633   4.715  12.656  0.1795 -0.1488 -0.0737
 3856TIP3    H132983   0.688   4.646  12.692 -0.7455 -0.0031  1.7264
 3856TIP3    H232984   0.643   4.788  12.717 -1.2232  0.2165 -0.2445
 3857TIP3   OH232985   4.027   5.958  12.570 -0.3997 -0.7540  0.9095
 3857TIP3    H132986   4.034   6.048  12.600  1.8584 -0.7830  0.6835
 3857TIP3    H232987   4.027   5.964  12.474 -0.8221 -0.9696  0.8939
 3858TIP3   OH232988   6.310   6.590  11.406  0.1996  0.1021  0.3841
 3858TIP3    H132989   6.307   6.685  11.402 -1.4299  0.0712  0.3902
 3858TIP3    H232990   6.269   6.561  11.324  2.0373 -0.6274 -0.3499
 3859TIP3   OH232991   3.556   2.322   1.263 -0.2040  0.5574 -0.2414
 3859TIP3    H132992   3.603   2.400   1.234 -0.8844  0.4145 -1.9116
 3859TIP3    H232993   3.595   2.250   1.212  2.1434 -0.7330  3.0582
 3860TIP3   OH232994   1.654   0.480  13.494  0.0728 -0.6797  0.6278
 3860TIP3    H132995   1.648   0.412  13.561 -0.1956 -0.9294  0.3539
 3860TIP3    H232996   1.650   0.562  13.542 -0.3613 -0.8572  0.8986
 3861TIP3   OH232997   4.158   5.953   1.039 -0.0081  0.6568 -0.0647
 3861TIP3    H132998   4.159   5.861   1.065 -0.2319  0.3550 -1.0714
 3861TIP3    H232999   4.149   6.001   1.121  0.6458 -0.1897  0.5245
 3862TIP3   OH233000   5.485   2.190   1.316 -0.1363 -0.4352 -0.1852
 3862TIP3    H133001   5.484   2.284   1.329 -0.7217 -0.3927 -0.5074
 3862TIP3    H233002   5.425   2.175   1.243  0.3132 -1.0112 -0.4454
 3863TIP3   OH233003   3.779   4.774   5.275 -0.0872 -0.7519 -0.2415
 3863TIP3    H133004   3.826   4.691   5.263  0.0088 -0.6915 -0.2836
 3863TIP3    H233005   3.792   4.821   5.192  0.0767 -0.5851 -0.1209
 3864TIP3   OH233006   5.254   5.814   1.994 -0.4908 -0.5522 -0.0898
 3864TIP3    H133007   5.294   5.844   1.913 -2.0402  1.7629 -0.1145
 3864TIP3    H233008   5.315   5.842   2.063  0.4450 -1.8227 -0.3683
 3865TIP3   OH233009   5.037   0.661  15.393 -0.5045  0.1618 -0.2466
 3865TIP3    H133010   5.106   0.725  15.377  0.9657 -0.9358  1.3134
 3865TIP3    H233011   4.976   0.706  15.452  1.4469 -0.3087  2.3414
 3866TIP3   OH233012   3.826   4.434   1.959  0.4985 -0.1473  0.1461
 3866TIP3    H133013   3.917   4.444   1.985  0.4894  0.4039 -0.0014
 3866TIP3    H233014   3.796   4.524   1.944  0.5050 -0.4228 -1.7446
 3867TIP3   OH233015   4.078   0.872  10.093 -0.8778 -0.4069  0.3124
 3867TIP3    H133016   4.030   0.791  10.077 -1.7247  0.0779  0.3669
 3867TIP3    H233017   4.079   0.917  10.008 -0.5132 -0.4123  0.3095
 3868TIP3   OH233018   1.360   2.949   5.059 -0.3136  0.2261 -0.0939
 3868TIP3    H133019   1.426   3.007   5.021 -0.3256 -0.0895 -0.6101
 3868TIP3    H233020   1.325   2.901   4.984 -0.2017 -0.5488  0.3428
 3869TIP3   OH233021   2.894   6.663  15.065  0.5693  0.0133  0.7802
 3869TIP3    H133022   2.980   6.643  15.029 -0.2033 -0.1670 -1.0473
 3869TIP3    H233023   2.910   6.737  15.125  1.5807  2.1570 -1.9150
 3870TIP3   OH233024   3.168   4.815   1.950  0.0613 -0.2729  0.6921
 3870TIP3    H133025   3.217   4.873   2.008 -1.2420 -0.8455  2.4539
 3870TIP3    H233026   3.080   4.813   1.987 -0.6684 -1.1737 -0.9699
 3871TIP3   OH233027   6.895   6.603   5.420 -0.3157 -0.6756  0.0531
 3871TIP3    H133028   6.872   6.511   5.418 -1.5243 -0.3756 -0.5952
 3871TIP3    H233029   6.824   6.647   5.374  0.4283  0.5432  0.0214
 3872TIP3   OH233030   6.162   5.160   2.303 -0.4186  0.2073 -0.8223
 3872TIP3    H133031   6.116   5.088   2.346 -0.9712  1.5649  0.9939
 3872TIP3    H233032   6.249   5.126   2.285 -0.7813 -1.0235 -0.3548
 3873TIP3   OH233033   0.704   0.055  11.669  0.0563  0.2800 -0.1552
 3873TIP3    H133034   0.722   0.035  11.577 -3.0407 -2.0226 -0.4246
 3873TIP3    H233035   0.653   0.136  11.666  1.0788  0.9370 -0.2998
 3874TIP3   OH233036   2.847   6.040   3.737  0.0416  0.0761  0.0115
 3874TIP3    H133037   2.941   6.047   3.718  0.6102  0.4642  2.6301
 3874TIP3    H233038   2.818   5.963   3.688  1.3347  0.8449 -2.1065
 3875TIP3   OH233039   4.520   5.277   0.324 -0.5843 -0.0878 -0.2821
 3875TIP3    H133040   4.460   5.349   0.303 -2.6921 -1.5828  0.3219
 3875TIP3    H233041   4.563   5.257   0.241 -1.2541  0.7033 -0.8410
 3876TIP3   OH233042   2.243   1.044   0.566 -0.2115  0.0434 -0.5732
 3876TIP3    H133043   2.306   1.012   0.501 -0.8755 -0.3515 -1.0365
 3876TIP3    H233044   2.169   0.985   0.558 -0.2510 -0.0944  0.6595
 3877TIP3   OH233045   3.703   0.460  13.618  0.0337 -0.7330 -0.5003
 3877TIP3    H133046   3.789   0.440  13.580  0.9967  0.5035  0.8999
 3877TIP3    H233047   3.679   0.545  13.580  0.4492 -0.0642  0.6711
 3878TIP3   OH233048   5.240   1.973  11.009 -0.1091  0.2718 -0.2262
 3878TIP3    H133049   5.275   1.932  10.929 -0.1246  2.1836 -1.2598
 3878TIP3    H233050   5.167   1.916  11.034  0.3898 -0.8089 -1.0942
 3879TIP3   OH233051   0.256   4.266  14.390 -0.2156 -0.5498  0.8162
 3879TIP3    H133052   0.236   4.313  14.471 -3.7570  0.2823 -0.3689
 3879TIP3    H233053   0.287   4.334  14.330  0.1057 -0.7374  0.7700
 3880TIP3   OH233054   5.435   1.001   1.218  0.0440  0.6460  0.9281
 3880TIP3    H133055   5.431   0.940   1.292  0.6774 -0.9963 -0.3300
 3880TIP3    H233056   5.486   0.954   1.152  1.9901  3.2068  0.4811
 3881TIP3   OH233057   4.766   4.167  16.602 -0.1774 -0.6798  0.2434
 3881TIP3    H133058   4.775   4.254  16.563  0.4294 -0.2549  1.2960
 3881TIP3    H233059   4.850   4.152  16.647  0.7092 -2.8040 -1.8686
 3882TIP3   OH233060   3.123   1.721  14.329 -0.1272 -0.2522 -0.4250
 3882TIP3    H133061   3.152   1.663  14.259  2.2036 -0.2983  0.4950
 3882TIP3    H233062   3.070   1.787  14.284  2.0453  0.2737 -2.4347
 3883TIP3   OH233063   0.930   5.083  10.969  0.0945  0.3625 -0.2444
 3883TIP3    H133064   0.898   5.140  10.900  0.9729  0.4352 -0.5988
 3883TIP3    H233065   0.995   5.136  11.016 -0.1113  0.1345  0.3029
 3884TIP3   OH233066   2.666   1.141   2.011  0.5100  0.0219 -0.3622
 3884TIP3    H133067   2.615   1.077   2.060  1.3424 -1.2325 -1.0865
 3884TIP3    H233068   2.606   1.173   1.944  0.1438 -0.1188 -0.1052
 3885TIP3   OH233069   3.205   2.956  14.889 -0.6486  0.1467  0.0444
 3885TIP3    H133070   3.241   3.036  14.926 -3.1070  0.7604  1.3394
 3885TIP3    H233071   3.239   2.886  14.946  1.4099  0.2070 -1.0212
 3886TIP3   OH233072   2.655   5.509   4.916 -0.5242 -0.1862 -0.4177
 3886TIP3    H133073   2.682   5.555   4.837 -1.5846 -1.2275 -1.4221
 3886TIP3    H233074   2.559   5.512   4.914 -0.5764 -0.8773  0.4308
 3887TIP3   OH233075   5.259   2.118  15.026 -0.4442  0.1551 -0.1585
 3887TIP3    H133076   5.224   2.153  15.108  0.0803 -0.6638  0.4284
 3887TIP3    H233077   5.191   2.137  14.961 -0.1314  2.3885  0.0618
 3888TIP3   OH233078   0.730   3.511  12.972 -1.2097 -0.3564 -0.1304
 3888TIP3    H133079   0.668   3.552  12.911  0.5668  3.5280  0.3213
 3888TIP3    H233080   0.802   3.481  12.916 -1.4412 -0.6595 -0.2687
 3889TIP3   OH233081   1.572   1.489  16.080 -0.5905 -0.1171 -0.2324
 3889TIP3    H133082   1.545   1.580  16.066  0.3836  0.1119 -0.7018
 3889TIP3    H233083   1.501   1.450  16.131 -1.1521  0.8282 -0.2788
 3890TIP3   OH233084   4.979   0.508   3.902 -0.3495  0.1674 -0.5269
 3890TIP3    H133085   5.064   0.535   3.868 -1.1504  1.8252 -1.3396
 3890TIP3    H233086   4.925   0.494   3.824 -0.9945 -0.3146 -0.0114
 3891TIP3   OH233087   5.787   3.056   3.969  0.1152  0.0913  0.1259
 3891TIP3    H133088   5.693   3.038   3.969 -0.0172  0.5464  1.7908
 3891TIP3    H233089   5.793   3.152   3.974  0.6975  0.1296 -0.9654
 3892TIP3   OH233090   2.370   6.835  16.161 -0.3117  0.4717  0.0109
 3892TIP3    H133091   2.421   6.901  16.113  1.2490 -0.0733  0.8431
 3892TIP3    H233092   2.365   6.869  16.250  1.4208 -0.9567  0.7188
 3893TIP3   OH233093   3.781   5.662   3.644  0.3100  1.2514  0.1496
 3893TIP3    H133094   3.697   5.699   3.617 -0.7649 -1.1708 -0.0606
 3893TIP3    H233095   3.829   5.649   3.563 -0.5352 -0.5239 -0.1061
 3894TIP3   OH233096   3.780   0.646  16.219 -0.1921 -0.1088  0.3557
 3894TIP3    H133097   3.805   0.725  16.172  1.2209 -0.6233  0.1827
 3894TIP3    H233098   3.832   0.648  16.299  0.1716 -1.0457  0.1596
 3895TIP3   OH233099   5.279   0.740  10.635  0.4468  0.2522 -0.5394
 3895TIP3    H133100   5.261   0.823  10.678  1.0472  0.5851 -0.9203
 3895TIP3    H233101   5.374   0.739  10.623  1.2642 -2.6266  3.8834
 3896TIP3   OH233102   4.476   3.162  12.589 -0.3860 -0.4144  0.0465
 3896TIP3    H133103   4.470   3.249  12.628 -1.6551  0.2774 -1.5663
 3896TIP3    H233104   4.469   3.177  12.495  0.1569 -2.2024 -0.3218
 3897TIP3   OH233105   6.773   1.303   2.968  1.1772 -0.0435 -0.8125
 3897TIP3    H133106   6.807   1.392   2.963  1.3804 -0.1743 -4.2778
 3897TIP3    H233107   6.848   1.250   2.994  1.3689  0.6293  0.0557
 3898TIP3   OH233108   4.901   1.252  14.522  0.3763  0.3469 -0.3138
 3898TIP3    H133109   4.813   1.246  14.484  0.2493 -0.4924  0.0799
 3898TIP3    H233110   4.888   1.231  14.614  1.1898 -1.3354 -0.5452
 3899TIP3   OH233111   3.629   4.108  10.031 -0.1956  0.1207 -0.0871
 3899TIP3    H133112   3.643   4.165  10.107  3.2404 -2.3184  1.4030
 3899TIP3    H233113   3.595   4.026  10.068 -1.4378 -0.1197 -1.6581
 3900TIP3   OH233114   2.708   3.483  14.732 -0.2314 -0.1093  0.7509
 3900TIP3    H133115   2.726   3.413  14.794 -2.2825 -0.7716  0.6575
 3900TIP3    H233116   2.784   3.484  14.674  0.3550 -1.4723  1.4638
 3901TIP3   OH233117   0.697   5.364   4.830  0.6091  0.1167 -0.6362
 3901TIP3    H133118   0.766   5.416   4.870  0.7687 -0.4733 -0.1337
 3901TIP3    H233119   0.619   5.384   4.882  0.5996  0.0850 -0.6386
 3902TIP3   OH233120   5.725   1.355   1.914  0.4372  0.2210 -0.5007
 3902TIP3    H133121   5.635   1.361   1.881  0.5655 -1.0086 -1.1297
 3902TIP3    H233122   5.715   1.340   2.008 -0.1111 -2.1439 -0.8837
 3903TIP3   OH233123   5.287   6.707  16.626  0.0721 -0.1796 -0.7906
 3903TIP3    H133124   5.301   6.648  16.551 -0.1791  0.6408 -1.4959
 3903TIP3    H233125   5.307   6.794  16.592 -1.3517  0.3696 -0.2878
 3904TIP3   OH233126   0.982   5.515   4.311 -0.1055 -0.6034  0.2461
 3904TIP3    H133127   0.999   5.544   4.400  0.8036  1.1145 -0.4238
 3904TIP3    H233128   0.895   5.476   4.314 -1.6723  2.6223  1.2452
 3905TIP3   OH233129   0.188   2.764  15.877  0.0971 -0.2039 -0.1925
 3905TIP3    H133130   0.127   2.837  15.875  1.3281  0.8539 -1.3043
 3905TIP3    H233131   0.165   2.715  15.956 -0.8054  1.3501  0.5585
 3906TIP3   OH233132   4.377   0.872   1.386  0.4310  0.2522  0.2041
 3906TIP3    H133133   4.410   0.885   1.475 -0.9865  0.2983  0.7416
 3906TIP3    H233134   4.314   0.942   1.373 -0.5305 -0.6640 -0.2492
 3907TIP3   OH233135   6.372   0.444  12.390 -0.2058  0.2134  0.6455
 3907TIP3    H133136   6.284   0.450  12.352 -0.4874 -3.7789  0.2325
 3907TIP3    H233137   6.431   0.447  12.314  0.0329  1.8270  0.8447
 3908TIP3   OH233138   2.177   5.227   2.921  0.6900 -0.2792 -0.5483
 3908TIP3    H133139   2.244   5.283   2.883 -0.8480  0.1982 -2.7923
 3908TIP3    H233140   2.154   5.268   3.004  1.9946  0.4433 -0.5264
 3909TIP3   OH233141   2.660   2.796   1.658 -0.8356  0.0720 -0.1143
 3909TIP3    H133142   2.574   2.834   1.645 -0.3205  0.7579 -1.7822
 3909TIP3    H233143   2.721   2.861   1.624  0.2526 -1.0301 -0.3572
 3910TIP3   OH233144   2.566   5.595  10.744 -0.2506 -0.9752 -0.4903
 3910TIP3    H133145   2.588   5.583  10.652 -0.9283 -1.7250 -0.5592
 3910TIP3    H233146   2.490   5.540  10.759 -1.1046  0.3206  0.1393
 3911TIP3   OH233147   1.691   2.151  11.264 -0.5246 -0.1530 -0.4095
 3911TIP3    H133148   1.763   2.211  11.246 -1.7825  1.2175 -1.1342
 3911TIP3    H233149   1.732   2.077  11.310  1.2117  0.8585 -0.2332
 3912TIP3   OH233150   4.017   4.628  12.672  0.2285 -0.4747  0.0573
 3912TIP3    H133151   3.952   4.620  12.602  0.4153 -0.6480 -0.0971
 3912TIP3    H233152   4.082   4.689  12.637  1.6064 -2.3874 -0.9185
 3913TIP3   OH233153   4.120   5.054   0.680  0.4949 -0.3461  0.0445
 3913TIP3    H133154   4.194   5.102   0.642  0.4621 -1.2330 -1.2000
 3913TIP3    H233155   4.091   4.995   0.610 -2.8591  1.5462 -0.3675
 3914TIP3   OH233156   6.403   2.551   1.836  0.1646  0.2027 -0.1472
 3914TIP3    H133157   6.336   2.583   1.776  0.9176 -0.3552 -1.3343
 3914TIP3    H233158   6.471   2.619   1.835  0.3239  0.0439 -0.1839
 3915TIP3   OH233159   6.237   2.838  14.175  0.5457 -0.3962 -0.0105
 3915TIP3    H133160   6.310   2.873  14.225  1.1009 -2.9447  1.1022
 3915TIP3    H233161   6.275   2.769  14.121 -0.6256  0.0041 -1.4244
 3916TIP3   OH233162   4.763   4.103   3.460 -0.2219  0.5760  0.1275
 3916TIP3    H133163   4.833   4.135   3.518  0.0778  0.8926 -0.3999
 3916TIP3    H233164   4.809   4.074   3.381 -0.7333  1.2694 -0.4302
 3917TIP3   OH233165   5.494   0.244  13.101  0.2687 -0.0785  0.4311
 3917TIP3    H133166   5.463   0.307  13.036 -0.2489 -1.4450 -0.6848
 3917TIP3    H233167   5.554   0.295  13.157  0.0035  1.3442 -0.5308
 3918TIP3   OH233168   0.407   6.269   2.794 -0.2143  0.6224  0.2525
 3918TIP3    H133169   0.411   6.246   2.702  0.1732 -0.5700  0.5474
 3918TIP3    H233170   0.488   6.233   2.831 -1.1614 -0.4485  1.3738
 3919TIP3   OH233171   0.436   1.804  16.043 -0.4231 -0.9885 -0.7554
 3919TIP3    H133172   0.401   1.727  15.999 -0.1766 -2.0008  0.7277
 3919TIP3    H233173   0.509   1.770  16.095  0.3407  0.4277 -0.8461
 3920TIP3   OH233174   1.127   0.084  15.818  0.9620  0.3412  0.1459
 3920TIP3    H133175   1.207   0.132  15.841  0.7151  1.1720 -0.6861
 3920TIP3    H233176   1.158  -0.001  15.787  1.4154  0.0129  1.4115
 3921TIP3   OH233177   0.565   5.974  14.802  0.1402  0.1105  0.9466
 3921TIP3    H133178   0.566   5.908  14.732 -0.2556 -0.8083  1.7926
 3921TIP3    H233179   0.481   6.018  14.790 -0.8705 -1.4048  2.0454
 3922TIP3   OH233180   2.730   0.064  14.726  0.4378  0.2584  0.0489
 3922TIP3    H133181   2.660   0.052  14.662  1.6728 -0.1086 -1.2712
 3922TIP3    H233182   2.697   0.021  14.805 -1.4666  1.4450 -0.0244
 3923TIP3   OH233183   2.038   1.240  10.743  0.1041  0.2392  0.3725
 3923TIP3    H133184   1.945   1.219  10.741  0.0564  0.3537  1.0668
 3923TIP3    H233185   2.052   1.294  10.665  0.2225 -2.2192 -1.4209
 3924TIP3   OH233186   4.707   6.815   4.771  0.1045  0.5087  0.3848
 3924TIP3    H133187   4.766   6.880   4.807  0.2105  0.3276  0.5405
 3924TIP3    H233188   4.621   6.837   4.807  0.2742  0.1105  1.0394
 3925TIP3   OH233189   1.619   6.549   4.939 -0.0867 -0.5874  0.1487
 3925TIP3    H133190   1.524   6.555   4.952 -0.0544 -0.3292  0.2645
 3925TIP3    H233191   1.628   6.509   4.853 -0.3323  2.2434 -1.3218
 3926TIP3   OH233192   5.149   1.932   5.302 -0.2999 -0.1603 -0.2360
 3926TIP3    H133193   5.124   2.023   5.288 -0.2877 -0.0540  0.3969
 3926TIP3    H233194   5.081   1.880   5.258 -1.3568  0.1275  1.0125
 3927TIP3   OH233195   3.100   4.892   3.772 -0.1246 -0.7990 -0.3967
 3927TIP3    H133196   3.194   4.907   3.773 -0.3639  1.0939 -1.5321
 3927TIP3    H233197   3.070   4.935   3.692 -1.9755 -1.3330 -0.0407
 3928TIP3   OH233198   6.165   4.217   0.544 -0.5076  0.3213 -0.8135
 3928TIP3    H133199   6.077   4.237   0.513 -0.8724 -2.4210 -1.7734
 3928TIP3    H233200   6.180   4.126   0.519  2.4813  0.5823 -0.3749
 3929TIP3   OH233201   0.883   4.019  16.100 -0.4836  0.0583  0.6722
 3929TIP3    H133202   0.927   4.001  16.183 -1.5596 -1.3663  0.9614
 3929TIP3    H233203   0.794   4.043  16.124 -0.0552  2.5690  0.0636
 3930TIP3   OH233204   3.881   1.227   2.955 -0.0898 -0.3903 -1.2053
 3930TIP3    H133205   3.796   1.182   2.953 -0.9654  0.6269  3.2541
 3930TIP3    H233206   3.940   1.166   2.998  0.6077  0.1351 -1.3922
 3931TIP3   OH233207   0.083   2.403  11.971  0.1435  0.0312  0.2496
 3931TIP3    H133208   0.004   2.350  11.960 -0.2072  0.4928  0.5151
 3931TIP3    H233209   0.100   2.403  12.065 -0.6559  1.5061  0.4299
 3932TIP3   OH233210   0.261   0.389   0.441 -0.2014 -0.2659  0.1498
 3932TIP3    H133211   0.285   0.470   0.485 -0.9449  0.6686 -1.0990
 3932TIP3    H233212   0.339   0.334   0.448  0.9304  1.1866 -0.4152
 3933TIP3   OH233213   1.138   0.807   3.139  0.4675 -0.0019  0.3322
 3933TIP3    H133214   1.112   0.797   3.047  0.3712  1.1438  0.2140
 3933TIP3    H233215   1.142   0.718   3.173 -1.9563 -0.3469 -0.1021
 3934TIP3   OH233216   3.675   3.852   4.014  0.2187  0.2702  0.1638
 3934TIP3    H133217   3.589   3.849   3.972 -0.5221 -1.1907  1.6699
 3934TIP3    H233218   3.657   3.885   4.102  1.0928 -0.6167  0.6951
 3935TIP3   OH233219   0.924   1.225  15.170 -0.3126  0.3427  0.2905
 3935TIP3    H133220   0.840   1.213  15.127 -0.6527  2.6709  0.1377
 3935TIP3    H233221   0.940   1.143  15.216 -0.8155 -1.6115 -2.7018
 3936TIP3   OH233222   0.902   3.102  12.745 -0.3508  0.1449  0.0977
 3936TIP3    H133223   0.877   3.147  12.664 -0.7200  0.9716  0.6669
 3936TIP3    H233224   0.874   3.011  12.731  1.7162 -0.3074 -1.6562
 3937TIP3   OH233225   5.918   5.721   0.962 -0.6623 -0.5000 -0.0147
 3937TIP3    H133226   5.826   5.731   0.939 -0.9896  1.1941  1.7214
 3937TIP3    H233227   5.929   5.628   0.978 -1.4803 -1.0776 -2.3337
 3938TIP3   OH233228   1.541   0.473  15.474 -0.2002  0.1203 -0.1969
 3938TIP3    H133229   1.510   0.549  15.424 -3.6519 -0.4848  0.7935
 3938TIP3    H233230   1.506   0.397  15.427  2.3490 -0.8870 -0.6120
 3939TIP3   OH233231   2.163   6.005   5.277  0.2587  0.3624  0.0683
 3939TIP3    H133232   2.098   6.054   5.328 -0.9222 -2.2592  1.2156
 3939TIP3    H233233   2.113   5.936   5.234  1.9938 -0.3969 -0.7952
 3940TIP3   OH233234   2.705   0.243   3.881  0.3907 -0.3706  0.6611
 3940TIP3    H133235   2.774   0.213   3.940  0.8036 -1.3808 -0.2927
 3940TIP3    H233236   2.645   0.169   3.876 -0.5727  0.3669  1.1853
 3941TIP3   OH233237   3.672   3.605  12.579  0.1789  0.4660 -0.0128
 3941TIP3    H133238   3.645   3.692  12.607 -0.4548 -0.0899  1.1522
 3941TIP3    H233239   3.701   3.562  12.659  0.3879 -0.4353 -0.5627
 3942TIP3   OH233240   3.834   2.248  15.983  0.2455 -0.2864  0.0539
 3942TIP3    H133241   3.884   2.222  15.906 -0.5851 -1.3000 -0.1689
 3942TIP3    H233242   3.889   2.226  16.058 -0.7792 -3.7624 -0.0586
 3943TIP3   OH233243   4.253   2.126   4.902 -0.5991  0.0290  0.1389
 3943TIP3    H133244   4.342   2.143   4.872 -0.6506 -0.4817 -0.3216
 3943TIP3    H233245   4.254   2.150   4.995  0.2749 -0.8091  0.3652
 3944TIP3   OH233246   0.055   1.605   0.446  0.5900 -0.2842  0.1525
 3944TIP3    H133247   0.007   1.539   0.497 -0.4832  0.6874  0.4641
 3944TIP3    H233248   0.092   1.663   0.512 -1.0027  1.1213 -0.1191
 3945TIP3   OH233249   5.110   1.333  15.170 -0.8573  0.0570 -0.7482
 3945TIP3    H133250   5.073   1.249  15.199 -1.9079  0.4010 -1.0472
 3945TIP3    H233251   5.139   1.375  15.251  1.6721 -1.4656 -0.7632
 3946TIP3   OH233252   0.024   0.465   4.064 -0.0361  0.1886  0.5833
 3946TIP3    H133253   0.058   0.500   3.982 -1.6591 -1.0709 -0.7189
 3946TIP3    H233254  -0.055   0.517   4.082 -0.3991 -0.3727  0.6393
 3947TIP3   OH233255   5.981   3.978  11.585 -0.7894  0.2920  0.1424
 3947TIP3    H133256   5.917   3.926  11.537  0.6718 -1.5720  0.1235
 3947TIP3    H233257   5.957   3.966  11.677  0.4995 -1.8298  0.2476
 3948TIP3   OH233258   2.037   1.544   1.734  0.3674 -0.0304  0.4389
 3948TIP3    H133259   2.114   1.492   1.711 -0.3071 -1.1469  0.6228
 3948TIP3    H233260   1.982   1.540   1.656 -0.3638 -0.8929  0.9726
 3949TIP3   OH233261   5.417   0.631  16.444  0.2795 -0.1973  0.2599
 3949TIP3    H133262   5.389   0.539  16.447  0.3861 -0.2077  1.1954
 3949TIP3    H233263   5.344   0.679  16.481 -0.5064  0.3082 -1.8060
 3950TIP3   OH233264   6.473   3.864   1.727  0.3462  0.4133  0.2809
 3950TIP3    H133265   6.413   3.795   1.699 -3.1246  3.0983  0.3892
 3950TIP3    H233266   6.516   3.892   1.647 -1.1215  0.6016 -0.4894
 3951TIP3   OH233267   4.128   6.849   0.805 -0.2005 -0.0802  0.0632
 3951TIP3    H133268   4.197   6.784   0.793 -1.5675 -1.4593 -0.8084
 3951TIP3    H233269   4.143   6.884   0.893  2.1802  0.4472 -0.4910
 3952TIP3   OH233270   4.576   5.164   0.880  0.9895 -0.9909 -0.0876
 3952TIP3    H133271   4.633   5.113   0.938  1.4851 -1.0713 -0.6409
 3952TIP3    H233272   4.636   5.212   0.823  0.5445  0.4639  0.6079
 3953TIP3   OH233273   6.842   0.012  13.474  0.5949 -0.2494  0.0580
 3953TIP3    H133274   6.903   0.058  13.417 -0.8305 -0.1315 -1.4662
 3953TIP3    H233275   6.887   0.006  13.558  2.6247 -0.0637 -0.9440
 3954TIP3   OH233276   6.199   2.608  13.041  0.2730 -0.1097  0.3160
 3954TIP3    H133277   6.162   2.554  13.111 -1.1204 -1.2085 -1.1902
 3954TIP3    H233278   6.246   2.546  12.985 -0.9978  0.2328 -1.2124
 3955TIP3   OH233279   0.320   2.387  12.393  0.0081  0.1324 -0.0789
 3955TIP3    H133280   0.317   2.357  12.484 -0.1264 -0.0937 -0.1565
 3955TIP3    H233281   0.410   2.371  12.365 -0.3207 -1.1614 -0.4396
 3956TIP3   OH233282   4.069   4.399  16.600  0.4680 -0.0367 -0.7805
 3956TIP3    H133283   4.071   4.328  16.536 -1.8404  0.2190 -1.2036
 3956TIP3    H233284   4.038   4.358  16.681  1.3300  0.0626 -0.3904
 3957TIP3   OH233285   1.448   6.481   2.795 -0.6090  0.1127  0.5140
 3957TIP3    H133286   1.510   6.537   2.748  1.4309 -0.8839  1.8869
 3957TIP3    H233287   1.479   6.392   2.779 -1.5914 -0.4116  1.3786
 3958TIP3   OH233288   6.477   0.136  16.648 -0.3865  0.5119  0.6671
 3958TIP3    H133289   6.383   0.141  16.663 -0.5979  1.0710 -0.6601
 3958TIP3    H233290   6.486   0.087  16.566  0.4167  1.1466  0.3533
 3959TIP3   OH233291   3.349   5.999  11.695  0.4135  0.0580  0.8476
 3959TIP3    H133292   3.269   6.050  11.685  0.2612 -0.1173  1.1864
 3959TIP3    H233293   3.413   6.044  11.639 -0.3163 -0.6502 -0.6097
 3960TIP3   OH233294   6.525   1.824  14.918 -0.1011 -0.4992 -0.4532
 3960TIP3    H133295   6.589   1.764  14.879  2.6361  1.0815  1.2799
 3960TIP3    H233296   6.538   1.906  14.871 -1.3694 -0.3200 -0.5091
 3961TIP3   OH233297   5.987   6.215   5.250 -0.4131  0.2750  0.1822
 3961TIP3    H133298   6.029   6.301   5.246 -0.3074  0.2016 -0.2875
 3961TIP3    H233299   5.956   6.198   5.161  0.0297 -0.4011  0.1440
 3962TIP3   OH233300   5.877   2.775   4.835  0.2591  0.1142 -0.4096
 3962TIP3    H133301   5.925   2.704   4.793 -0.1050 -0.6420  0.4166
 3962TIP3    H233302   5.928   2.796   4.913  1.6777  2.4470 -1.8414
 3963TIP3   OH233303   3.196   4.727  11.633  0.2684  0.4406 -0.2242
 3963TIP3    H133304   3.116   4.769  11.664 -0.1820 -0.3046 -0.3498
 3963TIP3    H233305   3.217   4.662  11.700  0.7517  0.5961 -0.2157
 3964TIP3   OH233306   3.143   2.148   3.978 -0.4665  0.3476  0.3445
 3964TIP3    H133307   3.205   2.210   4.017 -0.7521 -1.2823  3.7483
 3964TIP3    H233308   3.065   2.200   3.963  0.5210  1.6343 -0.5855
 3965TIP3   OH233309   3.772   0.559  10.845  0.3526 -0.1322  0.1190
 3965TIP3    H133310   3.699   0.501  10.826  1.8424 -1.9691 -0.3289
 3965TIP3    H233311   3.766   0.575  10.939 -1.8714  1.6296 -0.2433
 3966TIP3   OH233312   3.155   5.087  12.947 -0.1039 -0.1369 -0.1872
 3966TIP3    H133313   3.249   5.071  12.939  0.1070 -0.0592  1.7068
 3966TIP3    H233314   3.146   5.182  12.943 -0.3110 -0.1997 -1.9542
 3967TIP3   OH233315   0.898   4.987   2.339  0.3831 -0.1975 -0.2242
 3967TIP3    H133316   0.980   4.938   2.341  0.8961  0.6652  1.2699
 3967TIP3    H233317   0.868   4.987   2.430 -1.5196 -0.8503 -0.7973
 3968TIP3   OH233318   5.401   6.831  16.282  0.1091  0.0082  0.2126
 3968TIP3    H133319   5.412   6.900  16.216 -0.9106 -0.7993 -0.8233
 3968TIP3    H233320   5.489   6.820  16.319  0.2595  2.0007  0.5652
 3969TIP3   OH233321   5.608   2.662  15.863 -0.3719 -0.4766  0.1793
 3969TIP3    H133322   5.634   2.711  15.785  0.7917 -0.7302  0.3937
 3969TIP3    H233323   5.516   2.642  15.849 -0.1641 -0.5660 -1.1537
 3970TIP3   OH233324   0.954   0.615  12.347  0.7287  0.1711  0.6817
 3970TIP3    H133325   0.947   0.703  12.309  1.8918 -1.3784 -3.8056
 3970TIP3    H233326   1.039   0.615  12.392  1.2871  1.0375 -0.3239
 3971TIP3   OH233327   5.471   5.916  12.146 -1.0360 -0.0482 -0.2136
 3971TIP3    H133328   5.431   5.970  12.213 -0.9641  0.9830 -0.9760
 3971TIP3    H233329   5.559   5.953  12.135 -0.7407 -0.7470 -0.2784
 3972TIP3   OH233330   5.212   1.801  14.066 -0.5917 -0.1628 -0.4192
 3972TIP3    H133331   5.306   1.795  14.082 -0.5763  1.1250  0.0178
 3972TIP3    H233332   5.189   1.715  14.029  1.2902  0.4346 -3.3225
 3973TIP3   OH233333   3.065   4.658   3.950 -0.3253 -0.6402 -0.2612
 3973TIP3    H133334   3.115   4.640   3.870 -1.7228 -0.6930 -1.1696
 3973TIP3    H233335   3.035   4.748   3.939  0.2638 -0.3315  0.6588
 3974TIP3   OH233336   2.812   6.377   4.102  0.3636  0.1870  0.2234
 3974TIP3    H133337   2.802   6.318   4.177  0.9126  0.8186  0.8037
 3974TIP3    H233338   2.851   6.322   4.034  0.6203 -0.1877  0.6690
 3975TIP3   OH233339   4.177   3.347   1.675 -0.2539  0.3994 -0.1722
 3975TIP3    H133340   4.248   3.380   1.619  0.8258  0.5052  1.2121
 3975TIP3    H233341   4.105   3.408   1.660 -1.2869 -1.4339 -4.0074
 3976TIP3   OH233342   4.421   6.880  11.251  0.5171  0.1448 -0.5567
 3976TIP3    H133343   4.509   6.906  11.277  0.4644 -0.2236  0.0269
 3976TIP3    H233344   4.382   6.845  11.332 -0.2916  0.6520 -0.7146
 3977TIP3   OH233345   3.857   0.976   5.479  0.0998  0.1579  0.2976
 3977TIP3    H133346   3.931   0.973   5.540  0.4053  2.6331  0.1317
 3977TIP3    H233347   3.780   0.963   5.534  0.5117 -0.0515  0.8379
 3978TIP3   OH233348   2.603   5.405  11.686  0.0282 -0.6124 -0.6141
 3978TIP3    H133349   2.555   5.360  11.756  0.6205 -1.2251 -0.5909
 3978TIP3    H233350   2.545   5.476  11.659 -0.1543 -0.2641  0.6093
 3979TIP3   OH233351   5.755   1.257  13.333 -0.2018  0.0763  0.1129
 3979TIP3    H133352   5.802   1.332  13.368 -0.5460  0.6290 -0.5920
 3979TIP3    H233353   5.820   1.211  13.279  0.0825 -0.2910  0.7590
 3980TIP3   OH233354   0.302   0.558  11.490  0.2990 -0.1489  0.2092
 3980TIP3    H133355   0.300   0.485  11.428  0.2794  0.5576 -0.6346
 3980TIP3    H233356   0.355   0.625  11.448  2.0677 -0.4306  1.8570
 3981TIP3   OH233357   4.512   3.261   6.191 -0.2413 -0.1009 -0.3803
 3981TIP3    H133358   4.578   3.329   6.176  0.1330 -0.4957 -0.5417
 3981TIP3    H233359   4.543   3.186   6.139 -0.8382 -0.2736 -0.4930
 3982TIP3   OH233360   5.726   6.548  14.073  0.0786 -0.2602  0.1169
 3982TIP3    H133361   5.722   6.501  14.157 -0.8379  0.1146  0.2900
 3982TIP3    H233362   5.809   6.595  14.076 -0.6674  1.0306  1.5121
 3983TIP3   OH233363   3.941   0.799   5.692 -0.2745 -0.1300 -0.0023
 3983TIP3    H133364   4.005   0.869   5.679 -1.4294  0.9241 -0.2019
 3983TIP3    H233365   3.942   0.782   5.786 -2.0032  2.2182  0.5298
 3984TIP3   OH233366   1.189   5.024   6.333  0.2949 -0.6423  0.1800
 3984TIP3    H133367   1.187   4.933   6.361 -0.8203 -0.9752 -0.8924
 3984TIP3    H233368   1.122   5.030   6.265  0.3135  0.9952  0.2594
 3985TIP3   OH233369   5.744   3.124  10.518  0.4024  0.3819  0.2957
 3985TIP3    H133370   5.783   3.129  10.605  0.6508 -0.6477  0.2533
 3985TIP3    H233371   5.721   3.032  10.507  0.5006  0.4741 -0.7808
 3986TIP3   OH233372   5.561   4.117  13.887  0.3464  0.2679  0.4163
 3986TIP3    H133373   5.575   4.025  13.908  0.3703 -0.0961 -1.0630
 3986TIP3    H233374   5.638   4.142  13.836 -1.2926  0.0151 -2.4080
 3987TIP3   OH233375   5.670   3.317   2.674  0.1750  0.1482  0.1099
 3987TIP3    H133376   5.704   3.233   2.707  1.7082  0.7896  0.2446
 3987TIP3    H233377   5.597   3.337   2.733 -0.2106 -1.0734  0.0828
 3988TIP3   OH233378   5.319   5.817   1.211 -0.0273 -0.0088 -0.5725
 3988TIP3    H133379   5.240   5.860   1.181 -0.3149 -0.3522 -0.3180
 3988TIP3    H233380   5.383   5.887   1.221  0.3225  0.0562 -2.6988
 3989TIP3   OH233381   1.890   6.065   0.094 -0.0238 -0.7205  0.3554
 3989TIP3    H133382   1.942   6.115   0.157  0.5365 -2.9187  1.7228
 3989TIP3    H233383   1.955   6.017   0.043 -0.6314 -1.6762  0.4735
 3990TIP3   OH233384   2.750   1.438  13.942  0.3479 -0.7558  0.0548
 3990TIP3    H133385   2.794   1.505  13.890 -0.8783 -1.5639 -2.1676
 3990TIP3    H233386   2.674   1.482  13.980  1.0737 -0.2392  0.9458
 3991TIP3   OH233387   6.669   0.160   3.779 -0.3499  0.5520  0.5343
 3991TIP3    H133388   6.759   0.168   3.745 -0.8009  3.0009 -0.3512
 3991TIP3    H233389   6.679   0.120   3.865  1.3697 -1.0901 -0.3630
 3992TIP3   OH233390   1.182   3.185  12.115 -0.0372 -0.6756 -0.3355
 3992TIP3    H133391   1.269   3.148  12.124  0.6066  0.5807 -1.1555
 3992TIP3    H233392   1.147   3.187  12.204  0.3275 -2.1636 -0.1300
 3993TIP3   OH233393   0.887   0.480   0.396  0.4562  0.4123  0.0628
 3993TIP3    H133394   0.909   0.484   0.489 -0.2317  4.6554  0.2316
 3993TIP3    H233395   0.972   0.471   0.352  0.8944 -0.4814  1.0473
 3994TIP3   OH233396   0.913   2.347  13.368  0.3668  0.4729  0.3440
 3994TIP3    H133397   0.952   2.372  13.452 -0.4427 -0.4339  1.0279
 3994TIP3    H233398   0.958   2.266  13.344 -0.0656  0.2069  0.4087
 3995TIP3   OH233399   5.410   0.358   0.115 -0.5209  0.0722 -0.2178
 3995TIP3    H133400   5.386   0.420   0.184 -0.4129 -0.4305  0.2808
 3995TIP3    H233401   5.399   0.272   0.155 -0.6854 -0.2362 -0.9082
 3996TIP3   OH233402   4.422   0.147  15.081 -0.0399 -0.7216  0.2796
 3996TIP3    H133403   4.375   0.146  14.997 -1.7252  3.8423  0.8692
 3996TIP3    H233404   4.510   0.175  15.059 -0.9365  2.2196 -0.0368
 3997TIP3   OH233405   0.509   4.614  12.406 -0.2011 -0.4667  0.9100
 3997TIP3    H133406   0.545   4.633  12.493  0.1199  1.0830  0.4705
 3997TIP3    H233407   0.457   4.534  12.419  0.7918 -0.9356  2.2540
 3998TIP3   OH233408   4.850   5.312   4.048 -0.1509 -0.2647 -0.5014
 3998TIP3    H133409   4.853   5.216   4.051 -0.4787 -0.2515  0.7207
 3998TIP3    H233410   4.761   5.332   4.020 -0.8674 -0.3318  1.5359
 3999TIP3   OH233411   4.724   5.843  12.140 -0.5515  0.0984  0.7017
 3999TIP3    H133412   4.703   5.882  12.224 -1.0473  0.8935  0.2187
 3999TIP3    H233413   4.655   5.778  12.125 -0.2513 -0.3127  1.0724
 4000TIP3   OH233414   4.303   5.536  11.739  0.3267 -0.2861  0.7267
 4000TIP3    H133415   4.358   5.541  11.660  2.2022 -3.1023  1.7042
 4000TIP3    H233416   4.330   5.611  11.791 -0.3977  1.1896 -0.9171
 4001TIP3   OH233417   2.555   5.107  11.076 -0.2388 -0.3442 -0.3675
 4001TIP3    H133418   2.466   5.094  11.107 -1.2305  1.3238 -2.2946
 4001TIP3    H233419   2.568   5.041  11.009  0.0650 -0.7133  0.0494
 4002TIP3   OH233420   5.855   1.790   0.220 -0.3495 -0.1632 -0.2059
 4002TIP3    H133421   5.935   1.811   0.172 -0.3179 -0.0370 -0.0993
 4002TIP3    H233422   5.787   1.840   0.176 -0.2362  0.3476  0.1869
 4003TIP3   OH233423   4.997   0.258   3.639  0.2536  0.2425  0.6267
 4003TIP3    H133424   5.087   0.289   3.643 -0.1719  1.4248  1.6462
 4003TIP3    H233425   4.945   0.337   3.623 -0.6592 -0.2825  0.9202
 4004TIP3   OH233426   6.617   1.242   0.240  0.6228  0.6067  0.3924
 4004TIP3    H133427   6.607   1.325   0.287 -0.5155 -0.7809  2.7822
 4004TIP3    H233428   6.584   1.176   0.301  1.8481 -1.6720 -1.2679
 4005TIP3   OH233429   2.236   6.322  14.420  0.4032  0.2363  0.0999
 4005TIP3    H133430   2.271   6.411  14.421 -0.3155  0.6236 -2.3276
 4005TIP3    H233431   2.156   6.327  14.472  1.0305  0.6795  1.0462
 4006TIP3   OH233432   6.798   3.963   4.001 -0.4188 -0.0411 -0.1532
 4006TIP3    H133433   6.799   3.896   3.932  1.1253  0.1395 -0.3344
 4006TIP3    H233434   6.856   3.928   4.069  0.6443  1.2234 -0.3798
 4007TIP3   OH233435   5.476   4.983  14.374 -0.4161  0.3507  0.2092
 4007TIP3    H133436   5.453   5.058  14.428 -1.9639 -0.0755  0.1829
 4007TIP3    H233437   5.517   5.021  14.296 -0.3050  1.1026  0.6248
 4008TIP3   OH233438   3.870   3.450   0.364 -0.1912 -0.1625 -0.1705
 4008TIP3    H133439   3.870   3.364   0.405  1.0191  0.4311  1.1320
 4008TIP3    H233440   3.938   3.445   0.296 -2.0365 -1.0706 -2.0520
 4009TIP3   OH233441   3.203   2.423  10.442  0.0993  0.5217 -0.3314
 4009TIP3    H133442   3.219   2.333  10.413 -0.9600  0.5764 -1.1414
 4009TIP3    H233443   3.287   2.468  10.430  0.7437 -0.4483  0.4544
 4010TIP3   OH233444   1.686   2.238   0.960  0.3153  0.2530  0.4010
 4010TIP3    H133445   1.701   2.304   0.892 -1.2862 -0.5244 -0.7571
 4010TIP3    H233446   1.723   2.157   0.925  0.0361 -0.0216  0.7310
 4011TIP3   OH233447   3.179   4.369   5.355 -0.6529 -0.1944 -0.6172
 4011TIP3    H133448   3.219   4.455   5.367 -1.2220  0.1700 -1.2692
 4011TIP3    H233449   3.231   4.311   5.410 -1.7772  0.9938  1.9156
 4012TIP3   OH233450   5.411   1.943   3.088 -0.0076  0.1437  0.0916
 4012TIP3    H133451   5.320   1.961   3.113 -0.0113  1.1857 -0.6254
 4012TIP3    H233452   5.405   1.909   2.999  0.2310 -0.8862  0.4520
 4013TIP3   OH233453   4.317   3.464   0.703 -0.0586 -0.9076 -0.2280
 4013TIP3    H133454   4.269   3.535   0.660 -0.9987 -1.7129 -0.5268
 4013TIP3    H233455   4.257   3.433   0.771  0.1377 -1.7655 -0.4449
 4014TIP3   OH233456   1.383   6.663   3.580 -0.0400 -0.2114 -0.3743
 4014TIP3    H133457   1.348   6.609   3.510  2.3498 -1.0722 -0.9977
 4014TIP3    H233458   1.478   6.662   3.567  0.2636  2.5808  0.7397
 4015TIP3   OH233459   1.289   5.379  16.370 -0.2775  0.1511 -0.0512
 4015TIP3    H133460   1.214   5.358  16.313 -0.0075  0.3217 -0.4722
 4015TIP3    H233461   1.254   5.372  16.459 -0.6117 -0.4852 -0.2218
 4016TIP3   OH233462   3.239   0.827  13.743 -0.9067 -0.4172 -0.6718
 4016TIP3    H133463   3.250   0.732  13.741  1.6181 -0.1848 -0.6225
 4016TIP3    H233464   3.279   0.854  13.826  0.8164  0.9126 -1.8777
 4017TIP3   OH233465   0.072   6.177  14.383  0.4205  0.1561  0.4830
 4017TIP3    H133466   0.029   6.225  14.312  0.7849 -0.1013  0.0805
 4017TIP3    H233467   0.149   6.138  14.341 -0.5169 -1.8184  0.4977
 4018TIP3   OH233468   2.787   3.467  12.635  0.0081  0.1454  0.1420
 4018TIP3    H133469   2.724   3.479  12.706 -1.2526 -2.8128 -0.3439
 4018TIP3    H233470   2.794   3.554  12.595 -2.9979  0.8386  0.8753
 4019TIP3   OH233471   4.433   6.701  13.761 -0.5734 -0.7577  0.8322
 4019TIP3    H133472   4.375   6.765  13.719 -2.0101 -1.2682  1.9777
 4019TIP3    H233473   4.462   6.645  13.689  0.7814  1.1470 -0.2338
 4020TIP3   OH233474   0.177   3.159  16.566  0.3185  0.6338 -0.2682
 4020TIP3    H133475   0.243   3.226  16.551 -0.5409  1.6528  0.3177
 4020TIP3    H233476   0.137   3.184  16.649  0.0397 -0.6740  0.0070
 4021TIP3   OH233477   2.883   6.488   3.365  0.3086  0.0019 -0.0451
 4021TIP3    H133478   2.937   6.422   3.407  0.6084  0.4746  0.3231
 4021TIP3    H233479   2.945   6.555   3.336  0.4393 -1.3137 -3.2716
 4022TIP3   OH233480   0.813   6.438   0.203 -0.0070 -0.3792  0.4439
 4022TIP3    H133481   0.896   6.412   0.163 -1.2542 -1.5636 -1.5493
 4022TIP3    H233482   0.772   6.495   0.138 -0.7910  0.1440  1.3775
 4023TIP3   OH233483   4.076   6.797   3.897 -0.8152 -0.6778 -0.0097
 4023TIP3    H133484   4.007   6.844   3.943 -0.2545 -1.8734  2.1692
 4023TIP3    H233485   4.150   6.797   3.957 -0.1760 -2.6486 -0.7186
 4024TIP3   OH233486   0.887   3.759   1.877  0.5968  0.3907 -0.0772
 4024TIP3    H133487   0.793   3.772   1.889  0.3895  0.1297 -1.3190
 4024TIP3    H233488   0.902   3.668   1.900  0.6553  0.5961  0.7120
 4025TIP3   OH233489   2.241   3.492   2.701 -0.3355  0.5893  0.5432
 4025TIP3    H133490   2.260   3.585   2.697 -1.3897  0.8494  1.0353
 4025TIP3    H233491   2.317   3.449   2.661 -0.0883  1.6787 -0.1797
 4026TIP3   OH233492   1.593   3.949   0.107 -0.3338  0.1319 -0.4462
 4026TIP3    H133493   1.589   4.023   0.168  1.8401  0.5759 -0.7520
 4026TIP3    H233494   1.570   3.873   0.160 -0.3353  0.7457  0.4605
 4027TIP3   OH233495   0.127   3.633  10.721  0.0649 -0.4023 -0.8981
 4027TIP3    H133496   0.087   3.705  10.673  0.4903  0.5152  0.0884
 4027TIP3    H233497   0.188   3.675  10.781  1.0170 -1.6478 -0.9472
 4028TIP3   OH233498   1.335   5.069  11.480  0.1662 -0.2244 -0.2896
 4028TIP3    H133499   1.428   5.067  11.500 -0.0480  0.2103  0.7938
 4028TIP3    H233500   1.318   5.159  11.452  0.5061 -0.8557 -2.8508
 4029TIP3   OH233501   1.297   3.012   2.936 -0.2958  0.4879 -0.2122
 4029TIP3    H133502   1.328   2.947   2.999 -0.4070  1.1820  0.5719
 4029TIP3    H233503   1.286   3.092   2.987 -0.4568  1.0491 -1.1013
 4030TIP3   OH233504   6.817   2.076  11.611 -0.3237 -0.6059  0.0245
 4030TIP3    H133505   6.776   2.033  11.536  1.3435 -1.8581 -0.2091
 4030TIP3    H233506   6.756   2.061  11.683 -1.1621 -0.7920 -0.7035
 4031TIP3   OH233507   4.847   2.980  13.340  0.7529 -0.3345 -0.1632
 4031TIP3    H133508   4.892   2.948  13.418 -0.1765 -0.3097  0.3980
 4031TIP3    H233509   4.896   3.058  13.314  1.2465 -0.5144  0.2132
 4032TIP3   OH233510   2.170   5.687  16.565 -0.1630 -0.2806 -0.1289
 4032TIP3    H133511   2.254   5.670  16.522  0.2142 -0.2768  0.5969
 4032TIP3    H233512   2.111   5.622  16.527  0.7143 -1.7715  0.9530
 4033TIP3   OH233513   3.678   5.977   0.105 -0.4694  0.6037 -0.3937
 4033TIP3    H133514   3.679   6.047   0.040  1.2573  0.3033 -0.7432
 4033TIP3    H233515   3.729   5.907   0.066  0.0802  0.1746  1.0101
 4034TIP3   OH233516   5.603   1.347  14.674 -0.6835  0.0862  0.5204
 4034TIP3    H133517   5.650   1.267  14.652 -1.6588 -0.1696 -0.7897
 4034TIP3    H233518   5.524   1.345  14.619 -0.2943  2.3952 -0.2588
 4035TIP3   OH233519   2.688   5.294   1.256 -0.4489  0.0215  0.4906
 4035TIP3    H133520   2.739   5.334   1.186 -1.9677  1.4566  0.1250
 4035TIP3    H233521   2.709   5.347   1.333 -0.4026 -0.1959  0.6266
 4036TIP3   OH233522   3.745   2.338  11.190 -0.7893 -0.3428 -0.5298
 4036TIP3    H133523   3.750   2.244  11.169  2.2095 -0.1607 -1.1742
 4036TIP3    H233524   3.754   2.382  11.105  2.0933  0.4273  0.0657
 4037TIP3   OH233525   0.286   6.528  11.363 -0.3886 -0.2963 -0.2401
 4037TIP3    H133526   0.215   6.572  11.409 -0.7102 -0.0950 -0.9075
 4037TIP3    H233527   0.249   6.444  11.336  0.5591 -1.4835  1.9651
 4038TIP3   OH233528   6.106   6.013  12.327 -0.1630 -0.0800 -0.1706
 4038TIP3    H133529   6.105   6.073  12.252 -1.7359  2.0907  1.4386
 4038TIP3    H233530   6.197   5.986  12.335  0.1999  0.3255 -2.3041
 4039TIP3   OH233531   2.430   0.560   0.942  0.4747  0.2644  0.1238
 4039TIP3    H133532   2.466   0.565   1.031  0.4285 -2.1380  0.3449
 4039TIP3    H233533   2.506   0.547   0.886  0.5144  1.8922 -0.2681
 4040TIP3   OH233534   5.041   5.080  12.283 -0.3834 -0.5050 -0.1942
 4040TIP3    H133535   5.087   5.013  12.232  1.5362  0.6283 -0.0588
 4040TIP3    H233536   5.109   5.120  12.337 -1.5373  1.2760  0.0363
 4041TIP3   OH233537   6.182   4.167  13.476 -0.0738 -0.3477 -0.3836
 4041TIP3    H133538   6.212   4.255  13.496  1.3553 -0.5691 -1.4356
 4041TIP3    H233539   6.261   4.114  13.475 -0.9613 -1.8032  0.8457
 4042TIP3   OH233540   3.364   6.665  11.016 -0.1535  0.2074 -0.9880
 4042TIP3    H133541   3.275   6.692  10.990 -0.3115 -0.1752 -0.8518
 4042TIP3    H233542   3.391   6.603  10.949  0.4749  1.1953 -1.6680
 4043TIP3   OH233543   3.484   2.325  12.509  0.2001 -0.3803 -0.3321
 4043TIP3    H133544   3.560   2.313  12.566  0.4727 -0.9955 -0.8127
 4043TIP3    H233545   3.510   2.394  12.448  1.0935 -1.7838 -1.6401
 4044TIP3   OH233546   6.178   2.801  11.202 -0.2994  0.3714  0.4156
 4044TIP3    H133547   6.258   2.834  11.162  0.6373  0.3248  2.1704
 4044TIP3    H233548   6.180   2.835  11.292 -1.4686 -0.8958  0.9558
 4045TIP3   OH233549   5.162   4.552  13.914  0.2472 -0.5787 -0.1199
 4045TIP3    H133550   5.239   4.562  13.858  1.3375 -1.5876  1.1162
 4045TIP3    H233551   5.091   4.529  13.854  0.7576  0.9246 -1.3482
 4046TIP3   OH233552   5.998   0.115   2.328 -0.2042 -0.1887  0.3961
 4046TIP3    H133553   5.972   0.065   2.405  1.6018 -0.4911  0.8680
 4046TIP3    H233554   5.962   0.202   2.341  1.6484  0.3318  2.5683
 4047TIP3   OH233555   0.819   1.324  12.643 -0.1240  0.0538 -0.2600
 4047TIP3    H133556   0.733   1.320  12.601 -0.6006 -0.1701  0.7036
 4047TIP3    H233557   0.801   1.303  12.735  0.9499  0.1019 -0.0330
 4048TIP3   OH233558   3.455   5.405  15.476 -0.2252 -0.0808 -0.9178
 4048TIP3    H133559   3.510   5.459  15.532  0.5769 -0.3870 -1.3883
 4048TIP3    H233560   3.514   5.336  15.444 -1.0737 -0.8611 -0.8317
 4049TIP3   OH233561   4.529   3.376   1.390  0.3350 -0.2536 -0.0668
 4049TIP3    H133562   4.541   3.458   1.342 -0.0060  1.0749  2.0008
 4049TIP3    H233563   4.502   3.313   1.323  0.6391  1.2859 -1.7258
 4050TIP3   OH233564   3.624   3.895   0.382  0.2325  0.2678  0.0393
 4050TIP3    H133565   3.599   3.938   0.464 -1.7864 -0.6849 -0.0032
 4050TIP3    H233566   3.689   3.830   0.408 -1.6595 -1.2704  1.2848
 4051TIP3   OH233567   6.751   1.121   4.588  0.3256 -0.3784 -0.1789
 4051TIP3    H133568   6.766   1.201   4.538  0.9734 -0.6566 -0.4449
 4051TIP3    H233569   6.715   1.151   4.671  0.6915  0.1995 -0.2233
 4052TIP3   OH233570   5.838   3.250   5.239 -0.0374  0.1644 -0.3268
 4052TIP3    H133571   5.802   3.248   5.151  0.1470 -2.5141 -0.4000
 4052TIP3    H233572   5.882   3.335   5.245 -1.7582  1.2396 -2.0768
 4053TIP3   OH233573   5.434   0.331   4.474 -0.0243  0.3106 -0.1730
 4053TIP3    H133574   5.441   0.235   4.478  1.7931  0.3622  4.5371
 4053TIP3    H233575   5.523   0.362   4.491 -1.1896  2.6277  2.5165
 4054TIP3   OH233576   3.891   4.043   4.982 -0.0495  0.5282 -0.4755
 4054TIP3    H133577   3.928   4.016   4.898  1.1929  2.7071 -0.7119
 4054TIP3    H233578   3.954   4.107   5.017 -1.6642  1.4096  1.0143
 4055TIP3   OH233579   1.366   0.150  11.636 -0.2058  0.1110 -0.1041
 4055TIP3    H133580   1.278   0.149  11.599 -0.5534 -0.6175  0.7081
 4055TIP3    H233581   1.416   0.089  11.581 -0.8605 -1.3937  0.8832
 4056TIP3   OH233582   6.518   6.764  15.089  0.4769  0.1539  0.4113
 4056TIP3    H133583   6.593   6.718  15.129  1.5777  1.6611  0.1544
 4056TIP3    H233584   6.500   6.715  15.009  0.9459 -0.4526  0.6661
 4057TIP3   OH233585   5.543   4.672   3.042 -0.3033 -0.2225  0.3283
 4057TIP3    H133586   5.581   4.754   3.074  2.0419 -1.1563  0.0996
 4057TIP3    H233587   5.449   4.682   3.060 -0.0461  2.2743  0.7913
 4058TIP3   OH233588   6.511   3.815   0.511 -0.0052  0.3872 -0.1037
 4058TIP3    H133589   6.587   3.778   0.555 -0.3833 -0.7479 -0.3660
 4058TIP3    H233590   6.547   3.882   0.453  1.0349 -1.3617 -1.5901
 4059TIP3   OH233591   2.901   0.605   1.662  0.3233 -0.0417 -0.1167
 4059TIP3    H133592   2.842   0.635   1.593  1.1917  0.2876 -0.7375
 4059TIP3    H233593   2.967   0.675   1.669 -0.8271  0.9187  2.4455
 4060TIP3   OH233594   2.877   3.764  11.695 -0.4154 -0.0297  0.1207
 4060TIP3    H133595   2.889   3.790  11.786  1.6608  2.1546 -0.6484
 4060TIP3    H233596   2.897   3.670  11.694 -1.2200 -0.2554  1.9989
 4061TIP3   OH233597   5.464   6.217  15.647 -0.3856 -0.7207  0.2010
 4061TIP3    H133598   5.415   6.261  15.716  0.4557 -0.6273  0.7650
 4061TIP3    H233599   5.446   6.124  15.659 -1.8939 -0.5773 -0.7752
 4062TIP3   OH233600   1.235   0.547  16.127 -0.2948 -0.8853  0.5719
 4062TIP3    H133601   1.142   0.538  16.109 -0.1742 -1.7031  0.2862
 4062TIP3    H233602   1.240   0.575  16.218 -0.8184 -0.7092  0.5466
 4063TIP3   OH233603   3.491   3.020   0.717 -0.2798  0.2172  0.0574
 4063TIP3    H133604   3.559   3.062   0.665 -1.7024  0.1227 -1.9751
 4063TIP3    H233605   3.533   2.941   0.751  0.9685  0.7669 -0.1499
 4064TIP3   OH233606   5.837   3.733   1.731  0.0396  0.6457  0.3760
 4064TIP3    H133607   5.832   3.672   1.804 -0.4388 -1.0505 -0.9960
 4064TIP3    H233608   5.872   3.681   1.658  0.3116  2.2128 -0.6791
 4065TIP3   OH233609   0.108   6.694   6.166 -0.3313 -0.7364 -0.4814
 4065TIP3    H133610   0.071   6.607   6.184  0.4185 -0.9020  0.2869
 4065TIP3    H233611   0.198   6.677   6.139 -0.0519 -0.1696  0.0845
 4066TIP3   OH233612   1.539   1.979   4.056 -0.1266 -0.8162  0.0873
 4066TIP3    H133613   1.546   2.057   4.001 -0.6524 -0.4716  0.4870
 4066TIP3    H233614   1.579   2.004   4.139  1.0088 -1.4588 -0.2479
 4067TIP3   OH233615   4.540   2.274   3.486  0.1114  0.0686 -0.3913
 4067TIP3    H133616   4.466   2.268   3.426 -1.2812 -1.5499  1.3677
 4067TIP3    H233617   4.571   2.364   3.477 -2.2876  0.9147 -0.9570
 4068TIP3   OH233618   1.378   0.552  11.179  0.2491  0.0349  0.4805
 4068TIP3    H133619   1.446   0.613  11.207 -0.4407  1.2570 -0.4245
 4068TIP3    H233620   1.311   0.607  11.138 -1.4333 -1.0961  1.5695
 4069TIP3   OH233621   5.585   0.404  16.607 -0.2983 -0.2068  0.2299
 4069TIP3    H133622   5.604   0.367  16.693 -0.9673 -1.1414 -0.0117
 4069TIP3    H233623   5.508   0.460  16.622  1.3417  2.0745  0.8178
 4070TIP3   OH233624   0.185   2.471   3.803 -0.4763  0.0544  0.0357
 4070TIP3    H133625   0.268   2.491   3.847  0.1581  0.6676 -1.3892
 4070TIP3    H233626   0.120   2.524   3.850 -0.2084 -0.9166  1.5858
 4071TIP3   OH233627   5.111   4.231  13.524  0.3782 -0.2945 -0.0177
 4071TIP3    H133628   5.082   4.251  13.613 -0.3683  0.8370 -0.4896
 4071TIP3    H233629   5.030   4.220  13.474  0.7569  0.6850 -0.8909
 4072TIP3   OH233630   4.137   5.131  15.551  0.2697  0.1565  0.3724
 4072TIP3    H133631   4.111   5.050  15.507  1.8431 -0.3515  0.3211
 4072TIP3    H233632   4.054   5.178  15.566 -0.5052 -0.6550 -1.1449
 4073TIP3   OH233633   3.770   6.009  12.164 -0.1528  0.7469 -0.0064
 4073TIP3    H133634   3.751   6.092  12.120 -1.0422 -0.1709 -1.4199
 4073TIP3    H233635   3.686   5.983  12.202  0.5699  1.4658  2.2272
 4074TIP3   OH233636   2.831   1.262  16.387 -0.4374  0.4963 -0.6246
 4074TIP3    H133637   2.750   1.231  16.428  0.1418 -0.1228  0.0916
 4074TIP3    H233638   2.866   1.186  16.342  0.5267  0.3259  0.3659
 4075TIP3   OH233639   0.951   3.390  16.029 -0.7852  0.4351 -0.1637
 4075TIP3    H133640   0.985   3.421  15.945 -2.2405  0.2433 -0.8536
 4075TIP3    H233641   0.885   3.324  16.006  0.0793 -0.9888  1.1855
 4076TIP3   OH233642   2.179   5.037   1.051  0.0737 -0.3594  0.1164
 4076TIP3    H133643   2.183   5.106   1.117  2.7704  0.8094 -1.1216
 4076TIP3    H233644   2.204   4.958   1.098  1.4472  0.3629  0.6625
 4077TIP3   OH233645   6.468   5.070   5.498 -0.2310  0.2728 -0.0099
 4077TIP3    H133646   6.438   5.102   5.584 -0.0505  0.2925  0.0474
 4077TIP3    H233647   6.412   5.114   5.435 -1.6630 -1.2047  0.1713
 4078TIP3   OH233648   1.475   5.257   0.678  0.0123  0.1254  0.2798
 4078TIP3    H133649   1.568   5.277   0.689  0.2995  0.4859 -2.2812
 4078TIP3    H233650   1.470   5.215   0.592 -2.0296 -1.1648  0.9682
 4079TIP3   OH233651   2.332   5.244  12.541  0.3114 -0.6469  0.7471
 4079TIP3    H133652   2.412   5.290  12.568 -0.5098  0.2755  1.6517
 4079TIP3    H233653   2.329   5.256  12.446  0.8509 -0.0241  0.7988
 4080TIP3   OH233654   4.695   4.604   5.155  0.1572  0.1563 -0.1528
 4080TIP3    H133655   4.662   4.521   5.189  1.1785  0.4843  1.7692
 4080TIP3    H233656   4.637   4.670   5.193  1.4344  0.5443  1.2035
 4081TIP3   OH233657   1.387   5.303   0.288 -0.8638 -0.2339 -0.4820
 4081TIP3    H133658   1.392   5.394   0.259 -0.7666 -0.3911 -0.9677
 4081TIP3    H233659   1.471   5.265   0.265 -0.4966 -0.1694  0.7086
 4082TIP3   OH233660   4.362   4.199  10.104  0.7090 -0.1492  0.1742
 4082TIP3    H133661   4.292   4.260  10.127 -0.8797 -1.6352 -0.4854
 4082TIP3    H233662   4.382   4.153  10.185  1.2506  0.5572  0.4558
 4083TIP3   OH233663   3.986   1.936   1.667  0.0744 -0.4394 -0.2053
 4083TIP3    H133664   3.999   1.858   1.613  0.8788 -0.4577 -0.0003
 4083TIP3    H233665   3.960   2.004   1.606  0.4259 -0.6034 -0.5434
 4084TIP3   OH233666   2.822   2.488  12.483 -0.0085 -0.0741  0.2872
 4084TIP3    H133667   2.826   2.552  12.554 -2.7726 -0.3447  0.7897
 4084TIP3    H233668   2.862   2.409  12.519  1.8419  0.7834  0.2500
 4085TIP3   OH233669   3.537   0.585  11.630 -0.5786  0.1533  0.0454
 4085TIP3    H133670   3.614   0.577  11.574 -1.2619  0.0246 -0.9198
 4085TIP3    H233671   3.499   0.497  11.632 -1.6241  0.5482 -0.9067
 4086TIP3   OH233672   1.022   4.671  14.235 -0.1128  0.0155  0.2479
 4086TIP3    H133673   0.973   4.728  14.294 -0.3455  0.9496 -0.8126
 4086TIP3    H233674   1.098   4.722  14.209  0.6891 -0.8846  0.7452
 4087TIP3   OH233675   5.308   1.066   1.683 -0.4534 -0.0934 -0.1511
 4087TIP3    H133676   5.387   1.100   1.724 -1.4179 -0.4980  2.2292
 4087TIP3    H233677   5.245   1.058   1.756 -1.5448 -3.1813 -1.2672
 4088TIP3   OH233678   6.125   5.694   2.980 -0.2424  0.4627 -0.3680
 4088TIP3    H133679   6.036   5.665   2.997 -0.3030  0.1743 -1.1434
 4088TIP3    H233680   6.131   5.699   2.885  0.7430 -0.0703 -0.3476
 4089TIP3   OH233681   6.485   5.552  11.087 -0.7737 -0.2188 -0.0651
 4089TIP3    H133682   6.428   5.629  11.090  1.5898  1.6648 -0.4513
 4089TIP3    H233683   6.514   5.541  11.178 -0.5533 -0.2290 -0.1382
 4090TIP3   OH233684   6.671   4.977   0.010 -0.0419  0.3694 -0.1743
 4090TIP3    H133685   6.718   5.059  -0.005  1.2549 -0.4632 -0.8259
 4090TIP3    H233686   6.688   4.925  -0.069 -0.6311 -0.6354  0.3459
 4091TIP3   OH233687   3.677   6.362  15.646  0.9987  0.0512 -0.1347
 4091TIP3    H133688   3.735   6.436  15.632  1.9687 -0.6290  0.1805
 4091TIP3    H233689   3.658   6.362  15.740  1.4524 -0.4170 -0.0386
 4092TIP3   OH233690   1.311   4.709  15.136 -0.7129 -0.7032 -0.5620
 4092TIP3    H133691   1.295   4.709  15.230  1.4979 -1.1437 -0.1379
 4092TIP3    H233692   1.357   4.626  15.119 -0.0681 -0.1143 -1.8271
 4093TIP3   OH233693   4.220   5.776   0.812  0.1450  0.5273 -0.0585
 4093TIP3    H133694   4.194   5.847   0.871  0.8808 -0.2424  1.2553
 4093TIP3    H233695   4.291   5.731   0.859  0.8612 -0.0357 -1.6107
 4094TIP3   OH233696   1.562   0.851  11.886  0.1646  0.8270 -0.4458
 4094TIP3    H133697   1.609   0.933  11.894  1.4898  0.2234 -1.5699
 4094TIP3    H233698   1.592   0.814  11.803 -1.2457 -0.2673 -0.5181
 4095TIP3   OH233699   2.696   3.531   6.030 -0.4921 -0.0105 -0.2913
 4095TIP3    H133700   2.659   3.443   6.025 -1.4167  0.3751 -0.6141
 4095TIP3    H233701   2.692   3.554   6.123 -0.8943 -0.0597 -0.2925
 4096TIP3   OH233702   1.897   6.814  12.639  0.5496 -0.0006  0.0060
 4096TIP3    H133703   1.952   6.878  12.594  0.2042  1.0051  0.9693
 4096TIP3    H233704   1.813   6.818  12.594  0.6579 -0.0966 -0.2062
 4097TIP3   OH233705   3.540   5.451   1.875  0.9047  0.5175 -0.3821
 4097TIP3    H133706   3.577   5.534   1.906  2.0209 -0.5821  1.4560
 4097TIP3    H233707   3.464   5.436   1.933  0.3542  0.5271 -1.0917
 4098TIP3   OH233708   2.860   6.531   0.964  0.8108 -0.5710 -0.2712
 4098TIP3    H133709   2.814   6.559   0.885  0.2623  0.4466  0.3867
 4098TIP3    H233710   2.864   6.436   0.957  0.6946 -0.5034 -1.4739
 4099TIP3   OH233711   6.189   2.841  13.535 -0.5783 -0.8801  0.0562
 4099TIP3    H133712   6.258   2.905  13.548  0.0018 -1.4284 -0.2670
 4099TIP3    H233713   6.202   2.809  13.445 -1.8671 -0.2636 -0.3766
 4100TIP3   OH233714   0.939   3.120   0.357 -0.0003  0.0013 -0.4021
 4100TIP3    H133715   0.861   3.139   0.305 -0.0418  1.4279  0.1281
 4100TIP3    H233716   0.987   3.055   0.306 -0.6707  0.3991 -1.5827
 4101TIP3   OH233717   4.489   0.165   4.084  0.4487 -0.3705 -0.3333
 4101TIP3    H133718   4.502   0.178   4.178 -1.4144  1.6516 -0.2841
 4101TIP3    H233719   4.570   0.195   4.044  0.0099  2.1409  0.4818
 4102TIP3   OH233720   6.861   1.369  13.794 -0.8457  0.1576 -0.4968
 4102TIP3    H133721   6.880   1.353  13.887 -0.2682 -2.9785 -1.0415
 4102TIP3    H233722   6.776   1.329  13.779 -0.4641 -0.3246 -1.5113
 4103TIP3   OH233723   3.570   6.733  13.202 -0.1112  0.2463  0.3082
 4103TIP3    H133724   3.600   6.642  13.207 -3.2065 -0.9194 -0.3889
 4103TIP3    H233725   3.591   6.760  13.112 -0.6137 -0.3518  0.0052
 4104TIP3   OH233726   5.729   1.673  13.848 -0.3621  0.3420  0.4216
 4104TIP3    H133727   5.647   1.648  13.806 -0.1657 -0.0436  0.2609
 4104TIP3    H233728   5.757   1.594  13.895  0.9840 -0.2405 -1.2257
 4105TIP3   OH233729   2.450   4.058   6.673 -0.2122  0.2290  0.2658
 4105TIP3    H133730   2.385   4.060   6.743 -1.0019  1.1527 -0.4701
 4105TIP3    H233731   2.489   4.145   6.674  0.0270  0.1297 -0.2164
 4106TIP3   OH233732   5.042   1.407   5.464 -0.7078 -0.1772 -0.1717
 4106TIP3    H133733   4.991   1.426   5.385  0.4593 -1.1261 -1.1831
 4106TIP3    H233734   5.077   1.492   5.491 -0.7287  0.0795 -0.9404
 4107TIP3   OH233735   6.482   0.124  13.839 -0.4678  0.3747  0.2633
 4107TIP3    H133736   6.395   0.140  13.802 -0.4306  0.5513  0.2505
 4107TIP3    H233737   6.501   0.032  13.818  0.1780  0.8655 -1.4913
 4108TIP3   OH233738   1.970   2.245  11.725  0.3518 -0.0685  0.7498
 4108TIP3    H133739   1.881   2.279  11.735  0.3707  1.3999 -2.7215
 4108TIP3    H233740   2.024   2.323  11.717  1.3729 -0.8915 -0.8240
 4109TIP3   OH233741   5.324   5.155  15.772  0.4453  0.3391 -0.1160
 4109TIP3    H133742   5.411   5.191  15.756  0.1244  0.8182 -0.8645
 4109TIP3    H233743   5.279   5.164  15.688  0.4396 -2.1004 -0.4677
 4110TIP3   OH233744   5.580   1.203  13.559 -0.0688 -0.1178  0.3150
 4110TIP3    H133745   5.614   1.185  13.471 -1.1174 -0.6506  0.0029
 4110TIP3    H233746   5.501   1.254  13.544  0.7788  1.5046  1.0512
 4111TIP3   OH233747   1.512   3.602   0.579  0.3573  0.3596 -0.0504
 4111TIP3    H133748   1.574   3.534   0.607  1.5222  0.3401 -2.4456
 4111TIP3    H233749   1.429   3.556   0.567  0.3995 -0.0473  1.1095
 4112TIP3   OH233750   4.891   1.207  12.791  0.2446  0.3884  0.0220
 4112TIP3    H133751   4.962   1.165  12.742  0.0805 -0.4655  0.5025
 4112TIP3    H233752   4.905   1.300  12.778  1.4847  0.2331  0.1486
 4113TIP3   OH233753   3.631   2.159  15.140 -0.3380  0.3217 -0.5974
 4113TIP3    H133754   3.587   2.242  15.161 -0.9486  0.5695 -2.5936
 4113TIP3    H233755   3.697   2.149  15.208 -0.1694  2.5305 -0.3558
 4114TIP3   OH233756   0.660   6.180  10.879  0.7492  0.3280 -0.2169
 4114TIP3    H133757   0.722   6.215  10.815  0.7119 -0.3077 -0.6094
 4114TIP3    H233758   0.710   6.171  10.959  0.7220  1.4119 -0.0654
 4115TIP3   OH233759   1.778   3.535   1.134 -0.3861 -0.1318 -0.0619
 4115TIP3    H133760   1.859   3.489   1.153 -0.7770 -1.9059 -2.3025
 4115TIP3    H233761   1.796   3.626   1.159  0.8950 -1.1169  3.1641
 4116TIP3   OH233762   3.075   3.657  14.537 -0.5381 -0.2914  0.4592
 4116TIP3    H133763   3.010   3.599  14.499 -2.7301  1.5637  1.1441
 4116TIP3    H233764   3.120   3.603  14.602  0.4182 -2.3060 -1.7064
 4117TIP3   OH233765   1.407   6.734  15.708  0.1178 -0.7769  0.0004
 4117TIP3    H133766   1.419   6.639  15.707 -2.0765 -1.0927 -0.3541
 4117TIP3    H233767   1.409   6.758  15.801 -2.5922 -1.6994  0.3700
 4118TIP3   OH233768   6.703   0.391   2.177 -0.5230  0.3178  0.4755
 4118TIP3    H133769   6.617   0.378   2.136 -1.7034  2.8438  1.8691
 4118TIP3    H233770   6.709   0.321   2.242 -1.4381 -0.0254  0.2137
 4119TIP3   OH233771   0.703   1.445  11.106 -0.0367 -0.6459  0.2247
 4119TIP3    H133772   0.748   1.453  11.190  2.9268 -2.5382 -1.0086
 4119TIP3    H233773   0.639   1.376  11.120  0.9258 -1.4526  0.7879
 4120TIP3   OH233774   0.536   4.358   1.235  0.1637 -0.1428 -0.4504
 4120TIP3    H133775   0.448   4.397   1.236  0.1009 -0.2642 -0.9405
 4120TIP3    H233776   0.593   4.425   1.272 -0.5040 -0.9745  2.2712
 4121TIP3   OH233777   3.228   1.096   5.221 -0.6285 -0.3245  0.5448
 4121TIP3    H133778   3.290   1.093   5.293  2.0125  1.1884 -1.4800
 4121TIP3    H233779   3.250   1.021   5.167 -1.3054 -0.3947  0.3576
 4122TIP3   OH233780   4.959   6.781  10.417 -0.2590  0.1478 -0.1330
 4122TIP3    H133781   5.046   6.751  10.393 -0.0320  1.5501 -1.1995
 4122TIP3    H233782   4.919   6.707  10.463  2.3565  0.2614  2.6220
 4123TIP3   OH233783   5.388   1.764  10.861  0.3459 -0.7525 -0.5635
 4123TIP3    H133784   5.452   1.821  10.818  0.7221  0.5206  1.5342
 4123TIP3    H233785   5.436   1.683  10.878  2.4404  0.9349  3.0766
 4124TIP3   OH233786   6.076   2.291   4.864  0.3530  0.0267  0.4602
 4124TIP3    H133787   6.019   2.367   4.866  0.4122  0.0568  1.2005
 4124TIP3    H233788   6.026   2.222   4.907  1.8970  0.8063  3.8911
 4125TIP3   OH233789   4.820   6.036   0.595 -0.0602  0.2889 -0.3647
 4125TIP3    H133790   4.868   6.119   0.601 -2.2931  1.5814  1.3566
 4125TIP3    H233791   4.881   5.970   0.627  1.3768  1.4326 -0.6279
 4126TIP3   OH233792   0.165   3.936   2.660  0.4421  0.1030 -0.0842
 4126TIP3    H133793   0.091   3.946   2.720 -0.2258  1.3862 -1.0642
 4126TIP3    H233794   0.173   4.022   2.618  1.4200 -0.5183 -1.2263
 4127TIP3   OH233795   3.410   4.024  14.346 -0.5431  0.2585  0.0673
 4127TIP3    H133796   3.414   3.933  14.375  0.5135  0.1337 -0.4194
 4127TIP3    H233797   3.414   4.020  14.251  1.1828  0.8420  0.0663
 4128TIP3   OH233798   3.773   1.338   1.407 -0.3648  0.5305  0.1879
 4128TIP3    H133799   3.715   1.272   1.370  0.6659  0.2517 -1.0090
 4128TIP3    H233800   3.720   1.384   1.471 -1.6941 -0.1347 -0.4037
 4129TIP3   OH233801   1.072   6.443   3.839  0.5947  0.0877  0.5160
 4129TIP3    H133802   1.151   6.468   3.887  1.3220  0.2279 -0.7070
 4129TIP3    H233803   1.071   6.347   3.841  1.0249  0.0770  0.1754
 4130TIP3   OH233804   2.057   3.395  12.621 -0.0436  0.5962 -0.0115
 4130TIP3    H133805   2.091   3.458  12.685  0.4399  0.3856 -0.0575
 4130TIP3    H233806   2.046   3.314  12.671  1.4659  0.0927 -0.4471
 4131TIP3   OH233807   3.309   4.724   4.899 -0.3689 -0.2695 -0.1096
 4131TIP3    H133808   3.370   4.654   4.878  0.5068  0.6203 -0.6208
 4131TIP3    H233809   3.237   4.680   4.944  0.4060 -1.4126  0.0647
 4132TIP3   OH233810   2.400   2.740   3.734  0.0787  0.2003  0.2477
 4132TIP3    H133811   2.381   2.647   3.721  1.1084  0.0805 -0.6058
 4132TIP3    H233812   2.403   2.776   3.646  1.3285  0.6758  0.4555
 4133TIP3   OH233813   1.919   3.056   6.344  0.1755 -0.7382 -0.2050
 4133TIP3    H133814   1.843   3.009   6.310  0.4358 -0.8715 -0.6031
 4133TIP3    H233815   1.891   3.087   6.431 -0.2941 -0.8751 -0.3057
 4134TIP3   OH233816   4.135   0.865  10.856  0.7793  0.4694 -0.0575
 4134TIP3    H133817   4.206   0.883  10.795 -0.1018  1.4117 -0.8450
 4134TIP3    H233818   4.073   0.812  10.806  1.0987 -0.7238  0.7603
 4135TIP3   OH233819   5.632   4.001  12.790  0.0600  0.7115  0.3652
 4135TIP3    H133820   5.551   3.981  12.743  0.4733  1.6829 -0.8072
 4135TIP3    H233821   5.604   4.020  12.879 -0.7292 -1.3540  0.6325
 4136TIP3   OH233822   2.134   2.182  11.045 -0.2902 -0.0987 -0.6109
 4136TIP3    H133823   2.228   2.203  11.039 -0.0758 -0.7436  0.2877
 4136TIP3    H233824   2.091   2.252  10.996  0.6816  0.0238 -1.3315
 4137TIP3   OH233825   2.338   5.425  10.702 -0.7918  0.3117 -0.3820
 4137TIP3    H133826   2.267   5.488  10.706 -0.9365  0.2053 -1.0638
 4137TIP3    H233827   2.308   5.359  10.638  0.2853  0.7486 -1.3719
 4138TIP3   OH233828   5.515   3.549   1.664  0.2101 -0.2909 -0.1741
 4138TIP3    H133829   5.487   3.635   1.634  0.6592  0.6960  2.0703
 4138TIP3    H233830   5.608   3.560   1.686  0.4613 -1.5392 -0.5000
 4139TIP3   OH233831   2.024   5.586  16.213  0.1398 -0.4997 -0.4921
 4139TIP3    H133832   1.939   5.569  16.171 -1.7548 -0.8455  3.0773
 4139TIP3    H233833   2.023   5.680  16.231  0.2757 -0.5808 -0.0404
 4140TIP3   OH233834   5.636   2.010  14.737 -0.0770 -0.6471 -0.6413
 4140TIP3    H133835   5.605   2.054  14.658 -1.4068 -1.0277 -0.3522
 4140TIP3    H233836   5.573   2.034  14.805  0.7050 -0.8208  0.1660
 4141TIP3   OH233837   5.082   0.979  10.981  0.0677 -0.2645  0.7601
 4141TIP3    H133838   5.079   1.073  10.962  1.0829 -0.6766 -1.8063
 4141TIP3    H233839   5.021   0.940  10.919 -0.8530 -1.2891  2.2523
 4142TIP3   OH233840   2.441   4.251   4.473 -0.0306 -0.0031  0.0505
 4142TIP3    H133841   2.424   4.317   4.541 -1.9534 -0.7185  0.3392
 4142TIP3    H233842   2.526   4.275   4.436 -0.4122  2.2860  0.5337
 4143TIP3   OH233843   6.292   5.893   4.237 -0.6462 -0.0443 -0.3677
 4143TIP3    H133844   6.203   5.927   4.250 -0.3121  1.1258 -1.0270
 4143TIP3    H233845   6.321   5.932   4.155  0.4091 -0.5927 -0.2735
 4144TIP3   OH233846   1.421   1.508   3.592 -0.6880  0.1904 -0.1608
 4144TIP3    H133847   1.513   1.527   3.574 -0.6381 -0.4657 -0.6259
 4144TIP3    H233848   1.373   1.555   3.523 -0.6607 -0.0696 -0.3554
 4145TIP3   OH233849   0.228   1.414   0.321 -0.1608  0.2936  0.1167
 4145TIP3    H133850   0.185   1.486   0.367 -0.1789  0.2148  0.2223
 4145TIP3    H233851   0.192   1.418   0.232  0.1582  0.6838 -0.0006
 4146TIP3   OH233852   1.021   6.302  14.735 -0.2580  0.6083  0.8712
 4146TIP3    H133853   1.027   6.284  14.829  1.2633  1.8677  1.0531
 4146TIP3    H233854   0.937   6.265  14.709 -0.5881 -0.0039  2.6707
 4147TIP3   OH233855   5.969   5.858   1.796  0.7355 -0.0751 -0.5912
 4147TIP3    H133856   5.924   5.813   1.868  0.0763 -1.4543 -1.8193
 4147TIP3    H233857   5.976   5.949   1.826 -2.5158  0.1549 -0.1153
 4148TIP3   OH233858   2.177   0.294  13.035 -0.1608  0.2592 -0.2217
 4148TIP3    H133859   2.086   0.315  13.013 -0.1950 -0.1690 -0.4933
 4148TIP3    H233860   2.220   0.281  12.951  0.4540  1.6525 -0.1433
 4149TIP3   OH233861   2.889   3.044  13.810  0.7462  0.0773  0.5197
 4149TIP3    H133862   2.971   3.081  13.778  0.8706 -1.9572 -1.8140
 4149TIP3    H233863   2.912   2.955  13.838 -0.5257 -0.2984  0.4322
 4150TIP3   OH233864   3.052   1.324  12.753  0.0033 -0.5535  0.2313
 4150TIP3    H133865   3.009   1.330  12.838  1.2331 -0.7132  0.8908
 4150TIP3    H233866   3.040   1.411  12.714 -1.0404 -0.6478  0.3200
 4151TIP3   OH233867   5.404   6.043  16.531  0.5381  0.5175 -0.1303
 4151TIP3    H133868   5.326   6.040  16.475  0.0086 -0.7715  0.6338
 4151TIP3    H233869   5.477   6.032  16.471  0.1204  1.3886 -0.8192
 4152TIP3   OH233870   5.348   0.502  10.100  0.7402 -0.4024 -0.2055
 4152TIP3    H133871   5.407   0.574  10.121  1.1618 -0.2712 -1.7179
 4152TIP3    H233872   5.347   0.499  10.004 -2.5084  0.2705 -0.3073
 4153TIP3   OH233873   1.750   0.982   5.742 -0.1413  0.6754 -0.1430
 4153TIP3    H133874   1.659   1.008   5.741  0.5809  3.4055 -0.7061
 4153TIP3    H233875   1.793   1.045   5.800  1.5345 -0.0586 -0.5111
 4154TIP3   OH233876   5.331   1.550   0.585  0.7376 -0.1720 -0.4628
 4154TIP3    H133877   5.329   1.511   0.672  0.0088  1.3955  0.2403
 4154TIP3    H233878   5.261   1.505   0.537 -1.4258  1.5633  0.9346
 4155TIP3   OH233879   3.474   6.423   0.787  0.1298  0.3972 -0.1320
 4155TIP3    H133880   3.539   6.486   0.820  3.5150 -2.5010 -0.6537
 4155TIP3    H233881   3.483   6.428   0.691 -2.2056  1.4975 -0.3781
 4156TIP3   OH233882   4.143   3.433  11.521  0.2568  0.2587  0.4313
 4156TIP3    H133883   4.178   3.352  11.558  4.1789  1.8670  0.6362
 4156TIP3    H233884   4.143   3.418  11.426 -0.1136 -0.3265  0.5179
 4157TIP3   OH233885   2.520   5.088  11.699 -0.8106  0.4536  0.4627
 4157TIP3    H133886   2.590   5.121  11.642 -0.8530  2.0153  1.2659
 4157TIP3    H233887   2.523   4.993  11.687 -0.7478  0.7053 -2.0492
 4158TIP3   OH233888   4.174   0.231  11.863  0.4049  0.2503  0.0925
 4158TIP3    H133889   4.239   0.224  11.793 -0.1134 -1.9725 -0.2564
 4158TIP3    H233890   4.121   0.152  11.854 -0.8501  0.8279  1.8587
 4159TIP3   OH233891   2.422   3.224  10.552  0.5158  0.1660  0.0131
 4159TIP3    H133892   2.439   3.229  10.646  0.1175 -0.6405  0.1406
 4159TIP3    H233893   2.334   3.186  10.546  0.6012  0.0732 -0.6885
 4160TIP3   OH233894   4.892   5.311  16.197 -0.1482  0.0794  0.2551
 4160TIP3    H133895   4.911   5.404  16.195 -0.8497  0.2555  1.0704
 4160TIP3    H233896   4.828   5.297  16.127 -0.2368  0.2504  0.3037
 4161TIP3   OH233897   0.756   0.732  15.945 -0.6184  0.0307  1.2992
 4161TIP3    H133898   0.669   0.693  15.939 -2.0104  3.0618 -1.5071
 4161TIP3    H233899   0.774   0.735  16.039 -2.9798 -1.7780  1.9155
 4162TIP3   OH233900   0.460   1.248   4.490  0.2446  0.3426 -0.4005
 4162TIP3    H133901   0.499   1.170   4.451  1.0259 -0.7011  2.2381
 4162TIP3    H233902   0.388   1.271   4.431  1.1815 -1.1961 -2.2707
 4163TIP3   OH233903   6.025   3.424   1.268  0.0613 -0.0459  0.3963
 4163TIP3    H133904   6.054   3.448   1.179 -1.5857 -0.9318 -0.4291
 4163TIP3    H233905   6.106   3.405   1.315  0.9329 -3.0073 -1.9526
 4164TIP3   OH233906   3.442   5.445  15.809 -0.2900 -0.3283  0.5587
 4164TIP3    H133907   3.471   5.536  15.802  0.3018 -0.5470  0.0966
 4164TIP3    H233908   3.505   5.404  15.867  0.2086 -0.7532 -0.2711
 4165TIP3   OH233909   6.381   6.280   1.775 -0.2998 -0.0763 -0.1584
 4165TIP3    H133910   6.409   6.260   1.686  1.0660 -0.2435  0.2842
 4165TIP3    H233911   6.374   6.376   1.776 -0.4950 -0.0855 -0.4981
 4166TIP3   OH233912   5.475   4.487  10.237  0.4109  0.2490  0.2676
 4166TIP3    H133913   5.525   4.446  10.167  1.6443  0.5565  0.9220
 4166TIP3    H233914   5.384   4.480  10.210  0.5928 -2.3848  0.0816
 4167TIP3   OH233915   1.394   4.600  12.053 -0.2972 -0.2006 -0.1934
 4167TIP3    H133916   1.422   4.684  12.018 -1.5663  0.4119  0.2134
 4167TIP3    H233917   1.475   4.549  12.059  0.8303  1.6094  1.3117
 4168TIP3   OH233918   2.250   6.866   9.959 -0.4456  0.3684 -0.3565
 4168TIP3    H133919   2.188   6.890   9.890 -0.0677 -1.2632 -1.3254
 4168TIP3    H233920   2.336   6.881   9.921 -0.2026 -1.8568 -0.8313
 4169TIP3   OH233921   2.515   6.075  13.825  0.1579 -0.2475  0.2196
 4169TIP3    H133922   2.591   6.017  13.825  0.1913 -0.2072 -0.1787
 4169TIP3    H233923   2.441   6.019  13.845  0.2547 -0.3427  0.3108
 4170TIP3   OH233924   1.244   4.007  11.724 -0.2935  0.1413 -0.1861
 4170TIP3    H133925   1.201   3.990  11.640  0.8391  0.0951 -0.7690
 4170TIP3    H233926   1.330   3.966  11.716  0.1209  0.8073  0.7096
 4171TIP3   OH233927   0.063   3.183   0.098 -0.0770 -0.1704  0.8776
 4171TIP3    H133928   0.106   3.213   0.178 -1.4838  0.3036  1.4936
 4171TIP3    H233929  -0.012   3.241   0.088  2.2431  2.6055 -3.1117
 4172TIP3   OH233930   0.836   0.810   5.156  0.1806 -0.3253 -0.3166
 4172TIP3    H133931   0.752   0.821   5.199 -0.0294  3.0733 -1.2896
 4172TIP3    H233932   0.817   0.758   5.078 -1.3963  1.6526 -1.3216
 4173TIP3   OH233933   0.093   1.801  16.391  0.3189 -0.0367 -0.1250
 4173TIP3    H133934   0.134   1.886  16.408  0.1459  0.2788 -1.2071
 4173TIP3    H233935   0.066   1.805  16.300  0.9337 -1.5186 -0.4008
 4174TIP3   OH233936   3.096   3.281   2.800 -0.2307  0.2740 -0.2605
 4174TIP3    H133937   3.111   3.190   2.825 -1.0140  0.6296  1.6841
 4174TIP3    H233938   3.176   3.326   2.825 -0.4071  0.3622  0.1507
 4175TIP3   OH233939   5.888   5.070   1.936 -0.1372  0.6207 -0.5577
 4175TIP3    H133940   5.891   5.034   1.848 -0.1551 -0.7453 -0.0198
 4175TIP3    H233941   5.807   5.121   1.938 -0.1193  0.6850 -1.3314
 4176TIP3   OH233942   1.765   5.229   1.542 -0.4366 -0.8220 -0.3931
 4176TIP3    H133943   1.688   5.270   1.582  1.6244  2.1222  0.9224
 4176TIP3    H233944   1.822   5.208   1.615  1.0707 -0.5472 -1.4485
 4177TIP3   OH233945   3.173   1.052  10.951 -0.1432  0.6528  0.3300
 4177TIP3    H133946   3.224   1.127  10.921 -0.8144  0.2284 -2.0085
 4177TIP3    H233947   3.100   1.091  11.000  0.6974  1.3821  1.0534
 4178TIP3   OH233948   3.607   1.412   4.956 -0.2416  0.0261  0.2599
 4178TIP3    H133949   3.552   1.335   4.942  2.8622 -2.4348  0.4550
 4178TIP3    H233950   3.662   1.418   4.878  0.7324  1.0277  0.9838
 4179TIP3   OH233951   3.961   3.124   4.174 -0.1944  0.0359 -0.1748
 4179TIP3    H133952   3.989   3.080   4.093  0.2346  0.8612 -0.4793
 4179TIP3    H233953   3.882   3.172   4.149  0.8191  1.5784 -0.5235
 4180TIP3   OH233954   3.085   5.718  15.980 -0.1503  0.2958  0.6782
 4180TIP3    H133955   3.073   5.670  15.898  1.3041 -1.8317  1.6241
 4180TIP3    H233956   3.126   5.800  15.953  0.2354 -0.3233 -0.7466
 4181TIP3   OH233957   3.369   2.070  13.518 -0.2589 -0.3975  0.0158
 4181TIP3    H133958   3.329   2.133  13.458 -0.4462 -0.5350 -0.0024
 4181TIP3    H233959   3.438   2.120  13.562  0.5385 -0.5554 -1.0265
 4182TIP3   OH233960   2.613   2.804  14.271  0.3343 -0.4434 -0.5641
 4182TIP3    H133961   2.555   2.731  14.247 -1.3321  0.1494  1.3728
 4182TIP3    H233962   2.572   2.881  14.232  2.5564 -0.5212 -3.3490
 4183TIP3   OH233963   0.845   2.273  13.773 -0.5686 -0.1314  0.3479
 4183TIP3    H133964   0.769   2.215  13.761 -0.8004  0.5795 -2.1762
 4183TIP3    H233965   0.904   2.250  13.701  0.1904  1.4686  0.4250
 4184TIP3   OH233966   1.117   2.997  14.401  0.3696 -0.4402 -0.0660
 4184TIP3    H133967   1.087   3.081  14.366  0.3315 -0.3953  0.0769
 4184TIP3    H233968   1.077   2.932  14.343  0.0129 -0.3799  0.1100
 4185TIP3   OH233969   3.441   0.325  16.371 -0.1343 -0.1457 -0.1598
 4185TIP3    H133970   3.536   0.321  16.368  0.0274 -1.5471  2.9215
 4185TIP3    H233971   3.421   0.389  16.439 -1.3259 -1.3184  0.6443
 4186TIP3   OH233972   5.650   4.774   3.462 -0.4906 -0.1946  0.4534
 4186TIP3    H133973   5.710   4.732   3.524 -2.1535 -1.1545  1.5154
 4186TIP3    H233974   5.701   4.845   3.423  1.7186 -1.7398  0.3251
 4187TIP3   OH233975   4.758   0.297   0.611  0.0970 -0.0831  0.0881
 4187TIP3    H133976   4.820   0.258   0.673  0.5653  0.6158  0.0675
 4187TIP3    H233977   4.777   0.391   0.614 -0.8056  0.1078 -0.0942
 4188TIP3   OH233978   6.858   3.306   4.279 -0.6125  0.7311 -0.3077
 4188TIP3    H133979   6.919   3.236   4.302 -1.1444  1.1071  2.7659
 4188TIP3    H233980   6.775   3.261   4.263  0.1041  0.3115 -3.5370
 4189TIP3   OH233981   5.323   1.870  16.501  0.0253 -0.0902  0.5525
 4189TIP3    H133982   5.403   1.833  16.464 -0.1853  0.0427 -0.0420
 4189TIP3    H233983   5.333   1.965  16.489 -0.3091 -0.0867  0.2995
 4190TIP3   OH233984   0.612   0.992   4.671  0.6265 -0.6319 -0.4601
 4190TIP3    H133985   0.573   1.039   4.597  1.3552  0.1299 -0.3787
 4190TIP3    H233986   0.602   0.899   4.648 -1.0569 -0.4647 -0.5130
 4191TIP3   OH233987   3.788   6.762  12.726  0.7320 -0.4755  0.3843
 4191TIP3    H133988   3.863   6.706  12.704  1.4549  0.3687  0.6786
 4191TIP3    H233989   3.792   6.833  12.662 -0.5089 -1.0227 -0.3379
 4192TIP3   OH233990   0.047   0.373  13.518  0.1144 -0.3651  0.7371
 4192TIP3    H133991   0.085   0.311  13.456 -1.3036 -1.3279  0.7873
 4192TIP3    H233992   0.122   0.407  13.566  1.2587  0.3025 -1.3592
 4193TIP3   OH233993   0.301   6.242  12.047  0.0649 -0.3543  0.2626
 4193TIP3    H133994   0.381   6.294  12.040 -0.3750  0.5259  1.3550
 4193TIP3    H233995   0.232   6.307  12.059 -1.2516 -0.9142 -3.1900
 4194TIP3   OH233996   4.702   1.936  16.463 -0.4507  0.5684 -0.4876
 4194TIP3    H133997   4.783   1.907  16.506  0.2850  1.7309 -1.0558
 4194TIP3    H233998   4.731   1.971  16.379 -1.3809  2.2804 -0.1189
 4195TIP3   OH233999   2.892   3.391  14.515 -0.2458 -0.1784 -0.5306
 4195TIP3    H134000   2.830   3.347  14.456  0.0528 -1.6232  0.1941
 4195TIP3    H234001   2.968   3.333  14.516  0.1214  0.3193  0.5245
 4196TIP3   OH234002   4.859   2.140   3.341 -0.5178 -0.2598  0.3517
 4196TIP3    H134003   4.878   2.054   3.380 -1.1801 -0.6718 -0.2112
 4196TIP3    H234004   4.891   2.203   3.406 -1.2379 -0.9295  1.4021
 4197TIP3   OH234005   0.319   0.331  12.875  0.0534 -0.3835 -0.2240
 4197TIP3    H134006   0.238   0.382  12.876  0.5957  0.5059 -0.2859
 4197TIP3    H234007   0.322   0.288  12.960  1.6507  3.0965  1.6951
 4198TIP3   OH234008   2.826   5.518   4.255 -0.0507 -0.0578  0.0610
 4198TIP3    H134009   2.822   5.614   4.250 -0.7815 -0.1496 -2.0262
 4198TIP3    H234010   2.911   5.496   4.218  0.3192 -0.2203  0.9803
 4199TIP3   OH234011   1.805   6.393   4.783  0.1038 -0.2548  0.2278
 4199TIP3    H134012   1.799   6.374   4.690 -1.0882 -0.7103  0.3873
 4199TIP3    H234013   1.832   6.485   4.787 -2.1113  0.4867 -0.6025
 4200TIP3   OH234014   1.116   3.494  13.530 -0.0279 -0.1828 -0.1499
 4200TIP3    H134015   1.072   3.578  13.544 -1.1159 -0.7846  0.1939
 4200TIP3    H234016   1.045   3.430  13.527  0.8564 -1.3572  1.6152
 4201TIP3   OH234017   2.474   4.593  12.272 -0.2600 -0.6753 -0.3926
 4201TIP3    H134018   2.415   4.574  12.345 -0.3669 -3.5853 -1.1423
 4201TIP3    H234019   2.433   4.553  12.196  0.9089  0.4428 -1.6592
 4202TIP3   OH234020   3.313   1.560  12.121 -0.5445 -0.1579  0.4215
 4202TIP3    H134021   3.351   1.534  12.037 -0.1742 -0.2794  0.6240
 4202TIP3    H234022   3.335   1.488  12.180  0.0075  0.3487  0.8537
 4203TIP3   OH234023   2.548   1.106  15.943  0.2919  0.5018  0.3437
 4203TIP3    H134024   2.460   1.070  15.953  0.8325 -1.3388 -0.9918
 4203TIP3    H234025   2.607   1.035  15.968  1.4549  2.0515  2.3121
 4204TIP3   OH234026   5.013   4.553   3.660  0.1877  0.5037  0.2172
 4204TIP3    H134027   4.977   4.472   3.694 -0.8600  0.2485 -1.3922
 4204TIP3    H234028   5.009   4.614   3.733  0.2589 -0.6695  1.2225
 4205TIP3   OH234029   1.442   0.608   1.395 -0.0500 -0.3318 -0.2859
 4205TIP3    H134030   1.470   0.677   1.455  1.9470  0.2432 -1.7932
 4205TIP3    H234031   1.456   0.527   1.443 -0.0583  0.1872  0.6074
 4206TIP3   OH234032   5.192   1.351   0.107 -0.5001 -0.3686  0.0166
 4206TIP3    H134033   5.189   1.257   0.126  1.3931 -0.4651  0.0328
 4206TIP3    H234034   5.158   1.358   0.018 -0.7358 -1.0604  0.0397
 4207TIP3   OH234035   0.046   6.448  16.292  0.2186  0.0119  0.2634
 4207TIP3    H134036  -0.045   6.453  16.262  0.6807 -2.1032 -1.8663
 4207TIP3    H234037   0.094   6.506  16.233  0.3965  0.2234  0.6182
 4208TIP3   OH234038   6.166   3.670  11.257 -0.0821 -0.2050  0.5557
 4208TIP3    H134039   6.166   3.722  11.177 -1.3990  0.1391  0.7479
 4208TIP3    H234040   6.206   3.726  11.323 -0.0223 -0.0491  0.3869
 4209TIP3   OH234041   3.322   1.323  15.898 -0.1530  0.3147 -0.2969
 4209TIP3    H134042   3.333   1.272  15.817 -2.2672  0.5864 -0.8239
 4209TIP3    H234043   3.298   1.411  15.867  2.5008  1.4517  0.6159
 4210TIP3   OH234044   0.251   6.221  10.431  0.0050  0.4841 -0.0317
 4210TIP3    H134045   0.239   6.191  10.341  1.2109  0.7806 -0.3107
 4210TIP3    H234046   0.311   6.295  10.424 -0.2218  0.7798  0.9758
 4211TIP3   OH234047   1.769   6.619   4.147  0.2324  0.0383 -0.2128
 4211TIP3    H134048   1.802   6.634   4.059  0.6900  0.1425 -0.0233
 4211TIP3    H234049   1.847   6.603   4.200  0.0763  1.2804  0.4339
 4212TIP3   OH234050   5.804   1.498   1.111  0.0432 -0.1894 -0.5912
 4212TIP3    H134051   5.854   1.580   1.116 -0.9909  0.3988  1.7124
 4212TIP3    H234052   5.827   1.461   1.026  1.8854  1.6280 -0.9782
 4213TIP3   OH234053   5.977   4.648  15.352 -0.4283  0.2763 -0.1239
 4213TIP3    H134054   5.914   4.693  15.297 -0.1518  1.3056  0.3768
 4213TIP3    H234055   5.936   4.564  15.373 -0.7186  0.0478 -1.5222
 4214TIP3   OH234056   2.908   0.815  15.940  0.4143  0.1114  0.3197
 4214TIP3    H134057   2.845   0.875  15.898  0.6230  0.2400  0.1918
 4214TIP3    H234058   2.865   0.730  15.936  0.3749  0.1467 -0.0329
 4215TIP3   OH234059   3.980   0.235  16.059  0.1198  0.1347  0.0827
 4215TIP3    H134060   4.057   0.288  16.080 -0.0638  0.6881 -0.6088
 4215TIP3    H234061   3.914   0.298  16.032 -0.2771 -0.4108 -0.2452
 4216TIP3   OH234062   2.981   4.308   1.014  0.1938 -0.3846  0.9357
 4216TIP3    H134063   3.004   4.391   0.972  2.2153 -2.0476 -1.5820
 4216TIP3    H234064   2.915   4.270   0.957 -0.3206 -0.7556  1.7688
 4217TIP3   OH234065   6.668   0.975  14.135  0.2579 -0.3792 -0.7156
 4217TIP3    H134066   6.645   0.931  14.053  0.7638 -0.0472 -1.0415
 4217TIP3    H234067   6.620   0.927  14.202 -0.5350 -0.3648 -1.2543
 4218TIP3   OH234068   5.721   4.401  13.634 -0.1269 -0.7043  0.8132
 4218TIP3    H134069   5.789   4.453  13.678  0.6702 -0.3734 -0.7240
 4218TIP3    H234070   5.655   4.464  13.609  0.3588 -0.5594 -0.1578
 4219TIP3   OH234071   2.231   3.786  12.680 -0.1766 -0.3353 -0.5497
 4219TIP3    H134072   2.146   3.763  12.719  0.4041 -0.2783  0.7913
 4219TIP3    H234073   2.264   3.856  12.736  1.0615 -0.8186 -0.6493
 4220TIP3   OH234074   1.945   1.587  12.456 -0.2691  0.5623 -0.2093
 4220TIP3    H134075   2.031   1.563  12.420 -0.7771 -0.1757 -0.9604
 4220TIP3    H234076   1.907   1.504  12.485 -1.2039  0.7135 -0.9498
 4221TIP3   OH234077   1.191   4.848   2.047  0.0355  0.1803  0.2791
 4221TIP3    H134078   1.153   4.760   2.040 -1.0702  0.7109 -0.7631
 4221TIP3    H234079   1.142   4.900   1.983  0.1149  1.7450  1.4331
 4222TIP3   OH234080   2.621   6.646  13.559  0.3908 -0.9839 -0.0301
 4222TIP3    H134081   2.582   6.559  13.556 -0.3877 -0.9531  4.1037
 4222TIP3    H234082   2.587   6.685  13.639  2.2797  2.4043 -0.6976
 4223TIP3   OH234083   0.968   4.687  13.524  0.6808 -0.9043 -0.2313
 4223TIP3    H134084   0.956   4.749  13.453  1.2511 -0.6654 -0.1277
 4223TIP3    H234085   1.052   4.645  13.504  0.7463 -0.9774  0.1921
 4224TIP3   OH234086   3.009   4.719  12.699 -0.6205 -0.6208  0.4077
 4224TIP3    H134087   3.094   4.710  12.742  0.8831 -2.3329 -2.6145
 4224TIP3    H234088   2.962   4.785  12.751  2.7211  0.8036  1.8767
 4225TIP3   OH234089   5.181   1.824  10.450 -0.1892  0.6822 -0.3446
 4225TIP3    H134090   5.165   1.832  10.545 -0.3497 -1.4308 -0.1488
 4225TIP3    H234091   5.268   1.862  10.437 -0.2313  1.1418  0.6194
 4226TIP3   OH234092   5.280   6.589   4.378  0.0757 -0.3832  0.0793
 4226TIP3    H134093   5.196   6.607   4.420  0.0156  0.3888 -0.3518
 4226TIP3    H234094   5.323   6.527   4.437  0.1991  1.0236  1.5498
 4227TIP3   OH234095   2.550   2.614  13.372 -0.1118  0.6913 -0.1310
 4227TIP3    H134096   2.613   2.675  13.335 -0.6199  1.5817  0.4421
 4227TIP3    H234097   2.468   2.634  13.327  0.0414 -0.6482 -1.0781
 4228TIP3   OH234098   5.764   3.366  14.782  0.2812  0.3787 -0.0677
 4228TIP3    H134099   5.754   3.314  14.862  1.3679  0.5923  0.2286
 4228TIP3    H234100   5.767   3.301  14.712 -0.0317  0.1483  0.1315
 4229TIP3   OH234101   0.113   6.423   6.194  0.8869 -0.2194  0.2246
 4229TIP3    H134102   0.087   6.355   6.256  1.2750  0.3329  1.0162
 4229TIP3    H234103   0.205   6.440   6.215  0.9099  0.2479 -0.2439
 4230TIP3   OH234104   6.365   4.415   9.959  0.4155  0.4806 -0.5281
 4230TIP3    H134105   6.307   4.357   9.910  0.9281 -0.2782 -0.2654
 4230TIP3    H234106   6.452   4.395   9.926  0.6134  1.0089 -0.3341
 4231TIP3   OH234107   5.163   3.734  10.618 -0.1077 -0.9638 -0.1996
 4231TIP3    H134108   5.085   3.775  10.581  0.4461 -0.9986 -1.4405
 4231TIP3    H234109   5.205   3.689  10.545  1.4526 -0.3717  0.2711
 4232TIP3   OH234110   0.592   3.984  11.106 -0.4585  0.4430 -0.7767
 4232TIP3    H134111   0.577   3.956  11.016  1.8130 -3.6709 -0.1604
 4232TIP3    H234112   0.505   3.993  11.144 -1.7461 -4.5027 -1.8022
 4233TIP3   OH234113   0.972   3.567   2.784  0.4152  0.4350  0.3336
 4233TIP3    H134114   0.973   3.658   2.813 -2.0783  1.7457 -2.9530
 4233TIP3    H234115   1.005   3.571   2.694 -0.7954 -1.7222 -0.2703
 4234TIP3   OH234116   3.647   4.138  10.699  0.3754  0.0476  0.3022
 4234TIP3    H134117   3.628   4.194  10.774 -0.1055  1.5253 -0.8666
 4234TIP3    H234118   3.739   4.157  10.679 -0.3197  2.0219 -1.3100
 4235TIP3   OH234119   4.563   1.219  15.678 -0.3703  0.4324 -0.1758
 4235TIP3    H134120   4.497   1.275  15.719 -0.7847 -0.6641  0.6868
 4235TIP3    H234121   4.587   1.266  15.597 -2.9909  0.3511 -1.0990
 4236TIP3   OH234122   1.763   2.673  14.476 -0.0585  0.6573 -0.3346
 4236TIP3    H134123   1.700   2.635  14.415 -0.1877 -0.5151  0.4867
 4236TIP3    H234124   1.826   2.717  14.420  0.0199 -0.6628 -1.3565
 4237TIP3   OH234125   1.157   4.710   0.394  0.1986 -0.4458  0.1039
 4237TIP3    H134126   1.066   4.731   0.372  0.5266  0.3399 -0.5848
 4237TIP3    H234127   1.199   4.796   0.403  0.6671 -0.7931  1.3243
 4238TIP3   OH234128   1.505   0.999   0.359  0.1007  0.5995  0.0338
 4238TIP3    H134129   1.448   0.924   0.341  0.2111  0.6206 -0.4278
 4238TIP3    H234130   1.546   1.018   0.275  0.3797  0.9257  0.2415
 4239TIP3   OH234131   2.273   5.369   0.174 -0.0274 -0.2655 -0.1333
 4239TIP3    H134132   2.259   5.350   0.081  0.9225  0.8118 -0.5226
 4239TIP3    H234133   2.360   5.409   0.177  0.4593 -1.3547  1.3811
 4240TIP3   OH234134   4.950   5.504  10.835  0.0460 -0.1129  0.1188
 4240TIP3    H134135   4.922   5.416  10.811  0.6015 -0.1415 -0.4547
 4240TIP3    H234136   5.044   5.497  10.847 -0.1336  0.0203  1.8399
 4241TIP3   OH234137   5.539   4.997  16.203  0.0783  0.6349  0.2862
 4241TIP3    H134138   5.577   5.068  16.255 -0.6378  0.7006  0.7298
 4241TIP3    H234139   5.536   5.032  16.114 -1.8337  1.8333  0.7767
 4242TIP3   OH234140   3.092   2.741   0.464  0.3592  0.5869  0.0323
 4242TIP3    H134141   3.054   2.805   0.403 -0.7026  0.9535  1.0478
 4242TIP3    H234142   3.179   2.776   0.484  0.2986  1.0213 -0.4331
 4243TIP3   OH234143   2.409   1.662   0.164 -0.2133 -0.0835  0.4688
 4243TIP3    H134144   2.505   1.659   0.156 -0.0987  1.1286  1.1066
 4243TIP3    H234145   2.376   1.629   0.081  0.7733  1.2255 -0.4685
 4244TIP3   OH234146   5.352   1.550  16.662  0.3558  0.0778  0.3423
 4244TIP3    H134147   5.415   1.543  16.589  1.2449  2.2806  0.8438
 4244TIP3    H234148   5.383   1.485  16.725  1.8283  0.7219  0.3328
 4245TIP3   OH234149   1.164   3.095  13.393  0.1539 -0.0881 -0.6343
 4245TIP3    H134150   1.227   3.060  13.331  0.4753  0.2994 -0.5251
 4245TIP3    H234151   1.167   3.190  13.380  1.8973  0.2247  1.5357
 4246TIP3   OH234152   5.828   4.030   3.215 -0.1076 -0.0898 -0.3760
 4246TIP3    H134153   5.821   4.038   3.310  1.2305 -0.5243 -0.2228
 4246TIP3    H234154   5.893   3.960   3.202 -0.8278 -0.5499 -1.6088
 4247TIP3   OH234155   6.110   6.891  14.503  0.3184 -0.3598 -0.6503
 4247TIP3    H134156   6.015   6.884  14.497  0.2180 -0.0234  0.3589
 4247TIP3    H234157   6.132   6.847  14.585  1.1339 -1.1735 -1.2792
 4248TIP3   OH234158   4.888   4.589  14.661 -0.6521  0.4280 -0.1637
 4248TIP3    H134159   4.913   4.542  14.581 -0.6163  0.3300 -0.0955
 4248TIP3    H234160   4.798   4.561  14.677 -0.5500  0.1947  0.0124
 4249TIP3   OH234161   6.593   3.114  10.124 -0.4582  0.2914 -0.2522
 4249TIP3    H134162   6.680   3.088  10.096 -0.5357 -2.3129  1.5414
 4249TIP3    H234163   6.582   3.203  10.090  0.9116 -0.9871 -4.7504
 4250TIP3   OH234164   0.783   1.560   5.983 -0.3795  0.1047 -0.8625
 4250TIP3    H134165   0.819   1.639   6.022 -1.3809 -0.0591  0.4712
 4250TIP3    H234166   0.855   1.497   5.985 -0.7407 -0.3933  2.2460
 4251TIP3   OH234167   4.130   5.474  11.319 -0.2456 -0.1023  0.5326
 4251TIP3    H134168   4.131   5.569  11.323  1.0528  0.1012 -2.2355
 4251TIP3    H234169   4.218   5.451  11.288 -0.6452 -2.1629  0.8087
 4252TIP3   OH234170   3.580   4.663   0.492  0.0384 -0.0806 -0.2574
 4252TIP3    H134171   3.648   4.725   0.466 -0.8185  2.1566  2.3831
 4252TIP3    H234172   3.618   4.614   0.565 -0.1631 -0.9947 -0.7454
 4253TIP3   OH234173   0.616   3.739  12.212  0.1092 -0.2282  0.0549
 4253TIP3    H134174   0.697   3.788  12.202 -0.0318 -0.1729 -0.8868
 4253TIP3    H234175   0.550   3.791  12.167 -0.3969 -0.4099  0.5746
 4254TIP3   OH234176   2.295   5.714  15.582  0.4421  0.0425  0.0610
 4254TIP3    H134177   2.302   5.801  15.543 -0.3210 -0.3997 -1.0950
 4254TIP3    H234178   2.372   5.707  15.638  2.1503  0.3052 -2.1369
 4255TIP3   OH234179   5.212   6.822  12.614 -0.2029  0.7500  0.1629
 4255TIP3    H134180   5.166   6.905  12.628 -0.4469  0.4654  1.1286
 4255TIP3    H234181   5.286   6.826  12.676  0.1830  0.5435 -0.2805
 4256TIP3   OH234182   5.288   4.901   3.036 -0.1640  0.2356  0.2969
 4256TIP3    H134183   5.206   4.931   2.997 -1.2008 -0.6130  1.7306
 4256TIP3    H234184   5.329   4.981   3.071 -1.2944  0.4503  1.1940
 4257TIP3   OH234185   1.771   3.804   3.047  0.1141 -0.4194 -0.2516
 4257TIP3    H134186   1.838   3.774   2.986  1.2143  1.3076  0.0245
 4257TIP3    H234187   1.801   3.773   3.132  0.0609 -0.4408 -0.2408
 4258TIP3   OH234188   2.954   4.994  12.539 -0.8526 -0.1072  0.4449
 4258TIP3    H134189   3.014   5.054  12.495  0.5547 -0.6898  1.4669
 4258TIP3    H234190   2.938   4.925  12.475  0.6680 -0.6282  0.5823
 4259TIP3   OH234191   2.288   1.431   2.663  0.2389  0.4068  0.1658
 4259TIP3    H134192   2.361   1.411   2.721  1.1524 -0.0392 -1.0838
 4259TIP3    H234193   2.328   1.437   2.576 -0.8002  2.7786 -0.2275
 4260TIP3   OH234194   2.858   2.233  12.596  0.9308 -0.4018  0.3722
 4260TIP3    H134195   2.843   2.199  12.508  1.4464 -0.2759  0.2306
 4260TIP3    H234196   2.807   2.176  12.653 -0.2774  0.1779 -0.1061
 4261TIP3   OH234197   1.520   2.406   3.413  0.1253  0.5557  0.2597
 4261TIP3    H134198   1.571   2.477   3.376  0.7157  0.9487  1.7499
 4261TIP3    H234199   1.585   2.347   3.451 -0.4368  0.0651  0.4745
 4262TIP3   OH234200   1.419   4.837  13.195 -0.0805  0.9782 -0.2468
 4262TIP3    H134201   1.489   4.800  13.249 -1.5281 -1.1907  0.2614
 4262TIP3    H234202   1.377   4.903  13.251 -0.5615 -0.1297  0.7344
 4263TIP3   OH234203   2.290   3.858   4.302  0.2375  0.4005  0.1013
 4263TIP3    H134204   2.296   3.909   4.383 -2.2286  1.1129 -0.0861
 4263TIP3    H234205   2.225   3.905   4.250  0.0765 -1.3380 -1.3366
 4264TIP3   OH234206   0.208   1.583  13.973  0.2801  0.5218  0.6297
 4264TIP3    H134207   0.138   1.548  14.028 -1.5463  2.2808 -0.3856
 4264TIP3    H234208   0.259   1.640  14.031 -0.9720  1.5138  0.8118
 4265TIP3   OH234209   5.198   2.732   9.770  0.0202  0.3227 -0.3848
 4265TIP3    H134210   5.178   2.776   9.853  1.4712  0.8159 -0.2679
 4265TIP3    H234211   5.150   2.650   9.774 -1.1470  1.0076  0.2713
 4266TIP3   OH234212   3.908   0.631   3.412 -0.0147 -0.7544 -0.3837
 4266TIP3    H134213   3.928   0.607   3.502  0.2200 -2.0812 -0.7662
 4266TIP3    H234214   3.989   0.617   3.364  0.2019  1.0457 -0.6347
 4267TIP3   OH234215   2.944   4.733  16.385  0.5623  0.2579 -0.1135
 4267TIP3    H134216   2.900   4.718  16.469  0.2074  0.6396 -0.2307
 4267TIP3    H234217   3.030   4.693  16.397 -0.0340 -1.1148 -0.1115
 4268TIP3   OH234218   1.795   0.677  15.629 -0.4073 -0.3488  0.6978
 4268TIP3    H134219   1.830   0.589  15.644  0.7197  0.2984  2.1714
 4268TIP3    H234220   1.861   0.720  15.575 -1.1160 -0.4785 -0.3054
 4269TIP3   OH234221   1.773   4.076  15.300 -0.0375 -0.0725 -0.0495
 4269TIP3    H134222   1.695   4.128  15.283 -1.8438 -2.0966  1.4100
 4269TIP3    H234223   1.739   3.988  15.318  2.7071 -1.3551 -0.6368
 4270TIP3   OH234224   0.930   3.565   5.337  0.4826 -0.6384  0.3906
 4270TIP3    H134225   0.913   3.485   5.386 -1.9351  0.2364  1.0950
 4270TIP3    H234226   0.904   3.545   5.247  0.0453 -0.6877  0.5295
 4271TIP3   OH234227   2.631   4.642   1.239 -0.0337  0.0236 -0.8089
 4271TIP3    H134228   2.659   4.627   1.148  1.8876  0.1955 -0.2837
 4271TIP3    H234229   2.611   4.555   1.272  0.0966 -0.1332 -1.1353
 4272TIP3   OH234230   2.346   4.621   2.337 -0.0924  0.2385 -0.5238
 4272TIP3    H134231   2.364   4.602   2.245 -1.2461 -0.3127 -0.6603
 4272TIP3    H234232   2.279   4.690   2.334 -0.0959  0.2548 -0.1018
 4273TIP3   OH234233   0.056   3.000  13.734 -0.2183 -0.2582  0.1826
 4273TIP3    H134234   0.068   3.004  13.828  0.9059 -0.0842  0.0483
 4273TIP3    H234235   0.144   3.007  13.698 -0.7555  1.2170 -0.9400
 4274TIP3   OH234236   3.039   0.340  13.039 -0.3927 -0.2331 -0.1538
 4274TIP3    H134237   2.991   0.269  13.082 -0.5483 -0.7051 -1.0563
 4274TIP3    H234238   3.102   0.370  13.104  0.5387 -2.0565 -0.1421
 4275TIP3   OH234239   6.025   1.037   1.134  0.2684 -0.3088 -0.2495
 4275TIP3    H134240   5.931   1.052   1.132  0.2315  0.2906  2.2338
 4275TIP3    H234241   6.036   0.949   1.099 -1.0364  0.1363 -1.8986
 4276TIP3   OH234242   0.753   4.648   1.024 -0.2441 -0.1676 -0.2780
 4276TIP3    H134243   0.747   4.564   0.977 -2.0075 -0.7837  0.9393
 4276TIP3    H234244   0.776   4.624   1.113  0.6292  0.7930 -0.2233
 4277TIP3   OH234245   5.444   6.358   4.098  0.2358  0.2142  0.2041
 4277TIP3    H134246   5.409   6.271   4.120  1.3212 -0.2863  0.0186
 4277TIP3    H234247   5.378   6.396   4.040 -0.4608 -0.3064  0.6282
 4278TIP3   OH234248   0.152   3.717  15.681  0.1357  0.4771  0.0445
 4278TIP3    H134249   0.241   3.724  15.647  0.1854 -2.0330 -0.5340
 4278TIP3    H234250   0.162   3.669  15.764 -0.7238 -0.8489 -0.5834
 4279TIP3   OH234251   0.294   1.748  12.716 -1.1347  0.0603  0.1414
 4279TIP3    H134252   0.232   1.815  12.690  0.1627  1.0557 -0.4946
 4279TIP3    H234253   0.271   1.671  12.664 -0.8562  0.9097 -1.2770
 4280TIP3   OH234254   2.500   6.353   1.712  0.1319 -1.0025 -0.5820
 4280TIP3    H134255   2.514   6.434   1.663 -1.6889  0.9950  1.9196
 4280TIP3    H234256   2.575   6.348   1.771 -0.8936  0.2888  0.9250
 4281TIP3   OH234257   1.205   3.880   0.536 -0.1571 -0.4506  0.1982
 4281TIP3    H134258   1.238   3.825   0.607 -0.9431 -1.5814 -0.2632
 4281TIP3    H234259   1.261   3.957   0.536 -0.7330  0.0334  2.6502
 4282TIP3   OH234260   6.588   3.876   1.987 -0.0364 -0.0829 -0.5084
 4282TIP3    H134261   6.638   3.958   1.990 -1.1240  0.6142 -0.9697
 4282TIP3    H234262   6.539   3.880   1.905 -2.4512  0.2349  0.8463
 4283TIP3   OH234263   1.428   2.310   1.236  0.2888  0.8039  0.0874
 4283TIP3    H134264   1.413   2.257   1.158  0.1608  0.2002  0.5113
 4283TIP3    H234265   1.364   2.381   1.230  0.0287  0.5505 -0.1752
 4284TIP3   OH234266   2.645   1.352   4.158  0.6676 -0.0267 -0.0516
 4284TIP3    H134267   2.559   1.383   4.127  0.8937  0.5253 -0.1313
 4284TIP3    H234268   2.623   1.284   4.221  0.1733 -0.1875 -0.3849
 4285TIP3   OH234269   6.227   4.055  11.598 -0.1222 -0.1726 -0.8260
 4285TIP3    H134270   6.241   4.007  11.679  1.1723  3.6632  1.4897
 4285TIP3    H234271   6.132   4.054  11.586 -0.3600 -0.7500  0.8220
 4286TIP3   OH234272   0.375   4.019  14.825  0.2240  0.3210 -0.3995
 4286TIP3    H134273   0.388   4.030  14.731  1.0755  0.9449 -0.2206
 4286TIP3    H234274   0.347   4.105  14.856  2.0448  0.7382  0.2301
 4287TIP3   OH234275   0.916   4.695   4.563  0.0893  0.4207 -0.1956
 4287TIP3    H134276   0.866   4.667   4.640 -0.3533  1.9793  0.1252
 4287TIP3    H234277   0.877   4.649   4.490 -1.4994  1.2017  0.1198
 4288TIP3   OH234278   5.236   2.719   4.590  0.7405 -0.6898  0.0552
 4288TIP3    H134279   5.301   2.687   4.652  0.6615 -0.6571  0.1546
 4288TIP3    H234280   5.281   2.788   4.541  1.3169 -1.7936 -1.0212
 4289TIP3   OH234281   0.536   6.092   2.602 -0.3349 -0.5364 -0.6525
 4289TIP3    H134282   0.531   6.154   2.529  0.5758 -0.7156 -0.8747
 4289TIP3    H234283   0.629   6.079   2.617 -0.5006 -0.6228  0.4548
 4290TIP3   OH234284   6.194   0.357  14.097  0.3443 -0.4227 -0.2105
 4290TIP3    H134285   6.142   0.412  14.155 -0.3332  0.4457 -1.5778
 4290TIP3    H234286   6.255   0.417  14.054 -0.9612 -0.5154 -2.3390
 4291TIP3   OH234287   1.096   6.227   4.537  0.0968 -0.0952  0.0371
 4291TIP3    H134288   1.089   6.202   4.445  0.2837 -0.2840  0.0743
 4291TIP3    H234289   1.141   6.154   4.578  1.3354  0.6260  0.0078
 4292TIP3   OH234290   1.304   2.496   1.552 -0.7063 -0.2161 -0.1072
 4292TIP3    H134291   1.238   2.558   1.522  0.4663  0.4738 -1.3769
 4292TIP3    H234292   1.344   2.539   1.627 -1.2453 -0.3479  0.2628
 4293TIP3   OH234293   0.522   4.117  12.307 -0.5712  0.2058 -0.0614
 4293TIP3    H134294   0.474   4.121  12.225  0.0080 -3.0582 -0.6883
 4293TIP3    H234295   0.457   4.090  12.372 -0.5398  0.4974  0.0950
 4294TIP3   OH234296   5.898   4.396   9.896  0.2156  0.5087  0.1333
 4294TIP3    H134297   5.825   4.414   9.956 -0.1653  0.3369 -0.2742
 4294TIP3    H234298   5.924   4.306   9.916 -2.7707 -1.2764 -2.8367
 4295TIP3   OH234299   3.280   1.519  14.491  0.5133  0.3063 -0.0055
 4295TIP3    H134300   3.296   1.476  14.575  3.2429 -1.9061 -1.4777
 4295TIP3    H234301   3.202   1.476  14.456 -0.5002  1.0801  1.2263
 4296TIP3   OH234302   3.881   6.734   0.740  0.3873 -0.3010  0.0585
 4296TIP3    H134303   3.882   6.728   0.644 -0.1697 -0.2832  0.0479
 4296TIP3    H234304   3.955   6.790   0.761 -0.9911  1.8611 -0.5367
 4297TIP3   OH234305   3.114   1.419   3.556 -0.2952 -0.8577  0.3105
 4297TIP3    H134306   3.059   1.460   3.489 -0.5461 -1.6591  0.0156
 4297TIP3    H234307   3.064   1.428   3.637  0.1099  0.3181  0.4528
 4298TIP3   OH234308   2.848   0.082  13.454  0.9931  0.2839 -0.4465
 4298TIP3    H134309   2.785   0.022  13.416  2.0253 -0.2652 -1.3694
 4298TIP3    H234310   2.826   0.167  13.416 -0.9135  0.7041  1.4027
 4299TIP3   OH234311   0.556   5.165  12.596 -0.1600  0.0472 -0.1532
 4299TIP3    H134312   0.651   5.150  12.598 -0.1346 -0.0535 -1.4073
 4299TIP3    H234313   0.527   5.141  12.684  1.0479  0.6071  0.4258
 4300TIP3   OH234314   3.170   3.966   4.100 -0.0146  0.1545  0.1092
 4300TIP3    H134315   3.249   3.937   4.054 -0.8105 -0.0881 -1.1436
 4300TIP3    H234316   3.174   4.061   4.098  1.4553  0.2201  2.2374
 4301TIP3   OH234317   1.258   1.870  11.021  0.2214 -0.0614  0.8200
 4301TIP3    H134318   1.228   1.900  11.108  1.0307  3.1809  0.1326
 4301TIP3    H234319   1.197   1.912  10.960  0.1751 -1.6157 -0.2332
 4302TIP3   OH234320   1.671   4.425   3.160  0.3371 -0.0324  0.1595
 4302TIP3    H134321   1.725   4.424   3.081 -0.2782  0.3509 -0.2725
 4302TIP3    H234322   1.728   4.463   3.227  1.6865 -2.5602  0.5375
 4303TIP3   OH234323   6.537   0.402   4.900 -0.5028  0.1125 -0.7478
 4303TIP3    H134324   6.622   0.379   4.863 -1.2669  1.6953 -3.7878
 4303TIP3    H234325   6.481   0.419   4.824 -2.9801  1.1313  1.1602
 4304TIP3   OH234326   5.807   1.375  11.251 -0.3023  0.0724  0.0854
 4304TIP3    H134327   5.901   1.372  11.271 -0.5778  0.5509  1.5366
 4304TIP3    H234328   5.804   1.374  11.155  1.3446  3.1546 -0.1549
 4305TIP3   OH234329   4.573   5.120  15.830  0.4988  0.0130  0.4081
 4305TIP3    H134330   4.483   5.146  15.809 -1.1330 -2.8473  2.9698
 4305TIP3    H234331   4.613   5.100  15.746 -1.3824  1.0231 -0.7918
 4306TIP3   OH234332   0.486   1.306   0.209 -0.0744 -0.3705 -0.1832
 4306TIP3    H134333   0.408   1.340   0.254  1.1121  0.1907  1.5346
 4306TIP3    H234334   0.520   1.382   0.161  0.7188  0.0552  0.9992
 4307TIP3   OH234335   4.205   6.664  10.242 -0.5070  0.2277  0.5835
 4307TIP3    H134336   4.252   6.692  10.320 -0.5981 -0.1437  0.7714
 4307TIP3    H234337   4.165   6.745  10.208 -3.0328 -0.0362  2.6264
 4308TIP3   OH234338   0.839   6.744   1.957  0.2697 -0.1974 -0.4964
 4308TIP3    H134339   0.746   6.747   1.978  0.2998  3.1813 -0.2997
 4308TIP3    H234340   0.883   6.732   2.041  0.0861 -2.3857 -0.6518
 4309TIP3   OH234341   2.335   0.524   3.202 -0.5250  0.4684 -0.0661
 4309TIP3    H134342   2.419   0.567   3.218  0.7573 -1.9128  0.1337
 4309TIP3    H234343   2.294   0.577   3.134  0.7095  2.2088  0.4576
 4310TIP3   OH234344   6.288   2.500  13.366 -0.3659 -0.0159  0.6193
 4310TIP3    H134345   6.271   2.594  13.368 -1.0962 -0.1227  0.0225
 4310TIP3    H234346   6.206   2.461  13.336 -1.0778 -1.1233  3.6812
 4311TIP3   OH234347   2.153   3.136  10.462  0.0512  0.7064  0.2026
 4311TIP3    H134348   2.160   3.059  10.406 -2.1389  1.8543 -1.8012
 4311TIP3    H234349   2.063   3.164  10.453  0.5287  2.9549  1.6902
 4312TIP3   OH234350   1.313   0.123   5.217 -0.0888  0.2502 -0.2895
 4312TIP3    H134351   1.371   0.199   5.212  1.6680 -1.0790 -3.3098
 4312TIP3    H234352   1.359   0.063   5.277  0.1242  0.3676 -0.3324
 4313TIP3   OH234353   5.132   1.587  11.835  0.1401 -0.5150 -0.6520
 4313TIP3    H134354   5.089   1.563  11.917 -0.0596  0.0038 -0.6057
 4313TIP3    H234355   5.169   1.674  11.851  0.4922 -0.6002 -0.9642
 4314TIP3   OH234356   3.991   0.628  16.390 -0.3298  0.0735 -0.1411
 4314TIP3    H134357   4.046   0.558  16.353 -0.9699  0.5290 -2.0931
 4314TIP3    H234358   4.054   0.696  16.415  0.1020  0.3077 -1.7172
 4315TIP3   OH234359   1.402   0.458   0.730 -0.3148 -0.1232  0.6989
 4315TIP3    H134360   1.357   0.526   0.680  0.6180  0.2175  0.2977
 4315TIP3    H234361   1.464   0.505   0.785  1.9561 -0.6614 -1.1901
 4316TIP3   OH234362   6.767   5.221   0.311 -0.0431 -0.0130  0.0511
 4316TIP3    H134363   6.762   5.196   0.403  0.3642  2.3332  0.7623
 4316TIP3    H234364   6.687   5.271   0.295 -0.5071 -1.0798 -1.1260
 4317TIP3   OH234365   5.569   0.054  14.734  0.2523 -0.7235 -0.2214
 4317TIP3    H134366   5.518  -0.023  14.756 -0.1842 -0.6633 -0.9816
 4317TIP3    H234367   5.635   0.060  14.803  2.4946 -3.7157 -1.8423
 4318TIP3   OH234368   5.597   6.293   5.206  0.0788 -0.5337  0.1998
 4318TIP3    H134369   5.633   6.363   5.151  2.2339  0.4411  2.6136
 4318TIP3    H234370   5.502   6.302   5.197  0.3352  0.2779 -2.4110
 4319TIP3   OH234371   5.519   2.809   5.308  0.6606  0.2480 -0.2966
 4319TIP3    H134372   5.438   2.769   5.277  0.4911  0.3628 -0.0123
 4319TIP3    H234373   5.573   2.817   5.230 -0.3576  1.9748 -0.8981
 4320TIP3   OH234374   2.961   4.563   6.146 -0.4194  0.1951 -0.1866
 4320TIP3    H134375   2.937   4.481   6.190 -0.4869 -0.5831 -1.5857
 4320TIP3    H234376   3.019   4.608   6.207 -0.9867 -0.5416  0.9277
 4321TIP3   OH234377   6.262   3.215  14.940 -0.0887  0.2162  0.5845
 4321TIP3    H134378   6.248   3.207  14.846 -0.2248 -0.5774  0.6607
 4321TIP3    H234379   6.182   3.255  14.973 -0.2059  0.1261  0.4116
 4322TIP3   OH234380   0.823   3.221  15.322 -0.4958  0.4763 -0.1266
 4322TIP3    H134381   0.877   3.295  15.350 -0.8541 -0.0182  2.1072
 4322TIP3    H234382   0.856   3.147  15.373 -2.0102 -0.2693 -0.1693
 4323TIP3   OH234383   2.181   2.015   2.967  0.4501 -0.4752  0.1867
 4323TIP3    H134384   2.162   1.922   2.964  0.6178 -0.5005 -3.0089
 4323TIP3    H234385   2.266   2.024   2.924 -0.0155  1.2161 -0.4770
 4324TIP3   OH234386   4.943   1.192  15.869  0.0869 -0.1563  0.2969
 4324TIP3    H134387   5.014   1.128  15.865 -0.3198 -0.6923  1.4037
 4324TIP3    H234388   4.868   1.146  15.830  0.3132  0.4012 -0.8535
 4325TIP3   OH234389   0.020   2.089   1.394 -0.1811  0.3666 -0.9783
 4325TIP3    H134390   0.101   2.120   1.434  0.9811 -2.1156 -1.2587
 4325TIP3    H234391  -0.008   2.016   1.449 -2.9577  1.8516 -0.1938
 4326TIP3   OH234392   6.493   2.344  15.484  0.0099  0.2042 -0.1944
 4326TIP3    H134393   6.470   2.396  15.561  1.5817  2.0748 -0.9043
 4326TIP3    H234394   6.480   2.404  15.410 -0.6623 -1.2852 -1.3455
 4327TIP3   OH234395   5.385   6.630   2.295 -0.0054 -0.4917  0.6191
 4327TIP3    H134396   5.363   6.537   2.286 -2.4396 -0.0557  1.4310
 4327TIP3    H234397   5.314   6.667   2.347  0.5983  1.9593 -0.1537
 4328TIP3   OH234398   2.871   2.570   6.541 -0.3330  0.9765  0.0882
 4328TIP3    H134399   2.797   2.604   6.492  0.9466  0.8302 -2.0788
 4328TIP3    H234400   2.856   2.476   6.545 -1.9590  1.2507  2.7644
 4329TIP3   OH234401   3.384   3.964  14.836 -0.1463 -0.1316  0.2855
 4329TIP3    H134402   3.317   4.003  14.893  0.2870  3.3200 -1.2922
 4329TIP3    H234403   3.335   3.933  14.759 -0.1527  1.4772 -0.4146
 4330TIP3   OH234404   6.320   4.706  15.490  0.1178  0.4348  0.0612
 4330TIP3    H134405   6.349   4.795  15.512 -0.2835  0.4501  0.5659
 4330TIP3    H234406   6.309   4.707  15.395 -0.8981  1.2472  0.1714
 4331TIP3   OH234407   1.981   4.975  14.240  0.0553  0.1580 -0.5123
 4331TIP3    H134408   2.009   5.066  14.229  0.7780  0.2148  1.4019
 4331TIP3    H234409   1.978   4.940  14.151 -2.2845  2.5880 -1.5339
 4332TIP3   OH234410   1.877   5.241   0.403 -0.4418  0.2067 -0.5380
 4332TIP3    H134411   1.826   5.163   0.380  1.5599 -0.8445 -1.7050
 4332TIP3    H234412   1.811   5.309   0.419 -2.2516 -1.6652  0.4179
 4333TIP3   OH234413   4.365   1.234  11.206  0.3582  0.1520  0.0126
 4333TIP3    H134414   4.342   1.192  11.123  0.5237  0.1193 -0.0162
 4333TIP3    H234415   4.301   1.199  11.269  0.9885 -0.7498  0.1637
 4334TIP3   OH234416   4.567   1.320  14.064  0.2882  0.2901  0.0815
 4334TIP3    H134417   4.546   1.353  14.151  0.2916  2.1457 -0.5972
 4334TIP3    H234418   4.539   1.228  14.066  0.3674  0.2631  2.0457
 4335TIP3   OH234419   2.994   2.513   1.101  0.0886  0.1261  0.2729
 4335TIP3    H134420   3.021   2.424   1.080  0.0515 -0.5077  2.6034
 4335TIP3    H234421   2.940   2.540   1.027 -1.4750 -2.5231  0.3158
 4336TIP3   OH234422   1.861   5.166  16.054 -0.5062 -0.6941 -0.5049
 4336TIP3    H134423   1.791   5.184  16.116  0.3358 -0.1964  0.3356
 4336TIP3    H234424   1.848   5.075  16.028 -0.9397 -0.8749  0.3200
 4337TIP3   OH234425   4.779   5.614   5.128  0.0778 -0.4072 -0.4926
 4337TIP3    H134426   4.771   5.670   5.050 -1.2353 -0.2206 -0.2466
 4337TIP3    H234427   4.770   5.525   5.093 -1.5876 -0.2840 -0.4641
 4338TIP3   OH234428   0.234   3.492   2.006  0.4382 -0.3134  0.0467
 4338TIP3    H134429   0.183   3.552   2.061 -0.8663 -0.8167 -0.5580
 4338TIP3    H234430   0.293   3.549   1.956 -0.2223  0.3976  0.0584
 4339TIP3   OH234431   4.061   6.368   4.816  0.2175  0.3389 -0.0207
 4339TIP3    H134432   4.140   6.421   4.828  0.5138  0.0433 -0.6352
 4339TIP3    H234433   3.993   6.414   4.867  0.6707  0.8414  0.1356
 4340TIP3   OH234434   3.555   6.539  11.900  0.0612  0.7006  0.6845
 4340TIP3    H134435   3.471   6.508  11.935 -0.3821 -0.3230 -1.1488
 4340TIP3    H234436   3.583   6.469  11.841  2.3870  0.8870  1.4781
 4341TIP3   OH234437   0.391   6.485   4.026 -0.6198  0.1519  0.2908
 4341TIP3    H134438   0.460   6.477   4.092  1.4966 -0.4812 -1.8511
 4341TIP3    H234439   0.415   6.563   3.976 -2.3108  0.7554  0.3554
 4342TIP3   OH234440   5.090   4.234   5.376 -0.4725 -0.0437  0.0032
 4342TIP3    H134441   5.078   4.144   5.406  0.4032 -0.3821 -0.6145
 4342TIP3    H234442   5.181   4.237   5.344 -0.7140  0.8631 -0.6412
 4343TIP3   OH234443   4.393   4.640   4.939 -0.0602  0.4119 -0.3103
 4343TIP3    H134444   4.396   4.729   4.974 -2.2777  0.3149  0.3180
 4343TIP3    H234445   4.483   4.619   4.917  0.7406  2.2357  0.9984
 4344TIP3   OH234446   2.396   3.603   3.142  0.4264 -0.1226 -0.7680
 4344TIP3    H134447   2.358   3.681   3.100  0.2514 -0.1301 -0.6244
 4344TIP3    H234448   2.321   3.554   3.174  0.5683 -0.0404 -0.3069
 4345TIP3   OH234449   6.518   1.839  16.427 -0.7109 -0.9096 -0.6870
 4345TIP3    H134450   6.537   1.932  16.412  0.0113 -0.9678 -0.2289
 4345TIP3    H234451   6.462   1.813  16.355  1.2653 -0.7855 -2.3617
 4346TIP3   OH234452   6.128   0.860  14.491  0.3192  0.0860  0.3977
 4346TIP3    H134453   6.102   0.888  14.403 -0.2578 -0.2761  0.4448
 4346TIP3    H234454   6.058   0.892  14.548  1.1201  1.0674  0.8521
 4347TIP3   OH234455   6.819   0.782  11.593  0.0422 -0.5700 -0.0313
 4347TIP3    H134456   6.894   0.761  11.537  0.5063 -0.2105  0.4457
 4347TIP3    H234457   6.815   0.710  11.656  1.5255  0.5977  1.4931
 4348TIP3   OH234458   0.221   3.225   3.146  0.1813 -0.2300  0.3522
 4348TIP3    H134459   0.297   3.215   3.203  0.1789 -0.8681  0.2585
 4348TIP3    H234460   0.247   3.292   3.082  0.6812 -0.4728  0.2939
 4349TIP3   OH234461   6.190   3.276   9.590  0.0149 -0.3725  0.8045
 4349TIP3    H134462   6.186   3.368   9.564  1.2770 -0.9247 -1.6540
 4349TIP3    H234463   6.249   3.274   9.664  1.2346  0.6552 -0.0969
 4350TIP3   OH234464   2.568   0.971   1.037  0.3576 -0.2744  0.1230
 4350TIP3    H134465   2.598   1.060   1.056  0.0647 -0.1206 -0.1341
 4350TIP3    H234466   2.522   0.978   0.954  0.8268 -0.7768 -0.1867
 4351TIP3   OH234467   5.211   5.816   4.117 -0.1638 -0.2747  0.4008
 4351TIP3    H134468   5.175   5.801   4.205 -0.0778  1.7666  0.8385
 4351TIP3    H234469   5.292   5.767   4.115  0.8022  1.1105  2.2046
 4352TIP3   OH234470   4.661   5.140   2.050  0.4197  0.7430 -0.3927
 4352TIP3    H134471   4.750   5.119   2.021  0.4376  2.0476 -1.4361
 4352TIP3    H234472   4.605   5.082   1.999  0.7083 -1.5576  1.7634
 4353TIP3   OH234473   6.384   0.989   2.893  0.2824  0.3139 -0.5857
 4353TIP3    H134474   6.448   0.942   2.840  0.2978 -0.6002  0.2050
 4353TIP3    H234475   6.313   0.926   2.907  0.4167  0.4189  0.7092
 4354TIP3   OH234476   4.293   0.066  14.822 -0.1652 -0.1236 -0.1002
 4354TIP3    H134477   4.384   0.042  14.809  0.0798  0.8769 -0.3006
 4354TIP3    H234478   4.245   0.012  14.759  0.2400 -0.9104  0.2484
 4355TIP3   OH234479   5.933   5.136  14.552 -0.2013 -0.3456  0.0645
 4355TIP3    H134480   5.863   5.146  14.617  0.9636 -1.5918  1.5735
 4355TIP3    H234481   5.918   5.208  14.491 -2.9765 -0.7370  0.1437
 4356TIP3   OH234482   1.142   2.414  11.450 -0.0406  0.2540  0.4568
 4356TIP3    H134483   1.191   2.496  11.450 -0.7130  0.7085 -1.7876
 4356TIP3    H234484   1.187   2.359  11.385 -1.5909  0.1330 -0.5576
 4357TIP3   OH234485   6.078   2.608   4.732 -0.1062  0.9066  0.6522
 4357TIP3    H134486   6.073   2.690   4.683  0.6635  0.2928 -0.5078
 4357TIP3    H234487   6.167   2.576   4.716 -0.8179 -0.8201 -0.0420
 4358TIP3   OH234488   0.494   3.576  14.515  0.1674  0.5414  0.0169
 4358TIP3    H134489   0.583   3.549  14.536 -0.1829 -0.1127  0.7160
 4358TIP3    H234490   0.440   3.502  14.542 -0.6965  1.3808  0.6561
 4359TIP3   OH234491   3.757   2.895  12.639 -0.2309  0.2361  0.6465
 4359TIP3    H134492   3.688   2.920  12.576  1.0422  0.8232 -0.5773
 4359TIP3    H234493   3.838   2.901  12.589  0.7642 -0.0976  2.1533
 4360TIP3   OH234494   5.044   0.754   4.549 -0.9419  0.5497  0.4886
 4360TIP3    H134495   5.053   0.665   4.516 -0.8720 -0.0864  2.1109
 4360TIP3    H234496   5.133   0.786   4.558 -0.8895  0.1607  1.4543
 4361TIP3   OH234497   3.325   5.147   0.888  0.4541  0.4679  0.2857
 4361TIP3    H134498   3.265   5.220   0.876  0.6882  1.0127  2.1117
 4361TIP3    H234499   3.408   5.187   0.915  1.1089 -0.3889 -0.3754
 4362TIP3   OH234500   6.091   6.642  14.884  0.2003  0.3990 -0.2673
 4362TIP3    H134501   6.139   6.673  14.961  0.9411 -0.8754 -0.1945
 4362TIP3    H234502   6.027   6.580  14.919 -0.8224  1.2874 -0.4851
 4363TIP3   OH234503   6.873   3.276  10.923  0.2453  0.1857 -0.4274
 4363TIP3    H134504   6.871   3.181  10.913  1.5966  0.0039  0.7962
 4363TIP3    H234505   6.944   3.293  10.984  0.2501  2.0207 -0.8749
 4364TIP3   OH234506   3.042   6.645   0.347  0.4073  0.2808  0.3149
 4364TIP3    H134507   3.063   6.739   0.346  2.7892 -0.1739 -0.9282
 4364TIP3    H234508   2.947   6.642   0.358  0.3290  2.7981  1.1331
 4365TIP3   OH234509   5.927   3.728  13.831  0.7021 -0.3120 -0.6796
 4365TIP3    H134510   5.896   3.812  13.864  0.5666 -0.1083 -1.3035
 4365TIP3    H234511   5.884   3.663  13.887  2.1209  0.0527  0.9065
 4366TIP3   OH234512   0.788   5.646   1.969  0.2500 -0.3404  0.1943
 4366TIP3    H134513   0.806   5.696   1.890 -1.0229 -2.8675 -1.8464
 4366TIP3    H234514   0.861   5.666   2.027  1.7235  0.9164 -1.9524
 4367TIP3   OH234515   0.706   6.548  15.255  0.2201 -0.4413  0.4941
 4367TIP3    H134516   0.662   6.468  15.286  0.3852 -0.5283  0.5066
 4367TIP3    H234517   0.786   6.516  15.213  1.2204 -0.1773  2.1057
 4368TIP3   OH234518   4.823   0.443   2.386 -0.1656 -0.3009  0.5452
 4368TIP3    H134519   4.741   0.422   2.430 -1.0405 -0.6491 -1.1594
 4368TIP3    H234520   4.879   0.367   2.403 -0.0927  0.0413  1.9066
 4369TIP3   OH234521   6.598   4.923   1.894  0.0050 -0.4596  0.4760
 4369TIP3    H134522   6.566   4.844   1.937 -0.4361 -1.3950 -1.4209
 4369TIP3    H234523   6.673   4.892   1.842 -0.3688  0.2707 -0.5396
 4370TIP3   OH234524   1.826   6.407  12.734  0.2470 -0.2492 -0.4757
 4370TIP3    H134525   1.860   6.320  12.757  0.8977  0.0959 -0.1167
 4370TIP3    H234526   1.736   6.390  12.705  0.0877 -0.9414  0.3767
 4371TIP3   OH234527   0.086   3.069   4.725 -0.3666 -0.3318  0.3002
 4371TIP3    H134528   0.090   3.069   4.821 -1.3817 -1.6434  0.3601
 4371TIP3    H234529  -0.007   3.081   4.705 -0.6518 -3.2446 -0.4504
 4372TIP3   OH234530   0.269   5.559  16.185  0.4170 -0.4877  0.0715
 4372TIP3    H134531   0.266   5.643  16.230  0.7040 -0.3420 -0.1811
 4372TIP3    H234532   0.347   5.563  16.130  0.7585 -1.1424  0.4921
 4373TIP3   OH234533   6.752   0.548   2.598 -0.0206 -0.2596  0.2139
 4373TIP3    H134534   6.666   0.538   2.558  0.2600 -1.6007 -0.0853
 4373TIP3    H234535   6.813   0.515   2.532  0.5301 -1.6138  1.3663
 4374TIP3   OH234536   5.489   1.433   3.387  0.0033 -0.1908  0.0084
 4374TIP3    H134537   5.510   1.407   3.297 -1.2588 -0.4995 -0.2096
 4374TIP3    H234538   5.395   1.447   3.387  0.1420  0.8657  1.0331
 4375TIP3   OH234539   5.590   3.672  13.530  0.4097 -0.0319 -0.8808
 4375TIP3    H134540   5.583   3.577  13.534 -0.0898  0.0397  0.3514
 4375TIP3    H234541   5.502   3.702  13.507  0.3023  0.1657 -0.2448
 4376TIP3   OH234542   0.367   0.348  16.090  0.1688  0.3868 -0.0590
 4376TIP3    H134543   0.347   0.256  16.108  1.3812 -0.0341 -0.7579
 4376TIP3    H234544   0.451   0.363  16.134  0.4611  0.8723 -0.7728
 4377TIP3   OH234545   1.993   0.570   5.740  0.0781 -0.1290  0.0149
 4377TIP3    H134546   1.970   0.486   5.702 -0.5565 -0.2353  0.6262
 4377TIP3    H234547   1.925   0.630   5.709 -1.4659 -0.5611  2.2775
 4378TIP3   OH234548   1.901   3.389   6.280  0.4388 -0.5144  0.0628
 4378TIP3    H134549   1.920   3.326   6.350 -0.9248 -2.4740 -1.2166
 4378TIP3    H234550   1.975   3.380   6.220 -0.6310 -2.4553 -1.0845
 4379TIP3   OH234551   5.099   1.907  13.457  0.1562  0.2319 -0.3791
 4379TIP3    H134552   5.111   1.813  13.460 -0.5368  0.0504 -2.2695
 4379TIP3    H234553   5.008   1.919  13.429 -0.1536  1.4879  1.0157
 4380TIP3   OH234554   6.510   2.913   2.296  0.8931  0.5605 -0.1347
 4380TIP3    H134555   6.578   2.907   2.229 -0.2005 -0.0355 -1.2355
 4380TIP3    H234556   6.479   2.822   2.308  1.9689  0.4305  2.1791
 4381TIP3   OH234557   4.256   2.269  14.142 -0.6650  0.3036  0.4362
 4381TIP3    H134558   4.271   2.243  14.233  2.7101 -1.5070 -0.4633
 4381TIP3    H234559   4.290   2.358  14.136 -0.9188  0.4369  0.9454
 4382TIP3   OH234560   2.401   4.116  16.086  0.2489  0.1295 -0.3086
 4382TIP3    H134561   2.365   4.146  16.003 -2.0526 -1.8025 -0.0950
 4382TIP3    H234562   2.466   4.050  16.062 -1.6912 -1.7686 -0.6530
 4383TIP3   OH234563   2.538   4.807  14.850  0.6466  0.1127 -0.0664
 4383TIP3    H134564   2.566   4.721  14.819 -1.3414 -0.8637  0.6926
 4383TIP3    H234565   2.574   4.814  14.938  1.0081  0.1510 -0.2193
 4384TIP3   OH234566   3.159   5.370  12.983 -0.2905 -0.8919  0.0613
 4384TIP3    H134567   3.071   5.407  12.982  0.1334  0.1484 -1.4622
 4384TIP3    H234568   3.208   5.421  12.918  2.1351  0.1816  2.5601
 4385TIP3   OH234569   3.764   6.034  10.698  0.2205 -0.3075  0.7801
 4385TIP3    H134570   3.813   6.071  10.772 -0.0943 -1.6732  1.7189
 4385TIP3    H234571   3.688   5.993  10.739 -1.5203  1.3764 -0.5866
 4386TIP3   OH234572   0.195   2.611   1.023 -0.2498  0.2976 -0.2096
 4386TIP3    H134573   0.180   2.521   0.994  1.1996 -0.5448  1.3865
 4386TIP3    H234574   0.280   2.634   0.986  0.8337 -0.1858  1.8079
 4387TIP3   OH234575   0.425   0.860  14.029 -0.0306 -0.3190 -0.3456
 4387TIP3    H134576   0.435   0.783  14.084  0.0458 -0.7343 -0.9274
 4387TIP3    H234577   0.468   0.931  14.078  0.7920 -0.8630 -0.2620
 4388TIP3   OH234578   1.228   2.015  10.318  0.2188  0.2986 -0.1051
 4388TIP3    H134579   1.237   2.078  10.246  0.0815  0.8272  0.3314
 4388TIP3    H234580   1.144   1.973  10.301  1.0326 -0.9299 -1.2906
 4389TIP3   OH234581   0.571   4.996  15.510  0.3146 -0.2393 -0.0425
 4389TIP3    H134582   0.531   4.990  15.597  0.6894 -0.1362  0.1392
 4389TIP3    H234583   0.580   5.090  15.494 -1.0034 -0.2130 -0.7787
 4390TIP3   OH234584   5.602   4.639  10.941 -0.5569  0.4972  0.1459
 4390TIP3    H134585   5.600   4.733  10.961 -0.6894  0.6445 -0.5259
 4390TIP3    H234586   5.676   4.605  10.992  0.3652  1.2289 -0.6626
 4391TIP3   OH234587   0.093   5.644   1.489 -0.0987  0.3082  0.6275
 4391TIP3    H134588   0.042   5.688   1.421 -0.2126  1.8743  1.6505
 4391TIP3    H234589   0.030   5.626   1.559 -0.3208 -2.6979 -0.2153
 4392TIP3   OH234590   5.282   6.058  11.356  0.3737 -0.1279  0.0022
 4392TIP3    H134591   5.358   6.007  11.384  1.3019  0.4889 -1.2843
 4392TIP3    H234592   5.262   6.024  11.269  1.2691  1.9058 -1.0704
 4393TIP3   OH234593   5.122   2.884  12.859 -0.4181 -0.1472 -0.0342
 4393TIP3    H134594   5.125   2.852  12.769  1.2575  1.8188 -0.7607
 4393TIP3    H234595   5.148   2.809  12.912 -0.2757 -1.0224 -1.2976
 4394TIP3   OH234596   5.792   0.309  10.428 -0.1248  0.2873 -0.3548
 4394TIP3    H134597   5.740   0.389  10.424  1.0927  1.2204  1.2938
 4394TIP3    H234598   5.868   0.328  10.372  0.2391  0.3627  0.1580
 4395TIP3   OH234599   0.891   5.974  14.518  0.0939 -0.2185  0.7042
 4395TIP3    H134600   0.913   5.897  14.466  2.9671  0.8414  0.1474
 4395TIP3    H234601   0.838   6.028  14.459  0.1749 -0.6847  0.1945
 4396TIP3   OH234602   4.873   2.099   0.094 -0.0990 -0.6975  0.2009
 4396TIP3    H134603   4.968   2.099   0.106 -0.1719 -0.1088  0.8519
 4396TIP3    H234604   4.860   2.152   0.015  0.0406  0.4362  0.9164
 4397TIP3   OH234605   3.296   1.080   0.857  0.3304 -0.5720 -0.1543
 4397TIP3    H134606   3.267   1.051   0.944 -2.1569 -2.8847 -1.5988
 4397TIP3    H234607   3.352   1.008   0.825 -2.0844 -1.7880 -1.9526
 4398TIP3   OH234608   1.209   4.082  16.680 -0.3119 -0.0545  0.4281
 4398TIP3    H134609   1.215   4.047  16.769 -2.1493  0.3968  0.7686
 4398TIP3    H234610   1.232   4.174  16.689  0.9258 -0.3234  0.1646
 4399TIP3   OH234611   1.976   3.247  14.339  0.0030 -0.4500  0.5571
 4399TIP3    H134612   1.932   3.187  14.398 -3.5203  1.1383 -0.1666
 4399TIP3    H234613   1.967   3.333  14.380  0.8915  0.1786 -0.4964
 4400TIP3   OH234614   0.023   0.718   5.441  0.8474 -0.1635 -0.0090
 4400TIP3    H134615  -0.048   0.748   5.384  2.4012 -0.1182 -2.0242
 4400TIP3    H234616   0.039   0.791   5.500 -2.5597 -1.1534  2.4455
 4401TIP3   OH234617   2.592   2.368  14.553  0.1035  0.5076 -0.3277
 4401TIP3    H134618   2.625   2.453  14.525  1.4932  0.9119  2.1549
 4401TIP3    H234619   2.526   2.388  14.619 -0.1291 -0.3411 -0.2841
 4402TIP3   OH234620   4.203   4.068   4.874 -0.1964  0.2816 -0.1565
 4402TIP3    H134621   4.198   4.128   4.799 -0.2818  0.8913  0.3339
 4402TIP3    H234622   4.168   4.118   4.947  1.9764  0.5078  0.8171
 4403TIP3   OH234623   4.080   0.766  14.476  0.4022  0.0565 -0.3231
 4403TIP3    H134624   4.025   0.711  14.531 -0.2578  0.5145 -0.5069
 4403TIP3    H234625   4.160   0.779  14.526  0.9433 -1.7720 -0.6370
 4404TIP3   OH234626   4.790   2.032   2.008 -0.2258  0.1776 -1.0492
 4404TIP3    H134627   4.805   1.953   1.956 -1.0551 -0.3968 -0.4284
 4404TIP3    H234628   4.696   2.031   2.027 -0.3350  1.5405 -1.3997
 4405TIP3   OH234629   2.696   5.834  15.004 -0.4953 -0.2290  0.0698
 4405TIP3    H134630   2.678   5.740  14.997  3.6333 -1.3695  1.4923
 4405TIP3    H234631   2.691   5.852  15.098  0.3048  0.5306 -0.0213
 4406TIP3   OH234632   6.692   6.279  12.244  0.0325  0.0288  0.6541
 4406TIP3    H134633   6.621   6.215  12.256  1.2592 -1.2526  1.4755
 4406TIP3    H234634   6.771   6.230  12.265  0.9458  2.1486  2.6340
 4407TIP3   OH234635   1.524   3.883   2.453 -0.2179  0.2023 -0.2392
 4407TIP3    H134636   1.551   3.969   2.422 -0.9002  0.1002 -1.1566
 4407TIP3    H234637   1.544   3.824   2.380 -0.1625 -0.3409  0.2112
 4408TIP3   OH234638   2.266   3.423   4.628 -0.3666  0.0826  0.0116
 4408TIP3    H134639   2.234   3.489   4.689 -0.7109  1.1594 -1.2789
 4408TIP3    H234640   2.190   3.401   4.574  0.2311  0.1189 -0.8634
 4409TIP3   OH234641   6.519   5.715  10.535  0.0667  0.7533  0.1587
 4409TIP3    H134642   6.518   5.793  10.479 -1.4372  0.7660  0.1748
 4409TIP3    H234643   6.556   5.745  10.618  0.0224  1.3167 -0.0254
 4410TIP3   OH234644   4.019   6.741  13.517  0.2730  1.0911 -1.0217
 4410TIP3    H134645   3.935   6.748  13.563  1.0424  3.5076  0.1921
 4410TIP3    H234646   4.013   6.805  13.446  0.6352  0.3280 -1.7625
 4411TIP3   OH234647   3.949   1.244  14.271  0.4261  0.2234 -0.6592
 4411TIP3    H134648   3.960   1.338  14.286 -1.2265  0.3707 -0.2546
 4411TIP3    H234649   4.038   1.213  14.253  0.9711  1.9048 -1.1118
 4412TIP3   OH234650   4.208   1.235  13.053  0.6701 -0.1997  0.0837
 4412TIP3    H134651   4.190   1.183  12.975  1.1600  1.3623 -1.1255
 4412TIP3    H234652   4.258   1.176  13.110  1.3643 -1.0085 -1.3031
 4413TIP3   OH234653   5.330   3.644  11.246 -0.6671  0.4089 -0.1401
 4413TIP3    H134654   5.323   3.550  11.261 -1.2710  0.3943 -0.4927
 4413TIP3    H234655   5.273   3.684  11.312  1.4564  0.6826  1.6513
 4414TIP3   OH234656   5.236   5.239   2.718 -0.4989  0.3745  0.6420
 4414TIP3    H134657   5.306   5.178   2.741 -1.0296 -0.4277  0.1892
 4414TIP3    H234658   5.208   5.276   2.801  0.8579  1.1726  0.7745
 4415TIP3   OH234659   4.067   2.225  13.282  0.1772  0.1113  0.4820
 4415TIP3    H134660   4.077   2.167  13.205 -0.1600 -0.3271  0.7637
 4415TIP3    H234661   4.100   2.173  13.355  0.6474  0.5899  0.6190
 4416TIP3   OH234662   0.161   1.428   1.927 -0.5263  0.0527 -0.0772
 4416TIP3    H134663   0.115   1.373   1.864  1.1806  1.2359 -2.5618
 4416TIP3    H234664   0.214   1.368   1.979 -1.8241 -0.9433  0.1278
 4417TIP3   OH234665   4.440   1.391  15.125 -0.2812  0.2891  0.3160
 4417TIP3    H134666   4.407   1.408  15.037  0.5712  2.4683  0.3631
 4417TIP3    H234667   4.528   1.427  15.126  0.2011 -0.8158  1.7118
 4418TIP3   OH234668   4.591   1.231   2.041 -0.2309  1.2069 -0.0672
 4418TIP3    H134669   4.497   1.215   2.045 -0.0541  0.1740  0.5357
 4418TIP3    H234670   4.619   1.231   2.133  0.5483  0.1153 -0.2837
 4419TIP3   OH234671   1.689   6.744  15.251 -0.5859 -0.2216  0.5835
 4419TIP3    H134672   1.686   6.696  15.168 -0.1025 -1.0783  1.0429
 4419TIP3    H234673   1.670   6.834  15.227 -2.0941 -0.7205 -0.2346
 4420TIP3   OH234674   0.185   0.088  12.047  0.2962  0.0721  0.3730
 4420TIP3    H134675   0.138   0.006  12.063 -0.6168  0.5981  0.4755
 4420TIP3    H234676   0.242   0.069  11.973  1.6360 -1.2474  1.6804
 4421TIP3   OH234677   5.426   4.392   5.113 -0.3720 -0.0548 -0.0575
 4421TIP3    H134678   5.390   4.474   5.079 -1.3266 -0.6821 -0.6106
 4421TIP3    H234679   5.373   4.372   5.189 -0.1662 -0.1850  0.0514
 4422TIP3   OH234680   6.186   5.965   2.295  0.1178 -0.1992 -0.0095
 4422TIP3    H134681   6.180   5.944   2.388 -0.0922  0.5627  0.1496
 4422TIP3    H234682   6.166   5.882   2.251  0.9351 -0.7441  0.6189
 4423TIP3   OH234683   5.934   3.019   5.949  0.6543 -0.3415 -0.2257
 4423TIP3    H134684   5.839   3.028   5.943  0.7248  0.9252  0.1146
 4423TIP3    H234685   5.960   3.083   6.016  1.7548 -0.6145 -0.3669
 4424TIP3   OH234686   0.816   4.411  15.717 -0.0282 -0.4170 -0.2051
 4424TIP3    H134687   0.877   4.338  15.730 -0.0827 -0.6730 -1.3346
 4424TIP3    H234688   0.758   4.407  15.793 -0.8295 -2.3620 -0.8572
 4425TIP3   OH234689   6.457   2.945   9.768  0.3574  0.2287 -0.4297
 4425TIP3    H134690   6.537   2.904   9.799 -0.4508 -1.2801 -0.2435
 4425TIP3    H234691   6.487   3.015   9.710  1.8201  0.9702  1.1485
 4426TIP3   OH234692   1.472   5.551   3.584 -0.4284  0.1278  0.0127
 4426TIP3    H134693   1.413   5.600   3.642 -0.3733 -0.9886  1.0635
 4426TIP3    H234694   1.557   5.556   3.626 -0.3254 -0.4604 -0.1176
 4427TIP3   OH234695   0.646   2.694  13.779  0.2140  0.2670 -0.4257
 4427TIP3    H134696   0.633   2.649  13.696  0.6467 -1.1146  0.2192
 4427TIP3    H234697   0.558   2.713  13.810  0.0279  0.1347 -0.8637
 4428TIP3   OH234698   5.637   2.232  11.871 -0.5082 -0.3271 -0.0535
 4428TIP3    H134699   5.638   2.244  11.966  2.9578 -1.1860  0.1460
 4428TIP3    H234700   5.588   2.152  11.857 -1.8826  0.3096  0.8730
 4429TIP3   OH234701   4.683   6.762   2.417  0.2646 -0.6508  0.3221
 4429TIP3    H134702   4.687   6.681   2.468 -0.2612 -0.2745  0.9801
 4429TIP3    H234703   4.632   6.822   2.471  0.6889  0.1426 -0.1306
 4430TIP3   OH234704   5.755   5.819  15.498  0.2585 -0.0342  0.5275
 4430TIP3    H134705   5.749   5.876  15.422 -0.9120  0.8493  1.2377
 4430TIP3    H234706   5.721   5.735  15.468  0.6732  0.0338 -0.1552
 4431TIP3   OH234707   4.283   0.020   3.016 -0.1565  0.2586  0.2335
 4431TIP3    H134708   4.355   0.080   3.037 -0.1081 -0.2261  1.5988
 4431TIP3    H234709   4.315  -0.031   2.942  0.7170  0.4032  0.4921
 4432TIP3   OH234710   1.632   0.960   0.032 -0.2736 -0.1114 -0.3889
 4432TIP3    H134711   1.658   0.894  -0.032  0.0893 -1.2031  0.8626
 4432TIP3    H234712   1.536   0.961   0.027 -0.4308 -2.3781  1.1477
 4433TIP3   OH234713   0.280   2.902  14.728 -0.0819 -0.6104 -0.4721
 4433TIP3    H134714   0.285   2.823  14.782  1.9448 -1.1368 -1.3392
 4433TIP3    H234715   0.352   2.957  14.758 -1.6185  1.0772  0.2940
 4434TIP3   OH234716   2.574   5.436  16.338  0.2434  0.6332  0.6869
 4434TIP3    H134717   2.567   5.429  16.243 -0.3990 -0.4781  0.7950
 4434TIP3    H234718   2.633   5.366  16.363 -2.2569 -1.3480  1.3813
 4435TIP3   OH234719   4.760   4.809  11.152 -0.2338 -0.2020 -0.1243
 4435TIP3    H134720   4.836   4.825  11.208  0.5814  0.3259 -1.3592
 4435TIP3    H234721   4.765   4.715  11.132 -0.6586 -0.4432  0.8475
 4436TIP3   OH234722   5.463   4.188   3.976 -0.1994  0.3166  0.2111
 4436TIP3    H134723   5.533   4.132   3.941  0.0644  0.4165  0.5714
 4436TIP3    H234724   5.500   4.276   3.974 -1.1078  0.7129 -1.6652
 4437TIP3   OH234725   5.984   1.193  13.200  0.3081  0.4045 -0.0127
 4437TIP3    H134726   5.988   1.098  13.211 -0.1035  0.5249  1.2808
 4437TIP3    H234727   5.965   1.205  13.107 -2.4314 -0.8766  0.2894
 4438TIP3   OH234728   6.839   1.791   1.207 -0.1131 -0.2446 -0.2460
 4438TIP3    H134729   6.841   1.724   1.139  0.3402  0.5287 -1.0145
 4438TIP3    H234730   6.904   1.763   1.272 -0.5740 -1.0014 -0.0989
 4439TIP3   OH234731   5.417   2.226  12.396  0.0202 -0.0750 -0.7716
 4439TIP3    H134732   5.339   2.195  12.350  0.5768 -0.9074 -1.1834
 4439TIP3    H234733   5.410   2.186  12.483  0.6478 -1.2722 -1.2448
 4440TIP3   OH234734   6.707   0.375   3.204  0.0828  0.0994 -0.2888
 4440TIP3    H134735   6.801   0.390   3.215  0.9346 -1.9068 -3.5722
 4440TIP3    H234736   6.673   0.457   3.169  0.2992  1.2021  1.8998
 4441TIP3   OH234737   3.063   6.107  11.848  0.2853 -0.5516 -0.0938
 4441TIP3    H134738   3.013   6.067  11.777  0.5951 -1.7390  0.3401
 4441TIP3    H234739   2.997   6.137  11.911  0.0823 -3.4865  1.2240
 4442TIP3   OH234740   1.483   5.273  14.770 -0.3998 -0.0096  0.2935
 4442TIP3    H134741   1.553   5.335  14.753 -0.5199  0.3486  1.0800
 4442TIP3    H234742   1.428   5.315  14.836 -0.4115 -1.0025  0.9402
 4443TIP3   OH234743   1.631   2.941  11.551  0.2544  0.3338 -0.2919
 4443TIP3    H134744   1.571   2.866  11.555  0.3038  0.3292  0.5889
 4443TIP3    H234745   1.709   2.906  11.509  0.0331  0.0667 -0.4916
 4444TIP3   OH234746   1.840   6.563  15.396 -0.0001  0.0300 -0.3707
 4444TIP3    H134747   1.815   6.642  15.348 -0.1021 -0.6799 -1.5053
 4444TIP3    H234748   1.842   6.494  15.330  0.1742 -0.9074  0.5915
 4445TIP3   OH234749   5.223   3.857   0.109 -0.8845 -0.2413  0.5330
 4445TIP3    H134750   5.195   3.822   0.193  0.1402 -2.0525  0.1592
 4445TIP3    H234751   5.311   3.891   0.124 -0.1864 -1.7061 -0.0441
 4446TIP3   OH234752   0.096   6.623   2.653  0.4376 -0.2454 -0.0063
 4446TIP3    H134753   0.150   6.671   2.715 -0.8277  0.7859  0.3412
 4446TIP3    H234754   0.022   6.590   2.704  0.2930 -0.9351 -0.6228
 4447TIP3   OH234755   1.480   6.317  11.794 -0.3534 -0.1588  0.1341
 4447TIP3    H134756   1.424   6.303  11.870  1.5258  0.0595  1.6561
 4447TIP3    H234757   1.555   6.366  11.829 -0.5494  2.1488 -2.3543
 4448TIP3   OH234758   4.865   2.203   3.085 -0.2950  0.1063  0.1127
 4448TIP3    H134759   4.845   2.167   3.171  0.8598  1.8847  1.2008
 4448TIP3    H234760   4.945   2.254   3.098  1.0943 -1.1547 -2.4733
 4449TIP3   OH234761   1.570   5.758   3.408  0.3715  0.3336 -0.4044
 4449TIP3    H134762   1.545   5.670   3.380 -0.6485 -0.0750  1.6096
 4449TIP3    H234763   1.661   5.750   3.436  0.3748 -0.0141 -0.5128
 4450TIP3   OH234764   0.710   3.164   2.553 -0.1520 -0.3791  0.1595
 4450TIP3    H134765   0.644   3.163   2.483 -0.8222  1.1677  0.7107
 4450TIP3    H234766   0.752   3.250   2.544  0.6068 -0.6683  0.8903
 4451TIP3   OH234767   6.590   0.035  15.433  0.5338  0.0392 -0.7001
 4451TIP3    H134768   6.668  -0.021  15.439  0.1281 -0.4100  3.2025
 4451TIP3    H234769   6.522  -0.014  15.480 -0.8062  2.3080 -0.1046
 4452TIP3   OH234770   6.590   1.845  12.407 -0.2267  0.2813 -0.4398
 4452TIP3    H134771   6.612   1.881  12.321  1.1347  0.9067  0.1351
 4452TIP3    H234772   6.497   1.827  12.402 -0.1840  0.3368 -2.0364
 4453TIP3   OH234773   6.731   4.784  16.093 -0.3555 -0.0684  0.1141
 4453TIP3    H134774   6.684   4.707  16.060 -0.4386  0.5472 -1.2694
 4453TIP3    H234775   6.663   4.835  16.137 -0.4894 -0.3392  0.2269
 4454TIP3   OH234776   1.160   1.846  15.254  0.1368  0.3870 -0.2309
 4454TIP3    H134777   1.116   1.790  15.191 -1.0366  1.4277 -0.3581
 4454TIP3    H234778   1.091   1.877  15.312  1.0560  0.2026  0.9914
 4455TIP3   OH234779   4.415   1.290   0.039  0.1106  0.3125 -0.2386
 4455TIP3    H134780   4.345   1.303  -0.025 -0.6398 -2.1710  0.0075
 4455TIP3    H234781   4.486   1.249  -0.011  0.8401  1.4354 -0.1594
 4456TIP3   OH234782   6.642   5.964   1.263 -0.3000 -0.4490 -0.7802
 4456TIP3    H134783   6.709   5.997   1.202 -0.3326 -2.4586 -2.0001
 4456TIP3    H234784   6.559   5.988   1.222 -0.4106  1.7926  0.5933
 4457TIP3   OH234785   0.980   1.936  14.113 -0.8473 -0.0341  0.5539
 4457TIP3    H134786   0.976   1.880  14.035 -1.7179  0.7825 -0.0157
 4457TIP3    H234787   0.996   2.024  14.079  1.2485 -0.0014  1.4844
 4458TIP3   OH234788   2.706   3.219   5.824  0.9284 -0.2327  0.5672
 4458TIP3    H134789   2.719   3.124   5.811 -0.9856 -0.2383 -2.0410
 4458TIP3    H234790   2.652   3.225   5.903  0.4665 -1.3580  0.3583
 4459TIP3   OH234791   2.757   1.230   2.993 -0.3398  0.0711 -0.4619
 4459TIP3    H134792   2.688   1.200   2.935 -1.0251  1.7763 -0.5879
 4459TIP3    H234793   2.756   1.168   3.066 -0.1156 -1.5205 -1.7563
 4460TIP3   OH234794   1.201   6.273  14.465  0.5325 -0.0155  0.2273
 4460TIP3    H134795   1.294   6.266  14.485  0.6803 -2.6249 -0.9605
 4460TIP3    H234796   1.164   6.188  14.490 -1.2793  0.4771 -0.5550
 4461TIP3   OH234797   6.868   2.013   4.980 -0.0165  0.2325  0.4119
 4461TIP3    H134798   6.842   1.957   5.053 -1.0293 -1.7848 -1.3504
 4461TIP3    H234799   6.963   2.023   4.989  0.0945 -1.2326  1.1833
 4462TIP3   OH234800   6.351   6.234  12.846 -0.2756 -0.7513 -0.0558
 4462TIP3    H134801   6.271   6.184  12.829  0.3150 -1.9501  0.5807
 4462TIP3    H234802   6.321   6.324  12.857 -1.5401 -1.1772  0.1545
 4463TIP3   OH234803   5.965   5.139   1.155 -0.6286  0.3904 -0.4657
 4463TIP3    H134804   5.878   5.178   1.143 -0.4816  0.3147 -1.9264
 4463TIP3    H234805   5.975   5.081   1.080  0.3217 -0.3041  0.1805
 4464TIP3   OH234806   2.080   3.143   3.212  0.5537  0.2422  0.0464
 4464TIP3    H134807   2.076   3.065   3.157  2.8362  0.2591 -0.2191
 4464TIP3    H234808   2.043   3.213   3.157  0.5318 -0.2232 -0.5412
 4465TIP3   OH234809   6.187   6.451  16.207 -0.1514  0.3166  0.1834
 4465TIP3    H134810   6.111   6.398  16.230  0.4741 -0.1855  1.1720
 4465TIP3    H234811   6.261   6.407  16.249  0.6568  0.9362 -0.5356
 4466TIP3   OH234812   3.715   5.685  13.460  0.2229 -0.2961 -0.1461
 4466TIP3    H134813   3.750   5.647  13.379 -0.8916  0.5109 -1.0268
 4466TIP3    H234814   3.785   5.742  13.492 -0.1289  1.1235 -1.7622
 4467TIP3   OH234815   3.489   5.396   0.965 -0.7261  0.3870 -0.5954
 4467TIP3    H134816   3.582   5.378   0.952 -0.6775  0.6351 -0.5916
 4467TIP3    H234817   3.479   5.488   0.941 -0.7667  0.6523  0.4051
 4468TIP3   OH234818   4.624   1.303  16.545 -0.0107 -0.1786 -0.2698
 4468TIP3    H134819   4.674   1.230  16.509  0.9985  0.6575 -0.6161
 4468TIP3    H234820   4.586   1.346  16.468  0.7801  0.6291 -0.2306
 4469TIP3   OH234821   0.648   4.551  15.143 -0.5525  0.5365 -0.2765
 4469TIP3    H134822   0.666   4.627  15.198 -0.4042  2.4288 -2.7711
 4469TIP3    H234823   0.553   4.547  15.138 -0.5766  0.1461  0.3421
 4470TIP3   OH234824   0.222   0.041   5.577 -0.0407 -0.1748  0.2576
 4470TIP3    H134825   0.162   0.041   5.651 -1.1976  0.3755 -0.6281
 4470TIP3    H234826   0.276   0.119   5.589 -0.8426  0.4243  0.0746
 4471TIP3   OH234827   2.541   3.266   0.339 -0.5886 -0.1712 -0.3625
 4471TIP3    H134828   2.529   3.361   0.337  1.5054  0.2353  1.5141
 4471TIP3    H234829   2.614   3.253   0.400  1.3926 -2.7803 -2.9849
 4472TIP3   OH234830   1.563   4.301   3.439  0.3621  0.4071  0.2533
 4472TIP3    H134831   1.592   4.380   3.393  1.1831  0.2931  0.5673
 4472TIP3    H234832   1.550   4.236   3.369  0.6061  0.5371  0.0869
 4473TIP3   OH234833   2.403   6.589  14.405  0.3772 -0.5687  0.1082
 4473TIP3    H134834   2.450   6.637  14.474 -1.0902 -0.9377  1.4258
 4473TIP3    H234835   2.358   6.658  14.356  1.1610 -0.3284 -0.2895
 4474TIP3   OH234836   0.303   5.717  11.199 -0.5859  0.1111 -0.2871
 4474TIP3    H134837   0.389   5.718  11.241 -0.5172  3.8822 -0.1583
 4474TIP3    H234838   0.249   5.662  11.256  1.2305 -0.7275  0.7150
 4475TIP3   OH234839   4.658   1.429  12.249 -0.1857  0.2021  0.3011
 4475TIP3    H134840   4.734   1.374  12.265 -0.9140 -1.5986 -1.8907
 4475TIP3    H234841   4.692   1.502  12.197  0.4249  0.7626  1.4485
 4476TIP3   OH234842   6.444   1.418  13.087 -0.0494 -0.1670  0.3880
 4476TIP3    H134843   6.378   1.371  13.036  0.5226 -0.5355 -0.0273
 4476TIP3    H234844   6.400   1.499  13.114 -0.9668 -0.8302  0.9170
 4477TIP3   OH234845   1.501   4.669  11.738  0.6267  0.0627  0.5664
 4477TIP3    H134846   1.409   4.657  11.712  1.0074  0.1311 -0.8925
 4477TIP3    H234847   1.499   4.737  11.806 -0.2905  0.8792 -0.2564
 4478TIP3   OH234848   4.811   6.057  12.532 -0.0434 -0.0615  0.3755
 4478TIP3    H134849   4.823   6.143  12.491  1.3610 -0.9702 -1.2408
 4478TIP3    H234850   4.791   6.077  12.624  3.2197  1.9528  0.8023
 4479TIP3   OH234851   3.175   6.617   4.207 -0.1158 -0.5344 -0.0082
 4479TIP3    H134852   3.191   6.711   4.196 -0.6019 -0.3741  0.5740
 4479TIP3    H234853   3.240   6.589   4.272 -1.5536 -0.0480  1.7515
 4480TIP3   OH234854   0.297   0.395  13.611 -0.1783 -0.3631 -0.4027
 4480TIP3    H134855   0.347   0.442  13.544  0.3129 -0.5529 -0.1802
 4480TIP3    H234856   0.364   0.361  13.671 -0.6503  0.6510  0.7483
 4481TIP3   OH234857   2.546   0.393   0.151 -0.1820 -0.4045 -0.2226
 4481TIP3    H134858   2.537   0.328   0.220 -0.8206  1.2637  1.3524
 4481TIP3    H234859   2.625   0.368   0.103 -0.9426 -2.8448 -0.3005
 4482TIP3   OH234860   2.602   1.773   0.452  0.6439 -0.0254 -0.2455
 4482TIP3    H134861   2.629   1.689   0.414  0.0659  0.4646 -1.8169
 4482TIP3    H234862   2.533   1.750   0.514  1.5094 -0.8438  0.4452
 4483TIP3   OH234863   5.584   6.468  15.312  0.5273  0.3899 -0.4479
 4483TIP3    H134864   5.584   6.521  15.232  0.4688  2.3874  0.8164
 4483TIP3    H234865   5.533   6.519  15.375 -0.0685 -1.4897  0.6656
 4484TIP3   OH234866   0.079   1.614  11.361 -0.6571  0.1080 -0.1767
 4484TIP3    H134867   0.078   1.704  11.393 -0.9736 -0.0225  0.1939
 4484TIP3    H234868   0.122   1.564  11.430  3.5271  0.5665 -2.1308
 4485TIP3   OH234869   5.444   6.112   9.829 -0.0817  0.2937 -0.1576
 4485TIP3    H134870   5.525   6.095   9.878  0.0929 -0.8059 -0.7840
 4485TIP3    H234871   5.386   6.039   9.852 -0.5939  0.6382 -0.3369
 4486TIP3   OH234872   6.777   4.050  11.173  0.3242 -0.8426 -0.1607
 4486TIP3    H134873   6.865   4.081  11.196  0.0805 -0.0447 -0.2547
 4486TIP3    H234874   6.788   4.009  11.087  0.6431 -0.9261 -0.0809
 4487TIP3   OH234875   5.056   2.177   5.365 -1.0640  0.1042 -0.0587
 4487TIP3    H134876   5.090   2.247   5.420 -1.3765  0.3666 -0.1967
 4487TIP3    H234877   4.976   2.214   5.326 -0.2144  0.3487 -1.6289
 4488TIP3   OH234878   4.386   0.196  11.675  0.3052  0.3252  0.7554
 4488TIP3    H134879   4.464   0.144  11.695 -0.3078  0.3323  3.6751
 4488TIP3    H234880   4.419   0.284  11.657  1.1730 -0.4474 -1.8245
 4489TIP3   OH234881   2.645   2.014  10.833 -0.2044 -0.5479  0.4910
 4489TIP3    H134882   2.727   2.035  10.877 -1.2132 -0.0267  2.1814
 4489TIP3    H234883   2.602   2.098  10.821 -1.0979 -0.9526  0.8357
 4490TIP3   OH234884   6.801   2.316  14.790  0.5502  0.4845  0.0743
 4490TIP3    H134885   6.846   2.399  14.809  1.6170 -0.1895  0.5336
 4490TIP3    H234886   6.708   2.337  14.799  0.6892  2.0848 -1.5819
 4491TIP3   OH234887   0.080   1.361   2.607 -0.1022  0.5044  0.0792
 4491TIP3    H134888   0.039   1.447   2.610  1.1499  1.1025  1.4167
 4491TIP3    H234889   0.008   1.299   2.619 -0.7937  1.4486  1.0016
 4492TIP3   OH234890   0.974   0.896  11.050  0.5573  0.2588  0.0606
 4492TIP3    H134891   0.930   0.981  11.054 -2.2066 -1.0026 -1.0498
 4492TIP3    H234892   0.934   0.852  10.975  0.7901 -2.5794  1.4611
 4493TIP3   OH234893   2.266   3.226   0.268  0.0311 -1.2095  0.5768
 4493TIP3    H134894   2.215   3.221   0.350 -0.0790 -0.3354  0.5704
 4493TIP3    H234895   2.357   3.234   0.297  0.0476 -1.4734  0.6027
 4494TIP3   OH234896   3.583   6.184  15.338  0.7671  0.0894 -1.1602
 4494TIP3    H134897   3.664   6.154  15.297 -0.8077 -2.7173 -2.5691
 4494TIP3    H234898   3.517   6.175  15.269 -1.9034 -4.0394  1.4923
 4495TIP3   OH234899   6.850   1.694  12.537  0.3059  0.1517 -0.7063
 4495TIP3    H134900   6.932   1.727  12.501  0.4477 -0.2496 -0.7529
 4495TIP3    H234901   6.782   1.743  12.489  0.5149  1.0320 -0.1318
 4496TIP3   OH234902   3.789   5.121  13.684 -0.4673  0.9015 -0.2265
 4496TIP3    H134903   3.721   5.104  13.619 -1.1331  1.9714  0.1732
 4496TIP3    H234904   3.798   5.216  13.686  0.1937  0.8334  0.5925
 4497TIP3   OH234905   1.916   5.276   2.803  0.4405  0.1302 -0.7126
 4497TIP3    H134906   2.007   5.256   2.780  0.2029 -0.1187 -1.4703
 4497TIP3    H234907   1.877   5.190   2.823  0.5082  0.2907  0.1617
 4498TIP3   OH234908   2.761   0.391   4.331 -0.4374 -0.0329 -0.3615
 4498TIP3    H134909   2.724   0.478   4.348 -1.3595 -1.0634  4.2801
 4498TIP3    H234910   2.706   0.331   4.382  2.0163 -2.9402 -0.8388
 4499TIP3   OH234911   4.306   3.085   5.374 -0.0073  0.5299  0.4185
 4499TIP3    H134912   4.357   3.042   5.307 -0.6470 -2.0400  1.4772
 4499TIP3    H234913   4.357   3.076   5.454 -1.1531 -0.2517  1.0888
 4500TIP3   OH234914   3.298   4.978  10.873  0.0725 -0.2063  0.7273
 4500TIP3    H134915   3.257   5.047  10.925  0.0278  0.0969  0.2872
 4500TIP3    H234916   3.354   4.931  10.936  0.0492  0.1862  1.0411
 4501TIP3   OH234917   5.220   1.661   4.942  0.4287  0.2650 -0.1948
 4501TIP3    H134918   5.228   1.653   5.037 -0.6973  1.3447  0.0152
 4501TIP3    H234919   5.307   1.639   4.909  0.4515 -1.5421  0.9704
 4502TIP3   OH234920   4.696   6.784   4.232  0.0012 -0.5013 -0.2394
 4502TIP3    H134921   4.760   6.825   4.175  0.1195 -1.3180 -0.7064
 4502TIP3    H234922   4.684   6.846   4.304  2.2574 -0.8887  0.5247
 4503TIP3   OH234923   3.173   1.811  12.071  0.4641 -0.1419  0.3766
 4503TIP3    H134924   3.207   1.859  12.146 -0.3867 -1.4077  1.6300
 4503TIP3    H234925   3.176   1.719  12.097 -0.3632 -0.5767 -0.9284
 4504TIP3   OH234926   4.316   5.388  14.391  0.6221 -0.4735 -0.8021
 4504TIP3    H134927   4.315   5.447  14.466 -1.8580 -1.9379  0.4381
 4504TIP3    H234928   4.400   5.342  14.398 -0.1714 -1.6930  2.0877
 4505TIP3   OH234929   0.457   0.009  15.141  0.2434 -0.9421 -0.1182
 4505TIP3    H134930   0.464   0.019  15.046  1.6922 -0.1860  0.0380
 4505TIP3    H234931   0.365  -0.013  15.156  0.2015 -2.0807 -1.7664
 4506TIP3   OH234932   6.449   3.313   1.722 -0.0822  0.2311 -0.2332
 4506TIP3    H134933   6.379   3.368   1.757  0.8564  2.0225 -1.0119
 4506TIP3    H234934   6.415   3.224   1.727 -2.3513  1.0243 -0.4445
 4507TIP3   OH234935   1.208   0.705   1.235  0.4747 -0.0873 -0.2994
 4507TIP3    H134936   1.290   0.716   1.283 -0.1140  0.4096  0.6245
 4507TIP3    H234937   1.192   0.790   1.195  1.9413 -0.9871 -3.0770
 4508TIP3   OH234938   5.305   0.285   1.206  0.3108  0.4528  0.4057
 4508TIP3    H134939   5.291   0.209   1.262 -1.0529  1.2729  1.2304
 4508TIP3    H234940   5.303   0.250   1.117  1.3324 -0.6932  0.8164
 4509TIP3   OH234941   3.158   4.531   2.868 -0.8423 -0.1909 -1.0116
 4509TIP3    H134942   3.069   4.529   2.834 -0.9434  2.2391 -1.0877
 4509TIP3    H234943   3.200   4.603   2.821  0.7496 -0.4320 -0.0410
 4510TIP3   OH234944   0.606   4.222   0.036  0.2214 -0.0060 -0.2213
 4510TIP3    H134945   0.514   4.210   0.062  0.1881  0.9721  0.1561
 4510TIP3    H234946   0.601   4.286  -0.036  0.4385 -1.5407 -1.6703
 4511TIP3   OH234947   6.082   0.400  16.622 -0.6564  0.6592 -0.5024
 4511TIP3    H134948   6.049   0.385  16.534  0.6331  1.7155 -1.1927
 4511TIP3    H234949   6.018   0.459  16.662 -1.5395 -0.2594 -0.5002
 4512TIP3   OH234950   5.291   6.210   1.107  0.3954 -0.3811  0.7131
 4512TIP3    H134951   5.365   6.163   1.145 -0.7679 -1.7146  1.3851
 4512TIP3    H234952   5.256   6.151   1.040  0.3491  0.5418 -0.1050
 4513TIP3   OH234953   4.719   5.775  14.243  0.2715  0.5296 -0.4710
 4513TIP3    H134954   4.792   5.748  14.300 -0.7991  0.3338  0.8568
 4513TIP3    H234955   4.670   5.694  14.229 -1.2245  1.1298  0.9646
 4514TIP3   OH234956   3.906   6.143  14.635  0.2487 -0.1694 -0.7802
 4514TIP3    H134957   3.980   6.101  14.679  1.2560  0.5482 -1.7554
 4514TIP3    H234958   3.847   6.071  14.614  0.7839 -0.7864 -0.2284
 4515TIP3   OH234959   5.283   6.076   4.433 -0.0536 -0.2246 -0.1369
 4515TIP3    H134960   5.213   6.034   4.483  0.2830  0.5943  1.0753
 4515TIP3    H234961   5.303   6.156   4.483  1.7994 -0.4779 -0.3939
 4516TIP3   OH234962   4.760   5.569   5.903  0.0189 -0.0836 -0.1434
 4516TIP3    H134963   4.824   5.587   5.972  0.1950 -1.0230 -0.0479
 4516TIP3    H234964   4.786   5.627   5.831  0.8847 -0.3309 -0.0472
 4517TIP3   OH234965   0.887   4.092  14.477 -0.0010  0.9503  0.1431
 4517TIP3    H134966   0.832   4.021  14.443  0.1130  1.3299 -0.8811
 4517TIP3    H234967   0.975   4.055  14.480 -0.0065  0.9253 -0.0073
 4518TIP3   OH234968   3.492   4.391   0.447  0.0734  0.1645 -0.4085
 4518TIP3    H134969   3.506   4.342   0.528 -1.0505  1.4403  0.6161
 4518TIP3    H234970   3.547   4.469   0.457  1.1567 -0.3971 -1.6204
 4519TIP3   OH234971   6.149   5.618   4.491 -0.2312 -0.6086  0.1330
 4519TIP3    H134972   6.212   5.646   4.424  0.0816 -0.4543  0.4869
 4519TIP3    H234973   6.125   5.529   4.465  0.4067 -0.8057  0.1862
 4520TIP3   OH234974   0.804   0.141  10.631  0.1067  0.5249 -0.2740
 4520TIP3    H134975   0.892   0.107  10.643 -0.7544 -2.1631 -0.7956
 4520TIP3    H234976   0.768   0.089  10.559 -2.3601  0.5608  0.8420
 4521TIP3   OH234977   6.882   5.791  11.475  0.1935  0.1803 -0.3707
 4521TIP3    H134978   6.810   5.762  11.530  1.0423 -4.2534 -1.2007
 4521TIP3    H234979   6.957   5.796  11.534 -0.2349  2.8212  0.0977
 4522TIP3   OH234980   5.176   4.506  15.016 -0.2750 -0.2861  0.0616
 4522TIP3    H134981   5.116   4.439  14.982 -0.7272  0.2283 -0.1625
 4522TIP3    H234982   5.263   4.477  14.987 -0.0865 -2.2108  2.2153
 4523TIP3   OH234983   0.056   3.938  16.568 -0.9514  0.9671  0.5467
 4523TIP3    H134984   0.053   4.023  16.524 -1.3321  0.4008 -0.5528
 4523TIP3    H234985   0.141   3.902  16.545 -0.8386  0.9934  0.9159
 4524TIP3   OH234986   6.561   1.430  11.693 -1.0959 -0.4190  0.6565
 4524TIP3    H134987   6.542   1.516  11.656 -0.7610 -0.0630  1.3069
 4524TIP3    H234988   6.493   1.417  11.759 -0.2732 -0.0177  1.5839
 4525TIP3   OH234989   4.391   4.656  12.071 -0.1802  0.1342 -0.1249
 4525TIP3    H134990   4.306   4.668  12.028  0.3655  0.2576 -1.2002
 4525TIP3    H234991   4.451   4.634  12.000  0.7610  0.3655  0.5803
 4526TIP3   OH234992   6.424   0.395  11.884 -0.1640  0.3661 -0.3913
 4526TIP3    H134993   6.382   0.328  11.829  0.7481  0.5646 -1.3754
 4526TIP3    H234994   6.362   0.468  11.885 -0.1729  0.3905 -1.2601
 4527TIP3   OH234995   1.214   4.005  12.473 -0.1807 -0.3268 -0.2779
 4527TIP3    H134996   1.267   4.085  12.469 -0.3960 -0.1673  0.0143
 4527TIP3    H234997   1.272   3.940  12.512 -0.4660  0.0842  0.9050
 4528TIP3   OH234998   1.330   6.523  14.380  0.3080 -0.2004  0.5117
 4528TIP3    H134999   1.273   6.450  14.356 -1.5842  1.3843 -0.1275
 4528TIP3    H235000   1.355   6.563  14.297  0.5588  0.4146  0.8734
 4529TIP3   OH235001   2.458   0.140  14.683 -0.4717 -0.2234  0.2312
 4529TIP3    H135002   2.372   0.166  14.651  0.2537  1.4593 -0.4267
 4529TIP3    H235003   2.468   0.187  14.766 -0.1030 -0.2574  0.2065
 4530TIP3   OH235004   6.537   6.368  15.095 -0.1804  0.6608 -0.1892
 4530TIP3    H135005   6.476   6.436  15.064  1.2937  1.4467 -1.5118
 4530TIP3    H235006   6.613   6.376  15.037  2.0677  1.0732  2.6204
 4531TIP3   OH235007   1.201   0.763  13.544  0.0530 -0.1037  0.2403
 4531TIP3    H135008   1.225   0.698  13.609  0.1134  1.0851  1.4519
 4531TIP3    H235009   1.254   0.741  13.467  1.2512 -0.5286  1.1623
 4532TIP3   OH235010   6.434   3.299   4.891 -0.4449 -0.0263 -0.2234
 4532TIP3    H135011   6.349   3.279   4.851 -0.6806  1.4932 -0.5186
 4532TIP3    H235012   6.477   3.214   4.898 -0.6107 -0.4512 -3.1986
 4533TIP3   OH235013   3.084   3.478  14.739 -0.3238 -0.2668 -0.3151
 4533TIP3    H135014   3.036   3.419  14.797  1.8697 -0.3775  1.5479
 4533TIP3    H235015   3.124   3.542  14.799  0.7572  0.5695 -1.8722
 4534TIP3   OH235016   2.721   6.839   0.943  0.9813 -0.2283 -0.0292
 4534TIP3    H135017   2.751   6.750   0.962  0.9249 -0.1425  0.4647
 4534TIP3    H235018   2.628   6.829   0.924  0.5129 -0.0441  1.9184
 4535TIP3   OH235019   5.631   3.282   1.865  0.3284 -0.5117  0.1514
 4535TIP3    H135020   5.553   3.242   1.903  0.9542 -2.2185 -0.2513
 4535TIP3    H235021   5.697   3.213   1.869  1.6718  0.7138 -0.0181
 4536TIP3   OH235022   4.484   5.536   0.792  0.6855  0.3755  0.4031
 4536TIP3    H135023   4.493   5.536   0.697 -1.5804  1.0268  0.1443
 4536TIP3    H235024   4.466   5.444   0.815 -2.4830  0.7188 -0.2901
 4537TIP3   OH235025   6.852   1.240  12.470 -0.1716  0.0721 -0.0966
 4537TIP3    H135026   6.877   1.206  12.556  0.3023  0.2586 -0.1591
 4537TIP3    H235027   6.762   1.269  12.481 -0.8514 -1.8563 -0.2294
 4538TIP3   OH235028   2.708   3.412  11.596 -0.0617 -0.0593  0.1959
 4538TIP3    H135029   2.769   3.347  11.630  1.2301  0.6704 -0.6213
 4538TIP3    H235030   2.651   3.433  11.670  1.0109 -0.3989  1.1392
 4539TIP3   OH235031   0.184   6.163   4.913 -0.0409 -0.2072 -0.2854
 4539TIP3    H135032   0.187   6.079   4.867  0.4444  0.2991 -1.2074
 4539TIP3    H235033   0.229   6.224   4.854  0.0436  0.5939  0.5890
 4540TIP3   OH235034   1.601   4.057   5.787  0.1288 -0.0424 -0.0898
 4540TIP3    H135035   1.614   3.991   5.854  2.0380  0.3989  0.0234
 4540TIP3    H235036   1.648   4.134   5.819  0.2917  0.4776 -1.4824
 4541TIP3   OH235037   5.787   2.881  14.209 -0.2787  0.3774 -0.2074
 4541TIP3    H135038   5.751   2.952  14.262 -2.1888 -0.6767  0.0263
 4541TIP3    H235039   5.801   2.919  14.122 -3.9455  0.4835 -0.9157
 4542TIP3   OH235040   5.432   5.242   5.346  0.3238 -0.0698  0.0871
 4542TIP3    H135041   5.461   5.178   5.282  0.9023  0.3878 -0.1060
 4542TIP3    H235042   5.512   5.274   5.387  0.0723  0.8989 -0.1681
 4543TIP3   OH235043   2.567   1.445   5.184 -0.5348  0.7761  1.0360
 4543TIP3    H135044   2.593   1.536   5.199  1.7852  0.5066 -0.7857
 4543TIP3    H235045   2.511   1.448   5.107  1.8651  0.4939 -0.8449
 4544TIP3   OH235046   1.379   2.561  16.377 -0.0626 -0.2927  0.2352
 4544TIP3    H135047   1.423   2.519  16.303  0.7093 -0.8511  0.9878
 4544TIP3    H235048   1.449   2.577  16.440 -0.7146  0.1349  0.8640
 4545TIP3   OH235049   6.083   4.666  15.613 -0.4634 -0.4987  0.3999
 4545TIP3    H135050   6.026   4.640  15.540 -2.8818  2.4586  1.0266
 4545TIP3    H235051   6.163   4.696  15.571 -0.4674 -2.0073 -0.7591
 4546TIP3   OH235052   4.464   5.307   3.494  0.1737  0.3277  0.1914
 4546TIP3    H135053   4.403   5.381   3.491 -1.1819 -0.7718 -0.4074
 4546TIP3    H235054   4.474   5.281   3.402 -0.3991 -1.0262  0.4861
 4547TIP3   OH235055   6.236   4.343   5.772 -0.5504 -0.1720 -0.1208
 4547TIP3    H135056   6.262   4.435   5.763 -1.9318  0.1341 -1.2690
 4547TIP3    H235057   6.161   4.346   5.831 -0.6270 -0.5799 -0.1995
 4548TIP3   OH235058   2.284   6.618   4.957  0.3137 -0.1378  0.2455
 4548TIP3    H135059   2.259   6.541   4.906  1.1743 -0.0702 -0.3039
 4548TIP3    H235060   2.365   6.649   4.916  0.8652  0.1062  1.4548
 4549TIP3   OH235061   0.727   5.108   4.893  0.3713  0.0791  0.5014
 4549TIP3    H135062   0.806   5.113   4.947 -1.2423  2.1230  2.9240
 4549TIP3    H235063   0.702   5.200   4.880 -1.0934 -0.5066 -1.0322
 4550TIP3   OH235064   2.821   1.971   4.174 -0.1572  0.4387 -0.4689
 4550TIP3    H135065   2.729   1.949   4.183 -0.1964  0.5876 -0.5037
 4550TIP3    H235066   2.832   1.996   4.083  0.1682 -0.7094 -0.7567
 4551TIP3   OH235067   5.780   0.543   0.399 -0.6724 -0.3317 -0.2790
 4551TIP3    H135068   5.761   0.591   0.318  1.1545  2.0218  0.5481
 4551TIP3    H235069   5.800   0.612   0.463 -0.4525 -2.1640  1.7330
 4552TIP3   OH235070   3.645   6.339  13.817  0.0038 -0.4173 -0.1335
 4552TIP3    H135071   3.673   6.379  13.735  0.0077  0.8751  0.4777
 4552TIP3    H235072   3.585   6.403  13.856 -0.4079 -1.2403  0.6256
 4553TIP3   OH235073   3.355   1.103  11.216 -0.2424 -0.0359 -0.0563
 4553TIP3    H135074   3.298   1.100  11.293  2.8569  1.3273  2.5407
 4553TIP3    H235075   3.346   1.193  11.184 -0.5530 -0.2214 -0.4938
 4554TIP3   OH235076   3.429   5.682  15.995 -0.0018 -0.5462  0.0635
 4554TIP3    H135077   3.486   5.686  16.072 -1.3041  1.7572  1.0000
 4554TIP3    H235078   3.460   5.752  15.938  1.1608 -2.4457 -1.7657
 4555TIP3   OH235079   5.280   0.714   5.952  0.2622 -0.2155  0.1710
 4555TIP3    H135080   5.209   0.732   6.014 -0.6285  0.3529 -0.9712
 4555TIP3    H235081   5.267   0.623   5.926  0.6800 -0.4788  0.8307
 4556TIP3   OH235082   1.921   6.131   1.075 -0.4250  0.1042 -0.0848
 4556TIP3    H135083   1.973   6.121   0.995  0.1668  2.3162 -0.0428
 4556TIP3    H235084   1.831   6.143   1.043 -0.4391 -0.6134 -0.3233
 4557TIP3   OH235085   3.552   4.750   4.492 -0.1378  0.2869  0.0706
 4557TIP3    H135086   3.632   4.790   4.459 -0.2571 -0.1084 -0.7201
 4557TIP3    H235087   3.494   4.747   4.416 -0.7621  0.2206  0.5449
 4558TIP3   OH235088   3.270   3.906   5.511 -0.1303 -0.1954 -0.2187
 4558TIP3    H135089   3.252   3.927   5.420  1.6540 -0.3502 -0.6458
 4558TIP3    H235090   3.277   3.991   5.555  1.6340  0.0069 -0.8104
 4559TIP3   OH235091   3.213   0.539  16.240 -0.2922  0.4532 -0.3180
 4559TIP3    H135092   3.307   0.551  16.233 -0.3897  0.5590 -1.8078
 4559TIP3    H235093   3.181   0.621  16.278  0.2628  0.1093  0.9725
 4560TIP3   OH235094   6.509   5.297   1.716  0.0536  0.0144 -0.4350
 4560TIP3    H135095   6.491   5.391   1.712 -0.3513 -0.0803 -1.0121
 4560TIP3    H235096   6.542   5.282   1.804  1.0257  0.8564 -0.6462
 4561TIP3   OH235097   6.046   2.363  11.293 -0.1596  0.2567 -0.1872
 4561TIP3    H135098   6.066   2.413  11.372 -3.5891  1.1313  0.2990
 4561TIP3    H235099   6.038   2.273  11.322  2.1659 -0.0570 -0.3219
 4562TIP3   OH235100   4.956   2.516  13.901 -0.3115  0.2542 -0.1028
 4562TIP3    H135101   5.029   2.502  13.842 -0.0787  0.8513  0.0334
 4562TIP3    H235102   4.986   2.585  13.960  0.3130 -1.7946  2.1500
 4563TIP3   OH235103   4.634   0.539   2.188 -0.2804  0.4607  0.2685
 4563TIP3    H135104   4.679   0.558   2.270 -0.2665  2.6042 -0.1793
 4563TIP3    H235105   4.555   0.491   2.215  2.2638 -3.7920  1.0354
 4564TIP3   OH235106   0.962   0.354  14.421 -0.0522  0.1043 -0.0112
 4564TIP3    H135107   0.874   0.371  14.386 -1.2788 -1.2862  2.1420
 4564TIP3    H235108   0.996   0.441  14.442 -1.8685  0.5778  1.1901
 4565TIP3   OH235109   2.505   1.303  11.611  0.4453 -0.4476  0.2164
 4565TIP3    H135110   2.580   1.361  11.621 -0.4352  0.7732 -0.1140
 4565TIP3    H235111   2.448   1.347  11.548  0.0542 -1.9805 -0.5420
 4566TIP3   OH235112   0.650   0.550  11.073 -0.1935 -0.2312 -0.4390
 4566TIP3    H135113   0.557   0.560  11.091 -0.6404 -0.1216 -2.6150
 4566TIP3    H235114   0.689   0.633  11.102 -0.5984 -0.5549  1.1765
 4567TIP3   OH235115   4.627   3.365  14.489 -0.4743 -0.0433 -0.1808
 4567TIP3    H135116   4.694   3.333  14.549 -0.2336  0.4685 -0.1726
 4567TIP3    H235117   4.614   3.293  14.426 -0.0201 -0.1963 -0.1023
 4568TIP3   OH235118   5.807   1.949  10.166 -0.2116  0.0616 -0.2814
 4568TIP3    H135119   5.858   1.944  10.085 -0.4711  0.1797 -0.4547
 4568TIP3    H235120   5.717   1.931  10.139 -0.3343  0.3195 -0.0551
 4569TIP3   OH235121   4.425   2.672   0.935  0.2476  0.3120  0.2641
 4569TIP3    H135122   4.447   2.747   0.880  0.5398  0.5945  0.7566
 4569TIP3    H235123   4.455   2.697   1.022 -2.7021  1.0491  1.1923
 4570TIP3   OH235124   6.478   1.565  14.458  0.2852 -0.3223  0.8689
 4570TIP3    H135125   6.550   1.513  14.494 -0.0960  1.1218  4.1406
 4570TIP3    H235126   6.399   1.515  14.481  0.0984 -0.4551 -0.0291
 4571TIP3   OH235127   6.222   2.808  13.811 -0.4591 -0.2770  0.7911
 4571TIP3    H135128   6.139   2.797  13.857 -1.3984 -0.7939 -0.9367
 4571TIP3    H235129   6.198   2.840  13.724  1.1794 -0.1202  0.3576
 4572TIP3   OH235130   3.883   3.978   1.396 -0.0373  0.2367  0.0978
 4572TIP3    H135131   3.800   3.944   1.429 -0.3954  1.1469  0.1660
 4572TIP3    H235132   3.930   3.901   1.365 -1.2992 -0.1839 -0.8190
 4573TIP3   OH235133   2.192   5.572   5.597  0.4969 -0.0478 -0.3543
 4573TIP3    H135134   2.228   5.613   5.518  1.5943  0.8148  0.5720
 4573TIP3    H235135   2.211   5.633   5.667  1.2558 -1.6649  0.9139
 4574TIP3   OH235136   4.134   0.284  15.289  0.2514 -0.1893 -0.0773
 4574TIP3    H135137   4.093   0.198  15.280 -2.3322  0.6820  2.2750
 4574TIP3    H235138   4.154   0.311  15.199  0.9603 -3.0938 -0.8818
 4575TIP3   OH235139   0.010   3.618  11.206 -0.0704 -0.2196 -0.6561
 4575TIP3    H135140  -0.014   3.552  11.272 -0.1725 -0.1922 -0.6656
 4575TIP3    H235141  -0.074   3.650  11.172 -0.0246  0.0013 -0.5656
 4576TIP3   OH235142   6.339   1.425  11.828  0.0165 -0.0269 -0.2410
 4576TIP3    H135143   6.244   1.416  11.822 -0.3878 -0.2762  3.7667
 4576TIP3    H235144   6.353   1.511  11.867  1.7861  1.6336 -4.1007
 4577TIP3   OH235145   2.574   2.848   0.974 -0.1403  0.2524  0.0195
 4577TIP3    H135146   2.484   2.841   1.007 -0.0854  0.1342  0.1426
 4577TIP3    H235147   2.564   2.876   0.883 -0.3052  0.0845 -0.0129
 4578TIP3   OH235148   3.336   6.201   3.032 -0.6101  0.6263 -0.0249
 4578TIP3    H135149   3.430   6.188   3.044 -0.3792  0.0406 -2.0734
 4578TIP3    H235150   3.329   6.280   2.980 -1.1897  0.1450 -0.6900
 4579TIP3   OH235151   2.805   5.947   5.009  0.4044 -0.1893 -0.4817
 4579TIP3    H135152   2.804   5.906   5.096  1.4531 -0.0783 -0.4090
 4579TIP3    H235153   2.850   6.030   5.023 -2.4771  1.4891 -0.4328
 4580TIP3   OH235154   1.521   2.206  15.818 -0.6091  0.1076 -0.6463
 4580TIP3    H135155   1.520   2.213  15.723  0.2082  0.6988 -0.6223
 4580TIP3    H235156   1.534   2.296  15.848  1.7570 -0.3699 -0.0498
 4581TIP3   OH235157   3.928   2.219   0.894 -0.3842  0.5553 -0.1456
 4581TIP3    H135158   3.981   2.299   0.901  1.8129 -0.6675 -1.8475
 4581TIP3    H235159   3.909   2.211   0.800 -0.6556 -0.8794  0.0159
 4582TIP3   OH235160   5.690   1.389   0.108 -0.1056  0.5810 -0.1441
 4582TIP3    H135161   5.676   1.483   0.103  2.2317  1.1069  1.4740
 4582TIP3    H235162   5.754   1.378   0.179 -1.5374 -2.3622  0.8750
 4583TIP3   OH235163   4.068   0.978   5.035 -0.7575 -0.2865 -0.1428
 4583TIP3    H135164   4.053   0.899   5.087 -1.3807 -0.1815 -0.1518
 4583TIP3    H235165   4.032   1.049   5.089  0.3047  0.0744  0.1205
 4584TIP3   OH235166   6.115   5.038   0.936 -0.2205 -0.5666 -0.0937
 4584TIP3    H135167   6.102   5.125   0.898  1.3052 -0.7781 -1.1727
 4584TIP3    H235168   6.210   5.029   0.944 -0.4236 -1.4701  1.6163
 4585TIP3   OH235169   4.256   4.568   0.548 -0.2669 -0.1587 -0.0297
 4585TIP3    H135170   4.162   4.553   0.540 -0.1798  0.0784 -2.1858
 4585TIP3    H235171   4.275   4.634   0.481  1.6802 -1.3682 -0.7470
 4586TIP3   OH235172   4.254   5.818   4.642 -0.2523  0.0287  0.3026
 4586TIP3    H135173   4.271   5.724   4.640  0.1528  0.1211 -0.9285
 4586TIP3    H235174   4.264   5.847   4.552  0.6387  1.4400  0.8244
 4587TIP3   OH235175   6.717   4.189   2.945  0.0658 -0.6391 -0.1153
 4587TIP3    H135176   6.807   4.207   2.918 -0.6627  3.6925 -0.4738
 4587TIP3    H235177   6.714   4.214   3.037 -0.9262  0.2596 -0.3666
 4588TIP3   OH235178   3.300   5.406   3.996  0.0286 -0.1153 -0.7808
 4588TIP3    H135179   3.372   5.419   4.057  1.2665  0.0705 -2.2367
 4588TIP3    H235180   3.314   5.318   3.960 -2.1130 -1.2837  0.9711
 4589TIP3   OH235181   2.537   6.567  12.006  0.4359  0.5761 -0.1613
 4589TIP3    H135182   2.558   6.645  12.058  0.9618 -0.7097  1.6887
 4589TIP3    H235183   2.480   6.516  12.063  1.6391 -1.2501 -0.5067
 4590TIP3   OH235184   0.824   1.712   1.464  0.0720  0.1734 -0.1252
 4590TIP3    H135185   0.868   1.770   1.402  0.7710  0.0040  0.1985
 4590TIP3    H235186   0.732   1.714   1.438  0.4000 -0.1561 -1.3761
 4591TIP3   OH235187   1.000   6.520  13.307 -0.9334  0.1286 -0.0651
 4591TIP3    H135188   0.964   6.511  13.219 -0.3796 -0.7138 -0.2095
 4591TIP3    H235189   1.071   6.457  13.311 -0.3335  0.8282  0.6688
 4592TIP3   OH235190   4.504   1.338   4.427  0.7666 -0.4536 -0.4418
 4592TIP3    H135191   4.497   1.272   4.358  4.3333 -0.7274 -0.7431
 4592TIP3    H235192   4.552   1.294   4.497 -0.7370  0.5388  1.2991
 4593TIP3   OH235193   2.485   3.304  15.691 -0.3036  0.5692  0.4925
 4593TIP3    H135194   2.412   3.331  15.635  0.0105 -1.2727 -0.9024
 4593TIP3    H235195   2.551   3.272  15.629 -0.4986 -2.8977  1.8844
 4594TIP3   OH235196   4.368   4.453  15.260 -0.4373  0.0154 -0.1378
 4594TIP3    H135197   4.361   4.451  15.356  1.2832 -0.4821  0.0149
 4594TIP3    H235198   4.423   4.378  15.238 -1.4777 -0.3606 -1.6110
 4595TIP3   OH235199   0.783   3.586   9.896 -0.6888 -0.0443 -0.2733
 4595TIP3    H135200   0.829   3.544   9.969 -1.2890 -1.2855 -0.5791
 4595TIP3    H235201   0.758   3.513   9.839 -1.7471  0.7466 -0.8420
 4596TIP3   OH235202   5.810   3.756  13.099  0.2142  0.9243 -0.3810
 4596TIP3    H135203   5.715   3.758  13.092  0.2838  0.5036 -1.8841
 4596TIP3    H235204   5.828   3.730  13.190 -1.1443 -1.3152 -0.6862
 4597TIP3   OH235205   4.933   1.170   5.907  0.5811 -0.2894  0.3667
 4597TIP3    H135206   4.855   1.115   5.903 -1.2413  2.1414  0.4560
 4597TIP3    H235207   4.959   1.180   5.815  0.9482 -1.2446  0.3482
 4598TIP3   OH235208   2.587   5.696  16.661 -0.0389  0.0605  0.3712
 4598TIP3    H135209   2.580   5.641  16.739 -2.5514  0.0758  0.2177
 4598TIP3    H235210   2.523   5.766  16.675  0.2239  0.6598 -1.2378
 4599TIP3   OH235211   1.046   6.243  12.684 -0.1959  0.1525 -0.4522
 4599TIP3    H135212   1.100   6.316  12.656  1.9944 -1.2374 -0.0342
 4599TIP3    H235213   1.021   6.198  12.603 -0.2848  0.4784 -0.6069
 4600TIP3   OH235214   5.819   1.789  10.394  0.1964 -0.2795 -0.2883
 4600TIP3    H135215   5.733   1.774  10.433  0.5033 -0.3723  0.3717
 4600TIP3    H235216   5.801   1.845  10.319 -0.4659 -0.4726 -0.2851
 4601TIP3   OH235217   3.888   2.659  15.936  0.2602 -0.0140 -0.4002
 4601TIP3    H135218   3.894   2.708  15.854  0.7495 -1.2612 -1.1372
 4601TIP3    H235219   3.936   2.578  15.920 -0.3376 -0.6592  0.8474
 4602TIP3   OH235220   5.164   0.043   1.322  0.0855 -0.4629  0.2207
 4602TIP3    H135221   5.213  -0.022   1.271  0.2124 -1.4204  1.5152
 4602TIP3    H235222   5.129  -0.006   1.396 -0.4873  0.7930  0.8047
 4603TIP3   OH235223   0.543   6.250   4.129  0.5161 -0.2881 -0.2220
 4603TIP3    H135224   0.586   6.233   4.212  0.7587 -1.0281 -0.4951
 4603TIP3    H235225   0.605   6.304   4.080  0.2012  0.5078  0.2170
 4604TIP3   OH235226   5.143   4.627  11.066  0.7121 -0.1054 -0.2403
 4604TIP3    H135227   5.172   4.709  11.026 -0.7974  0.7496  0.3639
 4604TIP3    H235228   5.124   4.569  10.992 -0.0661  0.7533 -0.7186
 4605TIP3   OH235229   6.048   2.839   2.071  0.9066 -0.2091  0.1243
 4605TIP3    H135230   6.132   2.797   2.051 -0.0354 -2.1340 -0.0182
 4605TIP3    H235231   5.997   2.771   2.115 -0.4137  1.0757  0.6712
 4606TIP3   OH235232   3.366   1.528  12.982 -0.1059  0.8129 -0.2197
 4606TIP3    H135233   3.446   1.581  12.977 -0.7876  2.0473  0.9930
 4606TIP3    H235234   3.330   1.549  13.069 -1.2723 -0.4054 -0.3862
 4607TIP3   OH235235   6.375   5.466   2.283 -0.1052 -0.1183  0.0998
 4607TIP3    H135236   6.312   5.398   2.260 -0.7287 -0.1479  1.7612
 4607TIP3    H235237   6.406   5.442   2.370 -1.5679  2.5599  1.4503
 4608TIP3   OH235238   5.444   0.215  12.593  0.6284  0.2163 -0.0150
 4608TIP3    H135239   5.376   0.210  12.527  0.0666  0.0326  0.5717
 4608TIP3    H235240   5.520   0.251  12.546  0.1637  0.3407 -0.6881
 4609TIP3   OH235241   0.118   3.843   2.395  0.1882  0.6904 -0.5150
 4609TIP3    H135242   0.154   3.885   2.473  0.6821 -0.3657 -0.1551
 4609TIP3    H235243   0.055   3.780   2.428  1.0187 -0.3681 -0.9033
 4610TIP3   OH235244   5.627   2.630   4.935  0.1705 -0.2434 -0.4250
 4610TIP3    H135245   5.607   2.546   4.976 -1.7503 -1.4103 -3.3900
 4610TIP3    H235246   5.703   2.613   4.879 -0.3812 -0.1241 -1.2339
 4611TIP3   OH235247   1.996   1.675   2.345  0.2376  0.2787  0.4683
 4611TIP3    H135248   1.915   1.638   2.309 -2.2219  3.8396  1.7531
 4611TIP3    H235249   2.003   1.638   2.433 -0.4967  0.5445  0.6447
 4612TIP3   OH235250   0.948   2.797   0.868 -0.8533  0.4443 -0.0394
 4612TIP3    H135251   1.002   2.723   0.841 -0.6729  1.6654 -3.6213
 4612TIP3    H235252   0.859   2.761   0.874 -0.4703 -0.4621  0.2868
 4613TIP3   OH235253   5.726   6.765   4.269  0.2113 -0.9097  0.1039
 4613TIP3    H135254   5.658   6.709   4.231 -2.1580  1.3757  0.6094
 4613TIP3    H235255   5.784   6.785   4.195 -0.2467 -2.1133 -0.6137
 4614TIP3   OH235256   6.257   2.594  10.624  0.2968 -0.7355 -0.3399
 4614TIP3    H135257   6.340   2.565  10.585  0.7213 -1.1165  0.7766
 4614TIP3    H235258   6.282   2.670  10.677  0.2925 -1.8373  1.3395
 4615TIP3   OH235259   3.177   0.364   5.539  0.1753  0.5037 -0.6921
 4615TIP3    H135260   3.111   0.383   5.605 -0.0910  2.3138 -1.4152
 4615TIP3    H235261   3.260   0.388   5.580  0.1911  0.0329 -0.4441
 4616TIP3   OH235262   1.919   1.990   5.083 -0.3134  0.0775 -0.1194
 4616TIP3    H135263   1.916   1.917   5.145  0.6209 -0.2266 -0.4219
 4616TIP3    H235264   2.001   2.035   5.101 -0.9433  1.1544  0.1525
 4617TIP3   OH235265   5.485   5.021   1.879 -0.3981  0.4082  0.2039
 4617TIP3    H135266   5.407   4.975   1.909 -0.0592 -0.8738 -0.8373
 4617TIP3    H235267   5.558   4.968   1.911  0.0664  1.3509  0.7732
 4618TIP3   OH235268   6.357   0.175  13.292  0.8928 -0.0584  0.4081
 4618TIP3    H135269   6.443   0.134  13.291  0.6361 -0.6070  0.5835
 4618TIP3    H235270   6.317   0.149  13.209  0.2977 -1.1131  0.9991
 4619TIP3   OH235271   5.470   5.704   4.148  0.3079  0.5417 -0.5027
 4619TIP3    H135272   5.510   5.622   4.176 -0.2467 -0.2538 -1.9825
 4619TIP3    H235273   5.544   5.758   4.121  0.6485  0.4374  0.1954
 4620TIP3   OH235274   6.191   3.568  12.602  0.0080  0.2628  0.3698
 4620TIP3    H135275   6.285   3.552  12.598 -0.1196 -0.4696 -4.2710
 4620TIP3    H235276   6.182   3.664  12.596  0.4174  0.3651  1.2699
 4621TIP3   OH235277   0.617   3.126   5.223 -0.0985  0.1647  0.3351
 4621TIP3    H135278   0.610   3.092   5.313 -2.1909 -0.4570  0.0019
 4621TIP3    H235279   0.586   3.054   5.169 -1.7813  1.5395 -0.6347
 4622TIP3   OH235280   6.846   0.798  15.065  0.4545 -0.3465 -0.2675
 4622TIP3    H135281   6.814   0.736  14.999 -0.8354 -0.5152  0.4815
 4622TIP3    H235282   6.869   0.743  15.140 -1.5312  0.0868  0.7288
 4623TIP3   OH235283   3.772   1.532   5.425 -0.2939 -0.0267  0.4970
 4623TIP3    H135284   3.742   1.584   5.351  1.6560  0.0792 -0.2829
 4623TIP3    H235285   3.719   1.452   5.422 -1.5066  0.7759  0.1279
 4624TIP3   OH235286   2.560   5.220   0.240  0.1917 -0.0077  0.3256
 4624TIP3    H135287   2.603   5.138   0.215  0.5667  1.1177 -3.1189
 4624TIP3    H235288   2.469   5.194   0.257  0.9943 -1.6070  2.9734
 4625TIP3   OH235289   0.131   1.252  11.712  0.3673 -0.1527 -0.1284
 4625TIP3    H135290   0.175   1.195  11.775 -1.4835 -1.5842 -0.0640
 4625TIP3    H235291   0.111   1.195  11.638 -1.3755  0.4370 -0.1423
 4626TIP3   OH235292   1.962   0.661  16.674 -0.2273  0.4534  0.2495
 4626TIP3    H135293   2.034   0.674  16.613 -1.3728  3.0146 -0.7181
 4626TIP3    H235294   1.992   0.701  16.756 -0.1822  0.6346  0.1443
 4627TIP3   OH235295   6.373   5.775  14.883  0.3903 -0.0100  0.7785
 4627TIP3    H135296   6.397   5.731  14.964  0.1265  0.1392  0.9420
 4627TIP3    H235297   6.285   5.742  14.863  0.0502  0.6911  1.0856
 4628TIP3   OH235298   3.980   3.298  14.840 -0.1025  0.5324 -0.4055
 4628TIP3    H135299   3.945   3.231  14.899 -0.3878  1.3102  0.3324
 4628TIP3    H235300   3.905   3.353  14.820  0.5131  1.7759  0.5808
 4629TIP3   OH235301   3.612   4.607  13.661 -0.6579 -0.2965 -0.3229
 4629TIP3    H135302   3.649   4.539  13.605  0.3892  0.0506 -0.0589
 4629TIP3    H235303   3.538   4.642  13.610  1.3191  1.2441 -2.3103
 4630TIP3   OH235304   1.487   6.054  12.778 -0.4933 -0.4047 -0.3635
 4630TIP3    H135305   1.548   6.013  12.717  0.9182 -1.7366  1.7994
 4630TIP3    H235306   1.434   5.981  12.812  0.5257 -0.2045  1.8594
 4631TIP3   OH235307   1.596   1.976   1.338  0.7158 -0.1086 -0.6114
 4631TIP3    H135308   1.649   2.055   1.348  0.9584 -0.4130  0.7031
 4631TIP3    H235309   1.613   1.925   1.417 -0.0690 -1.1034 -1.0543
 4632TIP3   OH235310   0.459   2.949  12.246 -0.1643  0.3237 -0.4366
 4632TIP3    H135311   0.429   2.872  12.197 -0.1021  0.7418 -1.1507
 4632TIP3    H235312   0.550   2.930  12.267 -0.2352  0.0741 -0.3505
 4633TIP3   OH235313   3.328   1.535   2.450  0.3896 -0.0448 -0.1913
 4633TIP3    H135314   3.416   1.570   2.458  0.3251  0.1866 -0.4520
 4633TIP3    H235315   3.335   1.469   2.381  0.2227  0.4555 -0.6965
 4634TIP3   OH235316   2.925   0.121  11.117 -0.4009 -0.5856 -0.6086
 4634TIP3    H135317   2.849   0.130  11.175  0.5227 -3.5096  1.3114
 4634TIP3    H235318   2.891   0.080  11.038 -1.2365  0.8374 -1.0144
 4635TIP3   OH235319   4.033   2.790  11.295 -0.4445  0.3506 -0.0113
 4635TIP3    H135320   4.010   2.792  11.202 -0.2082  0.6581 -0.0670
 4635TIP3    H235321   4.126   2.814  11.297 -0.8413  2.0222  0.4224
 4636TIP3   OH235322   1.728   6.146   2.638  0.0125 -0.2371  0.5268
 4636TIP3    H135323   1.808   6.106   2.605  0.9153  0.9570  1.1812
 4636TIP3    H235324   1.670   6.150   2.562  0.9575 -0.1944 -0.2064
 4637TIP3   OH235325   2.903   5.460  15.392 -0.0196  0.6395 -0.1651
 4637TIP3    H135326   2.917   5.448  15.298 -0.3943  1.4390 -0.3390
 4637TIP3    H235327   2.989   5.448  15.431  0.2878  1.0433 -0.7016
 4638TIP3   OH235328   2.241   4.806   0.501  0.5874 -0.1834  0.9603
 4638TIP3    H135329   2.307   4.782   0.436 -0.7624 -0.2966 -0.4210
 4638TIP3    H235330   2.208   4.891   0.472 -1.4539 -1.1497  0.2898
 4639TIP3   OH235331   4.004   5.042  13.828  0.5587 -0.0226 -0.1147
 4639TIP3    H135332   3.916   5.063  13.796 -0.2451 -0.9654  1.4050
 4639TIP3    H235333   4.051   5.126  13.825 -0.0993  0.3335 -1.7319
 4640TIP3   OH235334   3.341   6.810   1.508 -0.0959  0.8594 -0.2757
 4640TIP3    H135335   3.406   6.754   1.549 -0.9855 -0.2361 -0.3026
 4640TIP3    H235336   3.292   6.848   1.581 -0.7854  0.0021 -0.2804
 4641TIP3   OH235337   4.805   6.280  14.379 -0.8794  0.2091  0.2843
 4641TIP3    H135338   4.821   6.198  14.427  0.6130 -0.4513 -1.2177
 4641TIP3    H235339   4.750   6.254  14.305  0.0434  0.4232 -0.5016
 4642TIP3   OH235340   3.399   1.380   2.717 -0.1432 -0.2279  0.1964
 4642TIP3    H135341   3.446   1.464   2.719 -0.5654  0.0333 -0.3518
 4642TIP3    H235342   3.401   1.348   2.807 -2.4381  1.7571  1.0658
 4643TIP3   OH235343   5.499   1.556  16.355 -0.2507 -0.1907 -0.2828
 4643TIP3    H135344   5.568   1.623  16.355 -0.7429  0.3337  0.5671
 4643TIP3    H235345   5.488   1.533  16.263 -1.7466  2.6650 -0.9217
 4644TIP3   OH235346   4.965   5.840  15.444 -0.1360 -0.5935  0.4527
 4644TIP3    H135347   4.981   5.820  15.537 -0.8202 -2.6261  0.1819
 4644TIP3    H235348   4.870   5.838  15.435 -0.0408 -2.2580 -0.6198
 4645TIP3   OH235349   6.163   4.935   1.949 -0.3742  0.4150  0.6789
 4645TIP3    H135350   6.078   4.978   1.957 -0.8226  0.0569 -1.4885
 4645TIP3    H235351   6.196   4.963   1.863  1.2971 -0.1591  1.0928
 4646TIP3   OH235352   5.797   3.115   2.847  0.0477 -0.4939  0.1493
 4646TIP3    H135353   5.885   3.150   2.860 -0.4962  0.4811  1.3600
 4646TIP3    H235354   5.803   3.024   2.876  0.3622 -0.0721  1.4497
 4647TIP3   OH235355   1.013   5.985   0.361 -0.4118 -0.1418  0.2528
 4647TIP3    H135356   0.978   6.034   0.287  0.5647 -1.1096 -0.8952
 4647TIP3    H235357   1.074   6.045   0.404  0.1687 -0.0737 -0.6533
 4648TIP3   OH235358   4.863   0.531  13.299  0.3285  0.3261 -0.8360
 4648TIP3    H135359   4.831   0.485  13.221  0.5535 -1.2579 -0.0381
 4648TIP3    H235360   4.808   0.609  13.304  0.6547  0.7608 -2.8592
 4649TIP3   OH235361   1.425   2.099   4.929  0.1453  0.1482  0.2802
 4649TIP3    H135362   1.478   2.092   4.850 -0.6326  0.8478 -0.3125
 4649TIP3    H235363   1.335   2.098   4.898 -0.1691  2.2699  0.9762
 4650TIP3   OH235364   1.251   1.974   3.223 -0.0675 -0.2666  0.0941
 4650TIP3    H135365   1.171   2.011   3.260 -0.6849 -1.0957 -0.3839
 4650TIP3    H235366   1.312   2.048   3.220 -0.7109  0.3033  0.7520
 4651TIP3   OH235367   0.573   2.053   0.191  0.0876 -0.0826  0.1317
 4651TIP3    H135368   0.667   2.069   0.177 -0.6367  3.0310 -2.1708
 4651TIP3    H235369   0.556   1.971   0.143  0.9893  1.4573 -3.1138
 4652TIP3   OH235370   1.457   6.503  16.128  0.0529 -0.1586 -0.6454
 4652TIP3    H135371   1.384   6.545  16.083  0.3634  1.9284  0.6662
 4652TIP3    H235372   1.514   6.471  16.058 -1.5833 -0.9572 -1.6850
 4653TIP3   OH235373   4.744   5.595   1.854  0.2799 -0.1254 -0.4510
 4653TIP3    H135374   4.835   5.620   1.840  0.4407  0.6481  1.6389
 4653TIP3    H235375   4.727   5.616   1.946 -2.1028  0.0130 -0.8583
 4654TIP3   OH235376   3.219   1.874   3.097  0.1134 -0.3202 -0.0575
 4654TIP3    H135377   3.163   1.869   3.174  0.1333 -0.1611 -0.0311
 4654TIP3    H235378   3.224   1.968   3.077  1.7474 -0.1493  0.9565
 4655TIP3   OH235379   5.851   4.564   1.308  0.5430  0.4954 -0.0364
 4655TIP3    H135380   5.864   4.639   1.250  3.2497 -1.2627 -1.9184
 4655TIP3    H235381   5.765   4.529   1.282 -0.3556  2.3501  0.2590
 4656TIP3   OH235382   4.657   6.218  10.675  0.8296 -0.1740 -0.1296
 4656TIP3    H135383   4.617   6.138  10.641  1.5539 -0.8841  0.6202
 4656TIP3    H235384   4.661   6.277  10.600  1.4447 -1.3120 -1.0213
 4657TIP3   OH235385   5.291   0.340   2.445  0.4941 -0.7713 -0.1772
 4657TIP3    H135386   5.309   0.247   2.458 -0.8513 -0.9862  0.4048
 4657TIP3    H235387   5.262   0.371   2.531  0.2925  0.0161 -0.5175
 4658TIP3   OH235388   4.596   6.731   0.832 -0.3948  0.2180 -0.0342
 4658TIP3    H135389   4.664   6.665   0.821 -0.9554 -0.5816  1.1679
 4658TIP3    H235390   4.592   6.747   0.926 -0.9670  1.2413 -0.2077
 4659TIP3   OH235391   0.676   2.247   5.537  0.2503 -0.2168 -0.0773
 4659TIP3    H135392   0.694   2.325   5.590  0.0812  0.0702 -0.4326
 4659TIP3    H235393   0.761   2.204   5.527  0.5303  0.4526 -0.6933
 4660TIP3   OH235394   6.437   4.247  15.462  0.1299 -0.2063  0.1507
 4660TIP3    H135395   6.422   4.308  15.534  0.1170  0.1814 -0.1768
 4660TIP3    H235396   6.394   4.288  15.387  1.0154 -0.0948 -0.3143
 4661TIP3   OH235397   3.654   1.654   4.395  0.1948  0.2046  0.4876
 4661TIP3    H135398   3.605   1.653   4.313  1.3814 -0.5610 -0.2312
 4661TIP3    H235399   3.736   1.699   4.374  0.0796  0.9585  1.5307
 4662TIP3   OH235400   4.370   4.667  13.265 -0.2537 -0.3250  0.0779
 4662TIP3    H135401   4.321   4.750  13.264  2.3679  1.3438  0.4154
 4662TIP3    H235402   4.339   4.621  13.343 -2.0490  0.1165 -0.3376
 4663TIP3   OH235403   6.391   1.144   3.545  0.4533 -0.4568 -0.3061
 4663TIP3    H135404   6.357   1.231   3.567  0.2263 -0.4560 -0.6431
 4663TIP3    H235405   6.486   1.152   3.555  0.5418  0.1820 -1.4654
 4664TIP3   OH235406   6.356   6.277  14.359 -0.2129  0.0470 -0.4157
 4664TIP3    H135407   6.391   6.227  14.285 -1.2102 -0.2066 -0.7190
 4664TIP3    H235408   6.275   6.315  14.327 -0.3779  0.3891  0.3824
 4665TIP3   OH235409   1.881   4.584  15.095 -0.6377  0.2978  0.4133
 4665TIP3    H135410   1.969   4.546  15.104 -0.2260  0.9915 -0.4591
 4665TIP3    H235411   1.850   4.595  15.184 -0.5355 -1.5137  0.7206
 4666TIP3   OH235412   6.704   0.569   0.190 -0.0573 -0.9319 -0.3841
 4666TIP3    H135413   6.641   0.586   0.261  2.0695  0.1877  1.3662
 4666TIP3    H235414   6.762   0.502   0.226  0.9311 -0.5091 -1.1500
 4667TIP3   OH235415   6.633   5.744   4.559  0.1763 -0.8144 -0.0596
 4667TIP3    H135416   6.698   5.795   4.510  1.7666 -1.2037  1.5201
 4667TIP3    H235417   6.549   5.776   4.527  1.1212  0.9447 -0.9741
 4668TIP3   OH235418   4.112   3.966   0.813 -0.1341 -0.2052  0.0658
 4668TIP3    H135419   4.029   4.012   0.807 -0.4411 -0.8469 -0.7661
 4668TIP3    H235420   4.167   4.005   0.745  0.1679  0.0556  0.4552
 4669TIP3   OH235421   2.513   6.097  14.145 -0.5763 -0.0623 -0.3373
 4669TIP3    H135422   2.602   6.093  14.180  0.2666 -0.7110 -2.3960
 4669TIP3    H235423   2.515   6.038  14.069 -2.0435  1.8330 -1.9583
 4670TIP3   OH235424   0.057   6.709   0.942 -0.1135 -0.5790  0.1131
 4670TIP3    H135425  -0.017   6.666   0.983 -0.6758  0.5039  0.2580
 4670TIP3    H235426   0.071   6.660   0.860  0.1820 -1.9120  0.9269
 4671TIP3   OH235427   4.522   4.001   5.331 -0.5388 -0.1213 -0.4872
 4671TIP3    H135428   4.596   4.049   5.368  0.4526 -2.6519  1.0493
 4671TIP3    H235429   4.552   3.974   5.244  0.4521 -1.2901  0.2003
 4672TIP3   OH235430   4.226   3.248   2.954  0.0469  0.7494  0.7506
 4672TIP3    H135431   4.275   3.202   2.885 -1.0548 -1.1648  1.1841
 4672TIP3    H235432   4.212   3.336   2.918  0.7100  0.2334 -0.8811
 4673TIP3   OH235433   3.323   0.651  13.347  0.0122 -0.4903  0.1681
 4673TIP3    H135434   3.387   0.627  13.413 -0.3058  0.7912  0.9891
 4673TIP3    H235435   3.372   0.703  13.284  0.2210 -1.3358 -0.3781
 4674TIP3   OH235436   3.713   5.355  14.078  0.3723  0.8873  0.0812
 4674TIP3    H135437   3.749   5.436  14.114  0.3815  0.1922  1.7088
 4674TIP3    H235438   3.712   5.294  14.152  0.3257 -0.5948 -1.0895
 4675TIP3   OH235439   2.593   5.252  11.280  0.3726  0.1938 -0.0520
 4675TIP3    H135440   2.575   5.202  11.201  1.0198  1.3157 -0.9374
 4675TIP3    H235441   2.509   5.257  11.325  0.0955 -0.8441 -0.4327
 4676TIP3   OH235442   5.471   3.997  11.687 -0.1697 -0.0064 -0.4848
 4676TIP3    H135443   5.465   3.947  11.606  0.9349 -1.8568  0.5226
 4676TIP3    H235444   5.558   4.037  11.684 -0.3161  0.3177 -0.4363
 4677TIP3   OH235445   0.207   1.095   3.300 -0.1694 -0.1803 -0.0345
 4677TIP3    H135446   0.247   1.121   3.383 -0.8833 -0.0261  0.2641
 4677TIP3    H235447   0.150   1.021   3.322  1.4745 -1.7719 -0.7939
 4678TIP3   OH235448   0.125   3.039  13.401  0.3776 -0.3362  0.2252
 4678TIP3    H135449   0.150   2.951  13.373 -2.3134 -0.4698 -2.3120
 4678TIP3    H235450   0.207   3.086  13.412  1.8186 -2.1367 -2.0507
 4679TIP3   OH235451   2.147   3.127   4.108  0.0993  0.2189  0.1533
 4679TIP3    H135452   2.219   3.169   4.155  0.2649  1.1292 -0.8671
 4679TIP3    H235453   2.105   3.198   4.060 -0.5634 -0.5487 -0.4330
 4680TIP3   OH235454   0.023   1.855   1.594  0.1025 -0.4510 -0.7627
 4680TIP3    H135455   0.034   1.776   1.646 -0.9254 -0.6093 -0.7693
 4680TIP3    H235456  -0.022   1.916   1.653  2.7250  0.9371 -0.0003
 4681TIP3   OH235457   4.515   5.368  15.705 -0.2563 -0.0888 -0.1049
 4681TIP3    H135458   4.600   5.411  15.697 -0.9086  1.1621 -0.5600
 4681TIP3    H235459   4.482   5.363  15.615  0.0052 -2.0343 -0.1470
 4682TIP3   OH235460   5.638   5.685   2.574  0.3389 -0.1098  0.1002
 4682TIP3    H135461   5.586   5.643   2.643  1.2196 -0.5169  0.5209
 4682TIP3    H235462   5.589   5.765   2.554 -0.1146 -0.1577  0.9555
 4683TIP3   OH235463   1.675   2.469   1.606  0.3493  0.0753  0.5526
 4683TIP3    H135464   1.751   2.411   1.601  0.2967  0.0175  0.4145
 4683TIP3    H235465   1.599   2.412   1.597  0.3304  0.3559 -1.6771
 4684TIP3   OH235466   1.251   2.858   5.870 -0.0243 -0.2888 -0.8292
 4684TIP3    H135467   1.194   2.783   5.858  0.4693 -0.7782 -0.1590
 4684TIP3    H235468   1.256   2.870   5.965  0.9042 -0.2006 -0.8790
 4685TIP3   OH235469   2.363   0.627   3.804 -0.3320 -0.0076  0.3579
 4685TIP3    H135470   2.339   0.556   3.744 -0.8086  0.4162  0.0330
 4685TIP3    H235471   2.439   0.668   3.763  0.7244 -1.1000  1.1814
 4686TIP3   OH235472   0.229   3.506   5.703 -0.6117 -0.2951 -0.1558
 4686TIP3    H135473   0.161   3.570   5.724  0.5508 -0.2675  4.9932
 4686TIP3    H235474   0.187   3.421   5.716 -0.5040 -0.3734 -0.3148
 4687TIP3   OH235475   2.937   2.212   2.222  0.2753  0.5063  0.1456
 4687TIP3    H135476   3.024   2.190   2.255  0.5816  2.4134  0.6953
 4687TIP3    H235477   2.892   2.251   2.297 -0.8461  0.1286 -0.3094
 4688TIP3   OH235478   4.299   6.165   4.810 -0.0938 -0.0253  0.0579
 4688TIP3    H135479   4.381   6.213   4.799  1.4940 -2.4023  0.7487
 4688TIP3    H235480   4.287   6.160   4.905 -0.6525 -0.3211 -0.0260
 4689TIP3   OH235481   5.246   1.464  11.115  0.3836  0.6593 -0.7138
 4689TIP3    H135482   5.292   1.480  11.197 -2.0774  0.9825  0.7201
 4689TIP3    H235483   5.236   1.551  11.075  0.0037  0.7557 -0.4180
 4690TIP3   OH235484   4.206   1.217  10.171  0.3197 -0.1057 -0.3235
 4690TIP3    H135485   4.231   1.309  10.174 -0.2584  0.1215 -1.5675
 4690TIP3    H235486   4.213   1.187  10.261 -0.2006  1.3512  0.2382
 4691TIP3   OH235487   1.960   2.314   5.630 -0.4483 -0.0317  0.2914
 4691TIP3    H135488   2.051   2.344   5.624 -0.2981 -0.5015  0.0717
 4691TIP3    H235489   1.920   2.369   5.696  0.1785 -0.2447  0.8660
 4692TIP3   OH235490   2.964   6.031  10.722  0.6200 -0.1834 -0.0595
 4692TIP3    H135491   2.909   5.996  10.792 -1.3632  0.6649 -1.1140
 4692TIP3    H235492   3.031   6.083  10.767  0.2717 -0.8335  1.2493
 4693TIP3   OH235493   2.172   3.795  13.126  0.0445  0.0379 -0.0143
 4693TIP3    H135494   2.253   3.809  13.174  2.3752 -0.1703 -3.4655
 4693TIP3    H235495   2.109   3.854  13.166  2.0962  0.8192  2.3052
 4694TIP3   OH235496   4.844   4.707  10.622  0.8682  0.1039 -0.7687
 4694TIP3    H135497   4.870   4.737  10.535 -0.7578  0.6311 -1.1081
 4694TIP3    H235498   4.749   4.700  10.618  0.7818 -0.1957  0.8649
 4695TIP3   OH235499   2.755   4.875   1.002  0.2622  0.2465  0.3944
 4695TIP3    H135500   2.811   4.939   0.959  1.6380 -0.9917  0.2512
 4695TIP3    H235501   2.666   4.895   0.972  0.8879  0.9302 -1.0761
 4696TIP3   OH235502   3.797   4.874   4.440  0.2936  0.1138 -0.3185
 4696TIP3    H135503   3.881   4.829   4.425 -1.0735 -2.6536 -0.3004
 4696TIP3    H235504   3.794   4.942   4.373  2.8675  0.8475  0.1871
 4697TIP3   OH235505   3.025   1.245   2.944  0.3458 -0.1074  0.0352
 4697TIP3    H135506   2.931   1.266   2.951  0.6915  0.8747  3.4415
 4697TIP3    H235507   3.069   1.320   2.984  2.3836 -1.9581  1.4922
 4698TIP3   OH235508   3.460   5.003  15.224  0.2141  0.0194  0.2587
 4698TIP3    H135509   3.438   5.042  15.139  0.1284  0.7324  0.6028
 4698TIP3    H235510   3.408   5.053  15.287 -1.6138 -2.0707  0.5215
 4699TIP3   OH235511   3.395   0.234   4.502  0.6508 -0.3977 -0.3492
 4699TIP3    H135512   3.338   0.300   4.541  0.3574  0.0812 -1.5384
 4699TIP3    H235513   3.337   0.159   4.488  0.8403 -0.7042  0.4264
 4700TIP3   OH235514   1.438   4.666   4.754 -0.6274 -0.0447 -0.7296
 4700TIP3    H135515   1.369   4.615   4.712 -1.1848 -1.3410  1.5716
 4700TIP3    H235516   1.467   4.728   4.687 -1.7313 -1.6579 -2.8168
 4701TIP3   OH235517   4.502   5.702  11.168  0.0447 -0.0510 -0.1207
 4701TIP3    H135518   4.457   5.709  11.083 -0.1972  0.6999  0.0699
 4701TIP3    H235519   4.469   5.619  11.204 -0.1371 -0.1919 -0.5894
 4702TIP3   OH235520   3.060   3.155   4.908 -0.6745  1.3507  0.1584
 4702TIP3    H135521   3.119   3.083   4.887 -0.7913  1.7956 -1.8426
 4702TIP3    H235522   2.988   3.114   4.956  0.2171  0.4807  0.7912
 4703TIP3   OH235523   2.278   6.650  13.514 -0.5104 -0.1000  1.0102
 4703TIP3    H135524   2.319   6.736  13.525 -1.3529  0.7116 -1.4976
 4703TIP3    H235525   2.352   6.589  13.508  0.1881  0.7851  0.4073
 4704TIP3   OH235526   0.131   0.539  10.854  0.6875  0.2074  0.4821
 4704TIP3    H135527   0.214   0.543  10.902 -0.6191  0.2762  2.8764
 4704TIP3    H235528   0.155   0.562  10.764  3.0940  1.3229  1.3061
 4705TIP3   OH235529   1.112   1.185   2.247  0.0217 -0.5645  0.0914
 4705TIP3    H135530   1.145   1.274   2.239 -1.8869  0.2261  0.4197
 4705TIP3    H235531   1.172   1.141   2.307 -0.3995  1.2708  1.9495
 4706TIP3   OH235532   2.790   3.550   0.704  0.0479  0.3341  0.5380
 4706TIP3    H135533   2.877   3.566   0.667  0.3698  0.7719  1.4518
 4706TIP3    H235534   2.807   3.509   0.788 -0.5923  1.1673  1.0965
 4707TIP3   OH235535   0.684   1.647   3.471  0.2109  0.5306  0.5697
 4707TIP3    H135536   0.705   1.556   3.449 -1.8469  0.4748 -1.4720
 4707TIP3    H235537   0.759   1.697   3.439  0.8279 -0.3246  0.6397
 4708TIP3   OH235538   1.917   4.326  12.894 -0.5196  0.4435  0.5353
 4708TIP3    H135539   1.826   4.296  12.884 -0.5489  1.0778 -1.7084
 4708TIP3    H235540   1.913   4.395  12.959 -1.6735  0.5142  0.4045
 4709TIP3   OH235541   0.660   2.416   0.104 -0.7001  0.2529 -0.2995
 4709TIP3    H135542   0.729   2.463   0.058 -0.8758  1.0366  0.2254
 4709TIP3    H235543   0.590   2.480   0.115 -1.5282 -0.5279 -0.8295
 4710TIP3   OH235544   6.647   4.324  12.490 -0.0961 -0.2750  0.0579
 4710TIP3    H135545   6.567   4.365  12.523  0.9400  1.8513  0.0917
 4710TIP3    H235546   6.660   4.362  12.403  1.6688  0.7080  0.6721
 4711TIP3   OH235547   2.272   5.344  11.098  0.3653  0.9671  0.2187
 4711TIP3    H135548   2.227   5.333  11.014 -2.4482  0.2884  1.6996
 4711TIP3    H235549   2.212   5.307  11.162  2.8736  0.5298  2.4682
 4712TIP3   OH235550   6.241   4.379   5.385 -0.6633 -0.4653  0.1893
 4712TIP3    H135551   6.256   4.298   5.336  0.0490 -1.2290  1.6079
 4712TIP3    H235552   6.231   4.446   5.318 -0.2773 -1.5637 -1.0061
 4713TIP3   OH235553   6.127   0.461   4.661  0.3221  0.1408 -0.0488
 4713TIP3    H135554   6.051   0.418   4.700 -0.6979  0.8041 -1.1979
 4713TIP3    H235555   6.173   0.391   4.614  0.6204 -0.3267  0.9144
 4714TIP3   OH235556   5.641   4.314   2.306  0.2469  0.2963 -0.1203
 4714TIP3    H135557   5.688   4.382   2.355 -2.0081  1.3453  0.7062
 4714TIP3    H235558   5.670   4.327   2.215 -0.5884  2.8489 -0.1060
 4715TIP3   OH235559   4.761   3.895  15.648 -0.8457 -0.2338  0.2560
 4715TIP3    H135560   4.714   3.967  15.606 -0.4913 -0.3180 -0.3038
 4715TIP3    H235561   4.693   3.834  15.676 -1.0545 -0.9848 -1.7055
 4716TIP3   OH235562   4.420   0.059  12.923 -0.1251  0.0191  0.0601
 4716TIP3    H135563   4.398  -0.025  12.962 -0.7385  0.2598  0.2451
 4716TIP3    H235564   4.404   0.047  12.829  1.0696 -0.4706 -0.0918
 4717TIP3   OH235565   5.373   4.598   1.319  0.6777  0.4526 -0.3737
 4717TIP3    H135566   5.407   4.511   1.338 -3.1060 -1.2123 -0.3801
 4717TIP3    H235567   5.370   4.642   1.403  0.2695 -0.4097  0.0757
 4718TIP3   OH235568   1.035   5.599   1.041  0.1898 -0.3160  0.1496
 4718TIP3    H135569   1.088   5.594   0.961  0.4429 -0.6484  0.3301
 4718TIP3    H235570   0.946   5.577   1.013  0.4562 -1.4648  0.1164
 4719TIP3   OH235571   6.424   3.257  10.334  0.4907 -0.6352  0.5930
 4719TIP3    H135572   6.463   3.237  10.249  1.0226 -2.0299  1.1325
 4719TIP3    H235573   6.341   3.300  10.314  1.4125  0.6625 -0.6064
 4720TIP3   OH235574   6.447   2.160   2.113 -0.4184  0.4508  0.3964
 4720TIP3    H135575   6.435   2.066   2.100 -1.1920  0.6270 -0.2252
 4720TIP3    H235576   6.509   2.167   2.186  1.6202 -0.5457 -1.1409
 4721TIP3   OH235577   2.105   5.761   0.839 -0.3116 -0.3118 -0.2763
 4721TIP3    H135578   2.193   5.749   0.875 -0.5395  0.5737  0.6419
 4721TIP3    H235579   2.056   5.684   0.867 -0.3320  0.1055  0.8661
 4722TIP3   OH235580   1.647   1.451   4.491 -0.2826 -0.3185 -0.0665
 4722TIP3    H135581   1.583   1.522   4.493 -1.1823 -1.1202  1.8545
 4722TIP3    H235582   1.655   1.423   4.582  1.4799 -1.4403 -0.5064
 4723TIP3   OH235583   6.309   6.126   4.957 -0.0376 -0.2508 -0.0596
 4723TIP3    H135584   6.249   6.183   4.909  1.4443  0.9171 -0.6163
 4723TIP3    H235585   6.253   6.064   5.003 -1.6719  1.0329 -0.2530
 4724TIP3   OH235586   5.831   3.080  13.996  0.2753  0.2750 -0.8097
 4724TIP3    H135587   5.899   3.073  13.929  1.0237  1.1486 -0.1749
 4724TIP3    H235588   5.798   3.170  13.987  2.5155  1.5140  1.9096
 4725TIP3   OH235589   2.214   0.513   1.280  0.3391 -0.6989 -0.1589
 4725TIP3    H135590   2.127   0.502   1.318  0.0640  0.8245 -0.2981
 4725TIP3    H235591   2.214   0.457   1.203 -0.7590 -0.1922 -0.5404
 4726TIP3   OH235592   3.265   3.187  15.034  0.4307 -0.5962 -0.0056
 4726TIP3    H135593   3.359   3.177  15.044  0.7941  1.7037 -0.5171
 4726TIP3    H235594   3.232   3.193  15.124  1.0803  0.6336  0.1724
 4727TIP3   OH235595   1.180   1.266  13.293 -0.0219 -0.1261 -0.2149
 4727TIP3    H135596   1.143   1.346  13.255  0.7898  0.7387  0.7779
 4727TIP3    H235597   1.109   1.202  13.286 -0.9488  0.8776 -0.3577
 4728TIP3   OH235598   6.836   6.294  13.933  0.7180 -0.2936 -0.0837
 4728TIP3    H135599   6.898   6.250  13.875  0.3009 -1.2680  0.1779
 4728TIP3    H235600   6.760   6.312  13.877  0.9424  0.2247 -0.2238
 4729TIP3   OH235601   4.074   6.072   0.796 -0.3597 -0.2980 -0.4165
 4729TIP3    H135602   4.112   6.159   0.798 -0.2269 -0.2714 -2.2925
 4729TIP3    H235603   4.097   6.033   0.880  0.1496  1.2302  0.1693
 4730TIP3   OH235604   3.691   1.286   0.341  0.8551 -0.2371  0.0545
 4730TIP3    H135605   3.656   1.329   0.419 -0.3619 -1.0938  0.0211
 4730TIP3    H235606   3.773   1.332   0.322 -0.1098  1.6831  0.3152
 4731TIP3   OH235607   2.246   5.584   1.313 -0.0017  0.4291 -0.4225
 4731TIP3    H135608   2.151   5.588   1.310 -0.1121 -1.5776 -1.7926
 4731TIP3    H235609   2.266   5.527   1.388  0.0944  0.4316 -0.4454
 4732TIP3   OH235610   1.869   4.701  16.543  0.1115  0.4990 -0.1482
 4732TIP3    H135611   1.925   4.643  16.490  0.9461  0.8971  0.2716
 4732TIP3    H235612   1.886   4.674  16.633 -0.4662  0.5547 -0.0228
 4733TIP3   OH235613   1.922   0.076   0.761  0.8260 -0.3929  0.8151
 4733TIP3    H135614   1.923  -0.017   0.784  0.1738  0.1367  3.3406
 4733TIP3    H235615   1.955   0.121   0.839 -0.9049  1.6152  0.5085
 4734TIP3   OH235616   0.110   3.687  15.398 -0.1227 -0.0366 -0.4064
 4734TIP3    H135617   0.089   3.691  15.491 -0.9547 -1.5192 -0.5076
 4734TIP3    H235618   0.033   3.647  15.357  0.0173  1.0487 -1.8195
 4735TIP3   OH235619   0.241   6.128   0.184  0.6051 -0.3702 -0.0436
 4735TIP3    H135620   0.177   6.124   0.114  0.1635 -1.1112  0.3892
 4735TIP3    H235621   0.190   6.121   0.264  1.0506  0.9568  0.3948
 4736TIP3   OH235622   4.367   6.851  11.536  0.4290  0.3658 -0.0821
 4736TIP3    H135623   4.391   6.791  11.607 -0.9845  1.0426  1.0041
 4736TIP3    H235624   4.359   6.936  11.578  0.8923  1.0434 -1.3262
 4737TIP3   OH235625   3.748   1.460  11.577 -0.1327  0.0337  0.3985
 4737TIP3    H135626   3.710   1.373  11.560  1.7559 -1.1258  1.7639
 4737TIP3    H235627   3.697   1.494  11.650 -0.7076 -0.0278  0.0337
 4738TIP3   OH235628   6.202   3.436   3.491  0.0784  0.3591  0.4142
 4738TIP3    H135629   6.167   3.355   3.454 -0.3408  0.4619  0.5835
 4738TIP3    H235630   6.290   3.443   3.454  0.4122 -0.5769  0.9967
 4739TIP3   OH235631   1.153   5.823   4.772  0.0731  0.3548  0.0505
 4739TIP3    H135632   1.151   5.727   4.769  2.0916  0.2911 -0.9806
 4739TIP3    H235633   1.244   5.844   4.794  0.0070  2.0548 -1.1534
 4740TIP3   OH235634   2.754   5.830   3.587  0.0055  0.9735 -0.3372
 4740TIP3    H135635   2.810   5.768   3.540  0.2421  0.5090  0.5359
 4740TIP3    H235636   2.673   5.832   3.536 -0.3952 -0.8513  0.1384
 4741TIP3   OH235637   3.116   6.665  10.438 -0.2371  0.1173 -0.2667
 4741TIP3    H135638   3.169   6.714  10.376 -3.9274  4.0926 -0.7844
 4741TIP3    H235639   3.084   6.731  10.499 -1.5725 -2.6313  2.2825
 4742TIP3   OH235640   2.745   5.166   3.405  0.1573 -0.1073 -0.7980
 4742TIP3    H135641   2.731   5.093   3.345  0.4896 -0.6432 -0.2391
 4742TIP3    H235642   2.771   5.125   3.487 -0.1947  0.6190 -0.3125
 4743TIP3   OH235643   4.464   3.804  13.634  0.6203  0.1798 -1.1807
 4743TIP3    H135644   4.432   3.799  13.724  1.1660 -1.2649 -1.0302
 4743TIP3    H235645   4.462   3.713  13.603 -0.2797  0.7443 -2.9015
 4744TIP3   OH235646   1.586   0.819   3.355 -0.0933 -0.5580 -0.4473
 4744TIP3    H135647   1.504   0.800   3.400 -0.8602  0.3403 -1.4294
 4744TIP3    H235648   1.603   0.740   3.303 -0.2806 -0.7791 -0.1777
 4745TIP3   OH235649   2.113   0.534   3.922  0.6519 -0.2790 -0.0576
 4745TIP3    H135650   2.076   0.447   3.905 -0.1088  0.1761 -0.7966
 4745TIP3    H235651   2.204   0.528   3.893  0.9955 -1.2017  1.1111
 4746TIP3   OH235652   5.187   5.299  16.431 -0.3521 -0.8365  0.0640
 4746TIP3    H135653   5.117   5.360  16.412 -1.1253 -1.6358  0.2969
 4746TIP3    H235654   5.204   5.254  16.348  1.3083  0.7470 -0.5285
 4747TIP3   OH235655   1.901   2.279   1.934  0.6369  0.0836  0.5669
 4747TIP3    H135656   1.882   2.221   1.860 -0.7876  0.9570  0.2021
 4747TIP3    H235657   1.840   2.252   2.002 -1.6222  2.4246 -0.3450
 4748TIP3   OH235658   0.497   6.132  14.348 -0.1516 -0.2924 -0.0844
 4748TIP3    H135659   0.477   6.225  14.339 -0.0108  0.0673  2.5451
 4748TIP3    H235660   0.427   6.088  14.300 -0.4336  1.1538 -1.0435
 4749TIP3   OH235661   4.576   4.212  12.182 -0.2330  0.3182  0.1696
 4749TIP3    H135662   4.570   4.268  12.105 -0.4823  1.4085  0.9442
 4749TIP3    H235663   4.485   4.197  12.208 -0.1455  0.1666  0.3913
 4750TIP3   OH235664   3.823   5.421  11.332  0.1213  0.7034  0.3265
 4750TIP3    H135665   3.862   5.469  11.405  1.2928 -1.1263  0.9814
 4750TIP3    H235666   3.865   5.335  11.335 -2.0910 -0.4842 -0.5967
 4751TIP3   OH235667   6.117   1.302   0.740  0.8281 -0.1483 -0.4825
 4751TIP3    H135668   6.037   1.335   0.699  0.2952 -1.4107 -0.5301
 4751TIP3    H235669   6.184   1.367   0.720  0.1604  0.1701 -1.7894
 4752TIP3   OH235670   4.992   4.177   3.615 -0.0724  0.0417 -0.3579
 4752TIP3    H135671   5.059   4.181   3.683 -1.1760  1.2897  0.7293
 4752TIP3    H235672   5.013   4.249   3.556  0.0572 -0.1315 -0.5232
 4753TIP3   OH235673   6.623   0.825   3.272 -0.3213 -0.4620 -0.0743
 4753TIP3    H135674   6.591   0.758   3.211  1.2852 -0.5848 -0.8170
 4753TIP3    H235675   6.555   0.892   3.272 -1.8175 -1.9121  0.4430
 4754TIP3   OH235676   0.225   2.436  10.938  0.4219 -0.6853 -0.2835
 4754TIP3    H135677   0.207   2.480  10.855  0.0285  1.4129  0.8590
 4754TIP3    H235678   0.299   2.484  10.976  1.0759 -2.0681  0.2897
 4755TIP3   OH235679   1.387   5.012  15.691  0.1966 -0.5623 -0.6763
 4755TIP3    H135680   1.387   5.022  15.595 -0.0036 -1.4808 -0.7825
 4755TIP3    H235681   1.311   4.957  15.709  0.5038 -0.7781 -0.0296
 4756TIP3   OH235682   1.342   5.623  11.263  0.0364  0.0533  0.9956
 4756TIP3    H135683   1.332   5.717  11.279  0.3754  0.1133  0.8649
 4756TIP3    H235684   1.268   5.583  11.308 -0.4946  0.4422  0.4834
 4757TIP3   OH235685   2.465   5.422   4.555  0.2372 -0.1333 -0.2647
 4757TIP3    H135686   2.534   5.376   4.507 -1.3033 -1.1971 -1.5745
 4757TIP3    H235687   2.419   5.473   4.488  0.7496  1.9132  0.8543
 4758TIP3   OH235688   2.034   5.500   6.336 -0.4485  0.2515 -0.2850
 4758TIP3    H135689   2.050   5.406   6.348 -0.5599  0.1526 -0.8813
 4758TIP3    H235690   1.939   5.509   6.338 -0.6002 -0.0163 -2.6246
 4759TIP3   OH235691   1.033   3.149  12.385 -0.2974  0.6730  0.3228
 4759TIP3    H135692   1.050   3.060  12.416  1.1205  0.8152  0.0536
 4759TIP3    H235693   1.043   3.203  12.463 -0.6030  0.6570  0.3755
 4760TIP3   OH235694   6.009   3.720  10.499 -0.0286 -0.5646  0.0570
 4760TIP3    H135695   6.020   3.625  10.502  0.5699 -0.5337 -0.7464
 4760TIP3    H235696   6.057   3.747  10.421 -0.6355  0.3452 -0.0133
 4761TIP3   OH235697   6.805   3.849   3.212  0.4850  0.5515  0.4077
 4761TIP3    H135698   6.855   3.769   3.231 -0.6922 -0.3617 -0.1824
 4761TIP3    H235699   6.871   3.917   3.204  1.4944 -0.2698  1.3783
 4762TIP3   OH235700   1.406   2.173  15.291  0.6093  0.1412 -0.0798
 4762TIP3    H135701   1.455   2.114  15.234 -0.0844 -1.1819  0.6373
 4762TIP3    H235702   1.334   2.205  15.237 -0.4383 -1.6304  0.1773
 4763TIP3   OH235703   0.419   1.891   2.077  0.4578  0.3607  0.0674
 4763TIP3    H135704   0.406   1.836   1.999  1.4134 -1.7905  1.3403
 4763TIP3    H235705   0.479   1.960   2.047  1.1119 -0.6448 -1.0379
 4764TIP3   OH235706   2.694   5.426   0.364 -0.2217 -1.0991 -0.5013
 4764TIP3    H135707   2.644   5.351   0.334 -3.4525  0.3933  0.6514
 4764TIP3    H235708   2.705   5.411   0.458  0.6587 -0.8995 -0.5600
 4765TIP3   OH235709   3.174   3.360  16.597  0.0178 -0.2374 -0.1837
 4765TIP3    H135710   3.227   3.343  16.675  1.3971  1.8097 -0.5944
 4765TIP3    H235711   3.220   3.317  16.526  1.3589  1.7278 -0.5790
 4766TIP3   OH235712   5.807   3.280  12.172  0.0283 -0.5790 -0.4305
 4766TIP3    H135713   5.776   3.339  12.241  1.2370 -1.1179  0.6265
 4766TIP3    H235714   5.801   3.193  12.211 -0.2706 -1.0130 -1.4099
 4767TIP3   OH235715   2.039   1.423   1.074  0.0114  0.6207 -0.1834
 4767TIP3    H135716   2.102   1.455   1.009  0.5828  0.2239  0.1739
 4767TIP3    H235717   2.079   1.345   1.110  0.0822  1.2897  1.2521
 4768TIP3   OH235718   1.561   6.403  12.632 -0.3875  0.1680 -0.1959
 4768TIP3    H135719   1.523   6.490  12.635 -2.5223 -0.6553 -1.0823
 4768TIP3    H235720   1.513   6.353  12.699 -0.4698 -0.7599 -0.9201
 4769TIP3   OH235721   2.196   2.500   0.664  0.1924 -0.0087 -0.3070
 4769TIP3    H135722   2.237   2.419   0.634  2.3440  1.0687 -0.4873
 4769TIP3    H235723   2.207   2.498   0.759 -2.6802 -1.3710  0.0857
 4770TIP3   OH235724   1.771   2.603   2.706 -0.3818 -0.0023 -0.2104
 4770TIP3    H135725   1.707   2.624   2.638 -1.6799  1.3483  1.3557
 4770TIP3    H235726   1.849   2.652   2.681 -1.1585  1.2662 -0.2359
 4771TIP3   OH235727   2.234   4.397   5.175  0.2968  0.7095  0.3171
 4771TIP3    H135728   2.295   4.415   5.247  1.5685 -1.0419 -0.2751
 4771TIP3    H235729   2.266   4.451   5.102 -1.4111  3.0526  1.1413
 4772TIP3   OH235730   6.545   0.611  11.734 -0.0733 -0.3939 -0.0184
 4772TIP3    H135731   6.588   0.672  11.794 -2.8144  1.2879  0.3874
 4772TIP3    H235732   6.508   0.544  11.792 -0.7732 -0.0136 -0.0103
 4773TIP3   OH235733   1.435   0.007   5.442  0.0349 -0.1802  0.2432
 4773TIP3    H135734   1.356   0.055   5.467 -1.2794 -1.4587 -1.1924
 4773TIP3    H235735   1.466  -0.031   5.524 -0.6847  0.5612  0.8836
 4774TIP3   OH235736   5.772   3.565  12.307  0.7269 -0.1023  0.2467
 4774TIP3    H135737   5.848   3.529  12.352  0.8375 -0.7603 -0.4658
 4774TIP3    H235738   5.806   3.600  12.225  1.1295  4.0489  1.9115
 4775TIP3   OH235739   1.345   6.756   1.488 -0.0708 -0.4945  0.1075
 4775TIP3    H135740   1.274   6.726   1.544 -0.6216  0.1960 -0.2027
 4775TIP3    H235741   1.376   6.837   1.529 -1.3600  0.7569 -1.2391
 4776TIP3   OH235742   3.222   4.283  12.741 -0.2181 -0.8216  0.0326
 4776TIP3    H135743   3.304   4.234  12.743 -0.5627 -1.3995  2.0816
 4776TIP3    H235744   3.191   4.273  12.651  1.4735 -1.3594 -0.5419
 4777TIP3   OH235745   3.574   3.880  12.817 -0.8389  1.0229  0.5471
 4777TIP3    H135746   3.483   3.854  12.806 -0.8267  0.0597  2.4541
 4777TIP3    H235747   3.590   3.943  12.746 -1.9192 -1.4625 -2.0683
 4778TIP3   OH235748   2.627   6.108   5.277 -0.1842 -0.0609 -0.2269
 4778TIP3    H135749   2.719   6.128   5.292 -0.2199 -0.2234  0.2311
 4778TIP3    H235750   2.607   6.038   5.339 -0.6244 -0.0025 -0.2970
 4779TIP3   OH235751   3.979   0.513  15.320 -0.0343 -0.6616  0.5070
 4779TIP3    H135752   3.982   0.418  15.312 -2.5975 -0.6938 -1.2629
 4779TIP3    H235753   4.049   0.544  15.262  0.5407 -1.4463  0.7707
 4780TIP3   OH235754   0.618   5.341  16.456 -0.2858  0.5135 -0.6513
 4780TIP3    H135755   0.566   5.339  16.537  0.3610 -0.0333 -0.2406
 4780TIP3    H235756   0.569   5.285  16.395  0.7874 -1.6656  0.3670
 4781TIP3   OH235757   3.709   4.823   2.390 -0.4117 -0.2706 -0.5791
 4781TIP3    H135758   3.754   4.762   2.332  2.3772  1.1229 -0.0512
 4781TIP3    H235759   3.640   4.861   2.336  1.1250 -0.1249 -2.5801
 4782TIP3   OH235760   1.459   5.397   1.874  0.4596  0.3449 -0.0977
 4782TIP3    H135761   1.463   5.481   1.827 -1.6087  0.4781 -0.1458
 4782TIP3    H235762   1.536   5.398   1.931  0.7312  2.0849 -0.4161
 4783TIP3   OH235763   6.313   1.524   1.274  0.0514 -0.0779  0.2780
 4783TIP3    H135764   6.398   1.482   1.287  0.4612  0.7265  0.2003
 4783TIP3    H235765   6.256   1.482   1.339  0.7902  0.2152  1.1308
 4784TIP3   OH235766   5.438   2.202  10.867 -0.2766  0.1840  0.7350
 4784TIP3    H135767   5.398   2.228  10.950 -0.3822 -0.9472  1.0549
 4784TIP3    H235768   5.365   2.190  10.807 -0.2854 -0.0892  0.7990
 4785TIP3   OH235769   3.162   4.459  10.794  0.2247 -0.9456 -0.2767
 4785TIP3    H135770   3.201   4.387  10.843 -0.5030 -1.4254 -0.3937
 4785TIP3    H235771   3.152   4.425  10.705  0.1613 -0.5981 -0.4045
 4786TIP3   OH235772   1.630   1.869  14.229 -0.4252  0.0644 -0.4323
 4786TIP3    H135773   1.587   1.844  14.147 -1.5030 -0.7190  0.3320
 4786TIP3    H235774   1.600   1.958  14.246 -2.2690 -0.6512  0.3567
 4787TIP3   OH235775   0.781   2.905   0.551 -0.1740 -1.5118 -0.1795
 4787TIP3    H135776   0.830   2.966   0.607 -1.6544 -0.3803 -0.0574
 4787TIP3    H235777   0.784   2.822   0.598  0.2044 -1.0508  0.6453
 4788TIP3   OH235778   2.779   4.207   4.627  0.0623 -0.0849  0.0501
 4788TIP3    H135779   2.835   4.255   4.689  0.5634  1.1447 -1.2964
 4788TIP3    H235780   2.732   4.144   4.681  2.3635 -0.8125  1.3271
 4789TIP3   OH235781   1.893   3.346  15.897  0.0815  0.4913  0.2967
 4789TIP3    H135782   1.897   3.307  15.984 -0.5805 -0.6871 -0.1824
 4789TIP3    H235783   1.809   3.392  15.895  0.8668  2.0161  0.8659
 4790TIP3   OH235784   3.212   3.364   0.684  0.2115 -0.3852  0.2193
 4790TIP3    H135785   3.277   3.419   0.726  1.2121 -1.6431  0.3774
 4790TIP3    H235786   3.202   3.289   0.743 -0.1381 -1.0159 -0.6160
 4791TIP3   OH235787   5.221   3.888  15.645  0.7753 -0.3827  0.0637
 4791TIP3    H135788   5.143   3.838  15.668  1.0058 -0.4778  0.6386
 4791TIP3    H235789   5.196   3.934  15.565  0.3689 -0.9655 -0.1529
 4792TIP3   OH235790   0.109   4.965   2.517  1.0034  0.0763 -0.3305
 4792TIP3    H135791   0.159   4.927   2.445  0.4796  0.7436 -1.0604
 4792TIP3    H235792   0.035   5.008   2.475 -0.6246 -1.5220  0.7788
 4793TIP3   OH235793   2.616   1.225   1.146  0.6106  0.3574 -0.0941
 4793TIP3    H135794   2.677   1.278   1.198 -0.5539  1.2509  0.4175
 4793TIP3    H235795   2.542   1.283   1.130  0.1506 -0.5095 -1.2157
 4794TIP3   OH235796   6.792   6.522   1.623 -0.2766 -0.5424 -0.6463
 4794TIP3    H135797   6.736   6.563   1.556 -0.5891 -0.1604 -0.1608
 4794TIP3    H235798   6.796   6.587   1.693  1.5812 -0.1572 -1.0734
 4795TIP3   OH235799   4.106   5.111   1.864  0.2518 -0.2346 -0.1593
 4795TIP3    H135800   4.121   5.205   1.875  3.2103  0.2351 -5.1044
 4795TIP3    H235801   4.160   5.070   1.932  0.9058  1.6455  0.5320
 4796TIP3   OH235802   3.194   6.369   0.668  0.2204 -0.1563  0.2969
 4796TIP3    H135803   3.151   6.414   0.596 -0.4659 -0.0098  0.7790
 4796TIP3    H235804   3.270   6.422   0.688 -0.0745  0.2890  0.2533
 4797TIP3   OH235805   0.828   1.380   2.130  0.3088 -0.0814  0.1267
 4797TIP3    H135806   0.900   1.320   2.151 -0.5008 -1.1959 -0.2134
 4797TIP3    H235807   0.872   1.463   2.109  1.5378 -0.8820 -0.6144
 4798TIP3   OH235808   1.129   1.628  10.669  0.4337  0.2598  0.3385
 4798TIP3    H135809   1.187   1.597  10.599  0.4040 -0.1616  0.4979
 4798TIP3    H235810   1.068   1.688  10.626  0.7185  0.3779  0.0928
 4799TIP3   OH235811   2.738   0.734   2.162 -0.1407  0.0110 -0.3070
 4799TIP3    H135812   2.805   0.748   2.229  1.1202  1.1942 -1.7498
 4799TIP3    H235813   2.746   0.641   2.140  0.4802 -0.0446  0.1101
 4800TIP3   OH235814   2.924   0.112  14.533  0.5557 -0.1787 -0.1381
 4800TIP3    H135815   2.874   0.077  14.606 -1.3239  1.6493 -0.4538
 4800TIP3    H235816   2.969   0.036  14.495 -0.8605 -1.6562  1.0493
 4801TIP3   OH235817   5.785   3.022  16.119 -0.5505 -0.0367  0.0905
 4801TIP3    H135818   5.840   2.945  16.110 -1.6243 -0.9658  1.2135
 4801TIP3    H235819   5.696   2.990  16.106 -0.8594  1.5517 -2.3820
 4802TIP3   OH235820   3.162   5.672   3.927  0.7438 -0.2219  0.4964
 4802TIP3    H135821   3.165   5.577   3.915 -1.7014 -0.4604  1.1708
 4802TIP3    H235822   3.183   5.708   3.841  3.2965 -1.2647  0.5978
 4803TIP3   OH235823   4.400   1.739   1.636  0.1831  0.0585  0.0028
 4803TIP3    H135824   4.356   1.812   1.679  0.2407  0.5933 -0.8100
 4803TIP3    H235825   4.430   1.776   1.552 -0.0003 -0.9590 -0.5214
 4804TIP3   OH235826   1.857   6.257  15.805 -0.1932  0.5822 -0.1695
 4804TIP3    H135827   1.915   6.250  15.729  1.9657  1.3940  1.3071
 4804TIP3    H235828   1.893   6.329  15.857 -0.1816 -1.3444  2.7444
 4805TIP3   OH235829   3.132   0.795   3.283  0.2533 -0.2216 -0.1609
 4805TIP3    H135830   3.095   0.859   3.222  0.8333 -0.1887 -0.4845
 4805TIP3    H235831   3.057   0.766   3.335  0.0340  1.0159  0.2670
 4806TIP3   OH235832   6.358   6.130   3.476  0.6357 -0.5924  0.2072
 4806TIP3    H135833   6.312   6.103   3.397  0.6952 -1.3325  0.4182
 4806TIP3    H235834   6.290   6.169   3.531  0.8278  1.2361 -0.7494
 4807TIP3   OH235835   0.865   2.984  14.722  0.1076 -0.3813  0.3968
 4807TIP3    H135836   0.924   3.037  14.669  1.6269 -2.1773  0.2116
 4807TIP3    H235837   0.795   2.959  14.662 -0.0960  0.5437  0.2288
 4808TIP3   OH235838   3.095   1.673   2.975  0.2655  0.9779  1.0470
 4808TIP3    H135839   3.126   1.760   2.999 -1.1219  1.4084  1.3639
 4808TIP3    H235840   3.119   1.664   2.882 -1.1981  2.4775  0.4677
 4809TIP3   OH235841   0.864   3.842  10.606  0.4083  0.6318 -0.6268
 4809TIP3    H135842   0.865   3.784  10.683  2.1704 -1.7919 -2.3371
 4809TIP3    H235843   0.868   3.930  10.643  0.0662 -0.3823  2.0774
 4810TIP3   OH235844   4.267   0.448  12.697  0.4981 -0.2500  0.2035
 4810TIP3    H135845   4.313   0.531  12.707  0.2978 -0.2889  1.7665
 4810TIP3    H235846   4.200   0.450  12.765  0.6454 -1.7792  0.4290
 4811TIP3   OH235847   3.741   1.753  11.921  0.6993  0.6604  0.3573
 4811TIP3    H135848   3.804   1.823  11.907  0.2873  0.6781 -1.7061
 4811TIP3    H235849   3.671   1.794  11.973  1.0810  1.4043  0.2945
 4812TIP3   OH235850   0.727   3.454  11.102 -0.3531 -0.9354  0.6780
 4812TIP3    H135851   0.674   3.527  11.068 -0.8172 -0.8917  1.4675
 4812TIP3    H235852   0.709   3.454  11.196 -0.9592 -2.5398  0.5891
 4813TIP3   OH235853   4.506   6.820  12.425 -0.0149 -0.1669 -0.0541
 4813TIP3    H135854   4.476   6.885  12.361  0.3060 -0.2997 -0.3469
 4813TIP3    H235855   4.539   6.871  12.498  1.3170  0.0488 -0.7702
 4814TIP3   OH235856   3.819   2.557   4.025  0.3713 -0.5506 -0.4499
 4814TIP3    H135857   3.811   2.652   4.037  1.4964 -0.6861  1.7951
 4814TIP3    H235858   3.872   2.548   3.945  1.5245  0.7753  0.1200
 4815TIP3   OH235859   4.287   1.056   4.015  0.4986  0.7338  0.4132
 4815TIP3    H135860   4.284   0.969   4.055  2.3430 -0.5888 -2.0783
 4815TIP3    H235861   4.205   1.062   3.966  0.1793  0.5699  0.9218
 4816TIP3   OH235862   3.852   5.034   1.280  0.6145  0.1883 -0.2322
 4816TIP3    H135863   3.756   5.027   1.287  0.7339 -0.2897  1.5221
 4816TIP3    H235864   3.884   4.984   1.355  2.2093  1.5441  0.0217
 4817TIP3   OH235865   0.125   1.340  10.225  0.0804  0.5988  0.1003
 4817TIP3    H135866   0.103   1.426  10.260 -0.2660  1.2571 -1.6419
 4817TIP3    H235867   0.219   1.343  10.209  0.4435 -0.0626  1.7916
 4818TIP3   OH235868   6.192   3.894   4.697 -0.1297 -0.2423  0.3829
 4818TIP3    H135869   6.129   3.850   4.755  0.2544  2.0694  2.7240
 4818TIP3    H235870   6.277   3.880   4.738  0.4240 -0.1321 -0.6921
 4819TIP3   OH235871   6.186   0.638   1.941 -0.0251 -0.0935  0.3994
 4819TIP3    H135872   6.252   0.570   1.928  1.6780  1.2172  1.5790
 4819TIP3    H235873   6.103   0.591   1.950  0.3614 -1.6968 -3.0031
 4820TIP3   OH235874   5.937   4.338   4.023 -0.2049 -0.3003  0.2152
 4820TIP3    H135875   5.874   4.271   3.995 -0.3882 -0.1083  0.1722
 4820TIP3    H235876   5.898   4.421   3.997  0.5396 -0.2329 -0.7472
 4821TIP3   OH235877   4.868   1.183  10.581 -0.4684  0.4519 -0.2486
 4821TIP3    H135878   4.951   1.231  10.592 -0.7510  0.5482  1.9542
 4821TIP3    H235879   4.894   1.095  10.555  0.1990  0.9684 -1.4476
 4822TIP3   OH235880   6.676   2.201  16.304 -0.6115 -0.0922  0.4732
 4822TIP3    H135881   6.633   2.153  16.375  0.3861 -2.2862 -0.2975
 4822TIP3    H235882   6.765   2.216  16.335 -0.7989  0.9603  0.5407
 4823TIP3   OH235883   0.860   5.290  10.798 -0.2079 -0.1047 -0.0499
 4823TIP3    H135884   0.834   5.259  10.711 -0.3158 -0.8436  0.2468
 4823TIP3    H235885   0.785   5.340  10.829 -1.0581 -1.7102  0.5487
 4824TIP3   OH235886   0.469   5.902   0.620  0.1377  0.2722  0.0160
 4824TIP3    H135887   0.387   5.942   0.650 -0.1166 -0.1996 -0.0405
 4824TIP3    H235888   0.485   5.830   0.682  0.6754  0.5506  0.2117
 4825TIP3   OH235889   0.361   2.693   2.085 -0.5886 -0.1780  0.2934
 4825TIP3    H135890   0.424   2.639   2.038 -2.1833 -1.1969 -0.7479
 4825TIP3    H235891   0.309   2.736   2.017 -2.2234 -0.8205  1.0821
 4826TIP3   OH235892   1.341   3.295   0.469 -0.0034  0.4138 -0.1443
 4826TIP3    H135893   1.376   3.287   0.381  2.5208 -2.2668  0.9339
 4826TIP3    H235894   1.261   3.242   0.468 -1.4208  2.4417 -1.3509
 4827TIP3   OH235895   2.062   3.599  13.552 -0.1032 -0.2235 -0.0289
 4827TIP3    H135896   2.005   3.619  13.626  1.8209  1.2695  1.1516
 4827TIP3    H235897   2.100   3.513  13.573  0.7198  0.3598  0.9531
 4828TIP3   OH235898   4.267   4.524  16.072  0.5024  0.2956  0.7233
 4828TIP3    H135899   4.359   4.547  16.087  0.4551  0.8585  0.1816
 4828TIP3    H235900   4.271   4.448  16.014  0.6364 -0.1217  1.2747
 4829TIP3   OH235901   6.563   3.001   1.968 -0.2750  0.5327 -0.2368
 4829TIP3    H135902   6.480   3.033   1.932 -0.0114 -0.8704 -2.2323
 4829TIP3    H235903   6.623   3.075   1.958 -1.1222  1.4031  0.7935
 4830TIP3   OH235904   6.690   4.582   0.988 -0.3507 -0.0911 -0.9672
 4830TIP3    H135905   6.625   4.615   0.926 -1.5847 -2.0818 -0.8216
 4830TIP3    H235906   6.638   4.534   1.054  1.1367 -0.2553  0.1316
 4831TIP3   OH235907   3.239   3.392   2.049  0.8204 -0.4320  0.1034
 4831TIP3    H135908   3.220   3.318   2.107 -1.2593  0.7617  1.0507
 4831TIP3    H235909   3.168   3.390   1.984  1.0116  0.4609 -0.1492
 4832TIP3   OH235910   5.907   4.502  10.506  0.3323 -0.0226  0.4687
 4832TIP3    H135911   5.907   4.433  10.572 -0.1842 -2.3050 -1.7839
 4832TIP3    H235912   5.818   4.538  10.509  0.4661  0.2682  1.3340
 4833TIP3   OH235913   2.706   2.411  13.987  0.1271  0.4982  0.2982
 4833TIP3    H135914   2.654   2.332  13.972 -0.1420  0.8441 -0.6566
 4833TIP3    H235915   2.772   2.384  14.051 -0.3769 -0.3158  0.4916
 4834TIP3   OH235916   6.846   4.117  13.533  0.0065  0.5028 -0.2300
 4834TIP3    H135917   6.882   4.070  13.608 -1.4006 -0.4085 -0.1018
 4834TIP3    H235918   6.757   4.083  13.523  0.0020  0.9494 -2.0257
 4835TIP3   OH235919   4.852   4.299  13.174  0.5671  0.3532  0.3766
 4835TIP3    H135920   4.883   4.258  13.255  1.0194  1.3044  0.7071
 4835TIP3    H235921   4.766   4.334  13.196  0.3469 -0.0751  0.2074
 4836TIP3   OH235922   6.505   3.727   3.409  0.2974 -0.0392 -0.1302
 4836TIP3    H135923   6.531   3.778   3.332  1.6951  1.3207  1.1737
 4836TIP3    H235924   6.461   3.791   3.465 -1.4732 -1.2053 -0.1166
 4837TIP3   OH235925   4.872   3.850  13.253 -0.0407 -0.5031  0.4322
 4837TIP3    H135926   4.886   3.860  13.347  0.3445 -1.0309  0.4312
 4837TIP3    H235927   4.779   3.826  13.245 -0.2096  0.0708  0.6365
 4838TIP3   OH235928   1.031   3.921   6.230 -0.0060  0.6337 -0.0616
 4838TIP3    H135929   0.966   3.931   6.160  1.4607  1.0319 -1.4295
 4838TIP3    H235930   1.053   3.827   6.229  0.1552  0.6718 -0.2886
 4839TIP3   OH235931   6.334   2.596   1.533  0.1314  0.0483  0.2339
 4839TIP3    H135932   6.378   2.665   1.483  0.9210 -1.4388 -1.2399
 4839TIP3    H235933   6.281   2.549   1.467 -2.7644  0.9836  1.7122
 4840TIP3   OH235934   2.557   6.663   4.875  0.2923  0.1299  0.1234
 4840TIP3    H135935   2.633   6.704   4.833 -0.0821  0.9928  0.2675
 4840TIP3    H235936   2.529   6.727   4.941  1.0445 -1.2942  1.9192
 4841TIP3   OH235937   2.233   1.901  12.953 -0.2721  0.1720 -0.4042
 4841TIP3    H135938   2.183   1.962  12.899  0.1080  0.8109 -0.0443
 4841TIP3    H235939   2.259   1.831  12.892 -1.7096 -0.2521 -0.5609
 4842TIP3   OH235940   1.546   1.180  12.462 -0.5528 -0.2544 -0.0131
 4842TIP3    H135941   1.619   1.122  12.438 -0.1524  0.4032 -0.4107
 4842TIP3    H235942   1.584   1.268  12.461 -1.8373  0.3921 -2.5679
 4843TIP3   OH235943   6.088   5.173   5.054  0.0632 -0.5294  0.1810
 4843TIP3    H135944   6.012   5.201   5.002 -0.4090 -0.5331  0.8473
 4843TIP3    H235945   6.058   5.094   5.099  0.3327 -0.3119  0.7531
 4844TIP3   OH235946   0.797   1.250   6.240  0.0209  0.7052 -0.0329
 4844TIP3    H135947   0.738   1.303   6.294  0.6515  0.1178  1.2715
 4844TIP3    H235948   0.873   1.233   6.296 -0.5001 -2.2793 -0.0346
 4845TIP3   OH235949   0.298   4.114   5.994 -0.0281 -0.0709  0.3325
 4845TIP3    H135950   0.227   4.157   6.042  1.3875  1.7387  0.8961
 4845TIP3    H235951   0.325   4.178   5.929  0.2413 -1.2635 -0.7734
 4846TIP3   OH235952   6.871   2.334  11.327 -0.5184  0.0085 -0.5756
 4846TIP3    H135953   6.948   2.290  11.364 -1.0124 -1.1084 -0.8271
 4846TIP3    H235954   6.878   2.425  11.357  0.9408 -0.0464 -0.6593
 4847TIP3   OH235955   4.230   2.262   0.171 -0.3943 -0.4039  0.6437
 4847TIP3    H135956   4.167   2.190   0.175  0.2959 -0.9551  2.1197
 4847TIP3    H235957   4.270   2.254   0.084 -0.4039 -1.7422  0.7434
 4848TIP3   OH235958   3.321   3.213   3.152  0.3155  0.5989 -0.2280
 4848TIP3    H135959   3.242   3.225   3.204  0.1054  1.6554 -0.7579
 4848TIP3    H235960   3.297   3.149   3.085  0.3959 -0.2796  0.5616
 4849TIP3   OH235961   6.108   3.476  10.600 -0.2058  0.5317 -0.2653
 4849TIP3    H135962   6.158   3.520  10.531 -0.4337  1.2879  0.0396
 4849TIP3    H235963   6.101   3.386  10.571 -0.4407  0.8758 -1.3128
 4850TIP3   OH235964   1.680   5.108  14.936 -0.1163 -0.2748 -0.2147
 4850TIP3    H135965   1.668   5.025  14.890  0.9724 -0.5275 -0.0647
 4850TIP3    H235966   1.727   5.164  14.875 -0.2045 -0.0151 -0.0479
 4851TIP3   OH235967   2.956   2.171  16.403  0.1775 -0.4706  0.3803
 4851TIP3    H135968   3.006   2.191  16.482  0.1708  0.7459  0.0966
 4851TIP3    H235969   2.866   2.195  16.425  0.3605  0.9501 -0.3572
 4852TIP3   OH235970   0.112   1.894  11.404 -0.2695 -0.4176 -0.2539
 4852TIP3    H135971   0.131   1.919  11.494  2.5456 -0.1227 -0.8249
 4852TIP3    H235972   0.029   1.938  11.383 -0.3138  0.5478  1.7725
 4853TIP3   OH235973   1.196   2.040   1.206  0.2188  0.6497  0.1918
 4853TIP3    H135974   1.165   2.078   1.124 -0.6592  1.1454  0.7450
 4853TIP3    H235975   1.287   2.015   1.187  0.0979  0.9379 -0.8648
 4854TIP3   OH235976   0.522   5.568   4.653 -0.0904 -0.7194  0.1729
 4854TIP3    H135977   0.596   5.508   4.641  0.8722  0.4932 -0.1659
 4854TIP3    H235978   0.464   5.522   4.713  0.4624 -2.1176 -0.3187
 4855TIP3   OH235979   6.578   6.347  13.488 -0.3841 -0.6065  0.4912
 4855TIP3    H135980   6.497   6.358  13.437 -1.4194 -1.5067  1.8642
 4855TIP3    H235981   6.621   6.272  13.449  0.3538  0.5138 -0.9209
 4856TIP3   OH235982   1.929   3.205  15.163  0.1119 -0.1327 -0.2217
 4856TIP3    H135983   2.007   3.258  15.178  0.5679 -0.9601  0.4437
 4856TIP3    H235984   1.962   3.119  15.138 -0.6180 -0.0909 -1.4189
 4857TIP3   OH235985   2.630   6.664  14.118 -0.5021  0.1009 -0.6669
 4857TIP3    H135986   2.659   6.656  14.209 -1.2630  0.1910 -0.4107
 4857TIP3    H235987   2.622   6.574  14.087  0.6025  0.0838 -0.9228
 4858TIP3   OH235988   5.679   1.803  10.739 -0.0532 -0.4999 -0.7914
 4858TIP3    H135989   5.676   1.899  10.746 -0.3365 -0.4292 -1.7243
 4858TIP3    H235990   5.652   1.785  10.649  1.2182 -1.3878 -1.0284
 4859TIP3   OH235991   1.617   0.285   4.616  0.4078 -0.0168  0.1427
 4859TIP3    H135992   1.567   0.221   4.666 -0.9578 -0.4670 -1.7145
 4859TIP3    H235993   1.703   0.244   4.604 -0.5064 -1.6550 -1.1919
 4860TIP3   OH235994   6.812   6.330   3.483  0.8778  0.5531  0.3405
 4860TIP3    H135995   6.850   6.416   3.498  2.7378 -0.0670 -0.4781
 4860TIP3    H235996   6.885   6.269   3.494 -0.1938 -0.8406  0.0439
 4861TIP3   OH235997   6.567   5.274   2.804  0.0115 -0.0439 -0.0741
 4861TIP3    H135998   6.532   5.218   2.735 -0.4691  0.0694  0.0705
 4861TIP3    H235999   6.620   5.216   2.858 -1.0691 -0.5344  0.4978
 4862TIP3   OH236000   0.587   3.900  13.166  0.0892  0.4506 -0.5605
 4862TIP3    H136001   0.621   3.810  13.164  0.5234  0.5003  1.6712
 4862TIP3    H236002   0.648   3.950  13.112 -0.9900 -0.7839 -3.0857
 4863TIP3   OH236003   0.310   2.754   3.869 -0.1270  0.5834 -0.2061
 4863TIP3    H136004   0.397   2.788   3.851 -0.4377  0.6867 -1.5851
 4863TIP3    H236005   0.280   2.717   3.786 -2.1968  2.3394 -0.3422
 4864TIP3   OH236006   4.482   1.942   3.262  0.5073  0.3323  0.1017
 4864TIP3    H136007   4.505   1.996   3.186  2.3663 -1.6960 -0.8806
 4864TIP3    H236008   4.520   1.988   3.337 -0.3833  1.7886 -0.2918
 4865TIP3   OH236009   4.002   4.266  13.554  0.3034 -0.1848  0.1565
 4865TIP3    H136010   4.080   4.220  13.524 -0.2008 -1.3916  0.6231
 4865TIP3    H236011   3.982   4.329  13.484  0.0711 -1.8184 -1.3155
 4866TIP3   OH236012   6.839   0.175  14.689 -0.2399  0.3788  0.3662
 4866TIP3    H136013   6.844   0.121  14.610  1.1550  1.1805 -0.1441
 4866TIP3    H236014   6.863   0.116  14.760  2.0435  0.4092 -0.2696
 4867TIP3   OH236015   2.253   0.001  14.411  0.4517  0.3270 -0.0580
 4867TIP3    H136016   2.176   0.049  14.381 -0.0160  1.3781  2.6012
 4867TIP3    H236017   2.317   0.069  14.433  0.7159 -0.3512  1.3838
 4868TIP3   OH236018   6.698   0.648  10.152  0.4936  0.0277 -0.5774
 4868TIP3    H136019   6.788   0.644  10.120  0.9467 -0.4547  0.7251
 4868TIP3    H236020   6.657   0.716  10.098  1.0706 -1.0708 -2.5143
 4869TIP3   OH236021   0.152   1.403   0.053 -0.2037 -0.1756  0.4622
 4869TIP3    H136022   0.183   1.483   0.010 -2.6782 -0.7584 -2.8445
 4869TIP3    H236023   0.062   1.393   0.021 -0.8564 -2.9974  2.7640
 4870TIP3   OH236024   2.691   2.544  15.953  0.1560  0.5794 -0.0033
 4870TIP3    H136025   2.636   2.508  15.883 -0.0233  0.1940  0.3384
 4870TIP3    H236026   2.644   2.622  15.982 -0.4174  0.0438  0.5500
 4871TIP3   OH236027   1.087   6.805   5.123 -0.1340  0.0107  0.5646
 4871TIP3    H136028   1.030   6.841   5.055  0.0759  1.1202  0.9641
 4871TIP3    H236029   1.066   6.712   5.124 -1.6037  0.3127  0.3729
 4872TIP3   OH236030   1.042   5.064  15.890 -0.6639  0.0922 -0.3185
 4872TIP3    H136031   1.087   4.998  15.838 -0.1843  0.2062 -0.0582
 4872TIP3    H236032   0.949   5.042  15.882 -0.9691  1.9557 -3.8310
 4873TIP3   OH236033   4.194   2.607  12.132 -0.1443 -0.1618 -0.2356
 4873TIP3    H136034   4.284   2.608  12.100  0.0619  0.0003  0.3495
 4873TIP3    H236035   4.191   2.535  12.195 -0.8475 -1.2480 -1.4420
 4874TIP3   OH236036   4.366   2.083  11.690 -0.2643 -1.1179  0.1545
 4874TIP3    H136037   4.414   2.161  11.717  0.1154 -1.0315 -0.7096
 4874TIP3    H236038   4.276   2.114  11.676  0.0244 -0.6642 -0.8322
 4875TIP3   OH236039   0.619   1.969   4.724 -0.6605 -0.0581  0.1850
 4875TIP3    H136040   0.629   1.984   4.818 -1.0761  0.6420  0.1230
 4875TIP3    H236041   0.602   1.875   4.717  1.5940 -0.5629  0.6198
 4876TIP3   OH236042   2.573   3.604  16.206  0.2096 -0.6736  0.0299
 4876TIP3    H136043   2.511   3.614  16.278  0.7368 -0.5610  0.4731
 4876TIP3    H236044   2.659   3.608  16.247  0.5262 -2.9352 -0.2975
 4877TIP3   OH236045   3.576   0.415  14.348 -0.0621 -0.3652  0.2141
 4877TIP3    H136046   3.595   0.391  14.438 -2.0613 -0.5042  0.6420
 4877TIP3    H236047   3.514   0.349  14.318  1.8586 -1.3482 -1.8714
 4878TIP3   OH236048   0.589   4.822  11.139 -0.0144  0.2727  0.3933
 4878TIP3    H136049   0.656   4.780  11.192 -1.0833 -1.3535  0.5201
 4878TIP3    H236050   0.631   4.902  11.106  1.5413 -0.0511  1.4789
 4879TIP3   OH236051   0.715   5.890   4.457 -0.5994 -0.0128 -0.0311
 4879TIP3    H136052   0.641   5.945   4.431 -1.2420 -1.6532 -1.9430
 4879TIP3    H236053   0.774   5.893   4.382  0.1899 -0.5353  0.5569
 4880TIP3   OH236054   0.258   2.382   2.038  0.2061  0.1596  0.0344
 4880TIP3    H136055   0.291   2.342   1.958 -0.1861 -0.2624  0.0797
 4880TIP3    H236056   0.170   2.345   2.049 -0.7026  1.9710 -0.6315
 4881TIP3   OH236057   3.617   4.361  16.207  0.3223  0.2756 -0.4175
 4881TIP3    H136058   3.704   4.341  16.242  0.9041  1.2725 -1.2174
 4881TIP3    H236059   3.610   4.307  16.128  0.8308  1.2450 -1.1493
 4882TIP3   OH236060   6.286   4.568  16.635  0.4083 -0.1131  0.5635
 4882TIP3    H136061   6.246   4.645  16.595  2.6436  1.4684  1.1355
 4882TIP3    H236062   6.304   4.509  16.562 -0.1754  0.4668 -0.0583
 4883TIP3   OH236063   1.304   4.497   0.214  0.3104  0.0939  0.3458
 4883TIP3    H136064   1.314   4.587   0.186  2.0605 -0.3686 -0.6855
 4883TIP3    H236065   1.305   4.501   0.310  2.5648  1.0296  0.3579
 4884TIP3   OH236066   5.491   6.750  13.246 -0.1704  0.0554 -0.1502
 4884TIP3    H136067   5.584   6.772  13.243 -0.0753 -0.4336 -0.8191
 4884TIP3    H236068   5.457   6.802  13.319  0.5880  0.3751 -0.0159
 4885TIP3   OH236069   4.388   6.050  12.299  0.2114  0.1875  0.8843
 4885TIP3    H136070   4.329   6.049  12.224  0.8078 -0.7627  0.4036
 4885TIP3    H236071   4.460   6.107  12.272  0.5210 -0.3058  0.6354
 4886TIP3   OH236072   2.886   1.863  12.448  0.8243 -0.3240 -0.6170
 4886TIP3    H136073   2.845   1.825  12.370  0.5253 -0.2253 -0.5113
 4886TIP3    H236074   2.823   1.845  12.518 -1.7757  4.4401 -1.2968
 4887TIP3   OH236075   2.963   3.777  14.169  0.4112 -0.5791  0.0593
 4887TIP3    H136076   2.928   3.845  14.227  1.6156  0.1770 -0.0761
 4887TIP3    H236077   2.890   3.753  14.113 -1.0936 -1.9801  2.4329
 4888TIP3   OH236078   3.927   0.101  11.257  0.0554 -0.5075  0.3273
 4888TIP3    H136079   3.926   0.006  11.248  0.9644 -0.5549  0.6275
 4888TIP3    H236080   4.019   0.123  11.270  0.0039  0.5334 -0.9090
 4889TIP3   OH236081   2.069   6.089   0.814  0.3009 -0.0018 -0.7418
 4889TIP3    H136082   2.117   6.116   0.735 -0.1509 -0.4854 -1.1857
 4889TIP3    H236083   2.084   5.995   0.821 -1.7918 -0.4843 -1.7633
 4890TIP3   OH236084   6.217   6.680   3.867 -0.2967  0.2369 -0.2566
 4890TIP3    H136085   6.190   6.696   3.776 -0.3470 -0.0494 -0.2918
 4890TIP3    H236086   6.152   6.618   3.900 -0.7055  0.8936  0.1995
 4891TIP3   OH236087   1.863   1.480  11.750 -0.4987  0.0162  0.6176
 4891TIP3    H136088   1.813   1.523  11.680  0.8233  0.9128  0.1943
 4891TIP3    H236089   1.954   1.489  11.723  0.0268  0.2581  2.3959
 4892TIP3   OH236090   0.653   6.748  13.056  0.4117  0.0641  0.3040
 4892TIP3    H136091   0.595   6.704  13.118 -0.9919  1.3805 -0.0181
 4892TIP3    H236092   0.603   6.753  12.975  2.1072 -1.3776 -0.9276
 4893TIP3   OH236093   0.290   4.743  10.029 -0.3650  0.7722 -0.8247
 4893TIP3    H136094   0.256   4.715   9.944 -0.4902 -1.0684 -0.2233
 4893TIP3    H236095   0.340   4.668  10.061 -0.0221  1.5554  0.5695
 4894TIP3   OH236096   2.982   6.247  13.500 -0.0669  0.2451 -0.1372
 4894TIP3    H136097   3.070   6.210  13.500 -0.3705 -0.5136 -0.4775
 4894TIP3    H236098   2.963   6.263  13.408 -0.5941 -0.3944 -0.1505
 4895TIP3   OH236099   2.407   5.136   1.934  1.0394 -0.2960 -0.2022
 4895TIP3    H136100   2.445   5.184   2.008 -0.5684  1.8493 -0.6898
 4895TIP3    H236101   2.457   5.165   1.858  2.0455 -1.7566 -0.1313
 4896TIP3   OH236102   0.665   2.704   4.528 -0.6193  0.1681  0.0083
 4896TIP3    H136103   0.613   2.624   4.521 -1.1576  0.3537  1.5983
 4896TIP3    H236104   0.756   2.675   4.519 -0.8880 -0.3662 -1.1594
 4897TIP3   OH236105   4.184   3.202   2.424  0.8430 -0.8056  0.1797
 4897TIP3    H136106   4.126   3.275   2.446 -1.5937 -2.0390 -1.7236
 4897TIP3    H236107   4.271   3.242   2.421 -0.0993  1.5510  1.2663
 4898TIP3   OH236108   4.123   1.129  13.486 -0.0130 -0.9578  0.8211
 4898TIP3    H136109   4.043   1.112  13.436 -2.0252  2.8019  2.3431
 4898TIP3    H236110   4.160   1.042  13.502 -2.7349 -2.7561 -1.5896
 4899TIP3   OH236111   2.488   2.005   3.033 -0.6967  0.0321  0.0492
 4899TIP3    H136112   2.526   2.003   2.945  0.5355  1.1637  0.5201
 4899TIP3    H236113   2.530   1.933   3.079 -1.5102 -0.7050 -0.3269
 4900TIP3   OH236114   3.907   0.218   2.796 -0.5058 -0.2305  0.2724
 4900TIP3    H136115   3.959   0.197   2.873  0.9422 -0.5521 -0.7361
 4900TIP3    H236116   3.960   0.186   2.722 -1.7068  0.3022 -0.8640
 4901TIP3   OH236117   3.701   5.887  11.124  0.1397 -0.2238 -0.4539
 4901TIP3    H136118   3.735   5.936  11.199 -1.7240 -0.1985  0.4213
 4901TIP3    H236119   3.685   5.799  11.158 -1.8070  0.0903 -0.4612
 4902TIP3   OH236120   5.854   0.696  14.699  0.0352  0.7255  0.2172
 4902TIP3    H136121   5.772   0.732  14.734 -1.3469  1.1241 -3.0696
 4902TIP3    H236122   5.880   0.758  14.630  2.1515 -0.3379 -0.0329
 4903TIP3   OH236123   0.211   2.049  16.487 -0.2004  0.4298  0.9324
 4903TIP3    H136124   0.300   2.083  16.491 -1.1685  3.3482  0.1997
 4903TIP3    H236125   0.183   2.046  16.579 -0.1667  2.0007  1.0180
 4904TIP3   OH236126   5.616   5.894   5.024 -0.2300  0.4683  0.3551
 4904TIP3    H136127   5.707   5.876   5.000 -0.4630  0.0260 -0.2328
 4904TIP3    H236128   5.619   5.913   5.118  0.6938  2.1415  0.0270
 4905TIP3   OH236129   2.094   5.092   0.472  0.0239 -0.0473 -0.1381
 4905TIP3    H136130   2.024   5.151   0.445  0.1841  0.2441  0.0832
 4905TIP3    H236131   2.099   5.102   0.567  0.2583 -0.1882 -0.1346
 4906TIP3   OH236132   2.774   3.553   2.628  0.0802  0.2503 -0.7686
 4906TIP3    H136133   2.866   3.553   2.600 -0.4256  0.7986 -2.6146
 4906TIP3    H236134   2.725   3.563   2.546 -1.6633 -0.8394  0.1028
 4907TIP3   OH236135   1.478   5.166   5.442  0.4809  0.3992 -0.3473
 4907TIP3    H136136   1.394   5.125   5.421  0.6422  0.0537 -0.3253
 4907TIP3    H236137   1.522   5.103   5.499  1.3590 -0.0791 -1.5047
 4908TIP3   OH236138   3.864   2.217   1.939 -0.4709  0.2511  0.0347
 4908TIP3    H136139   3.849   2.310   1.956 -2.8301  0.0741 -0.6901
 4908TIP3    H236140   3.779   2.176   1.954  0.8039 -2.0503  1.6424
 4909TIP3   OH236141   5.843   3.043   5.669  0.7520  0.3232  0.5235
 4909TIP3    H136142   5.789   3.119   5.646  2.4044  1.1722 -0.8234
 4909TIP3    H236143   5.884   3.067   5.752 -0.2918 -0.0065  1.1590
 4910TIP3   OH236144   3.632   6.300  11.203 -0.1115  0.0298 -0.1395
 4910TIP3    H136145   3.706   6.346  11.164 -0.7546  0.0417 -1.3983
 4910TIP3    H236146   3.587   6.366  11.255 -0.0557  0.3788 -0.5363
 4911TIP3   OH236147   2.646   2.495   4.290 -0.0713  0.1860  0.0440
 4911TIP3    H136148   2.723   2.468   4.339 -1.0157  0.4151  1.7003
 4911TIP3    H236149   2.577   2.435   4.317 -1.5486  2.5437  1.8832
 4912TIP3   OH236150   0.601   5.525  13.358 -0.4905 -0.0776  0.4577
 4912TIP3    H136151   0.695   5.521  13.375  0.0581 -2.2199 -2.3928
 4912TIP3    H236152   0.572   5.434  13.361 -1.7982  0.1942 -1.7827
 4913TIP3   OH236153   6.755   1.681  16.491 -0.2018 -0.1653  0.5773
 4913TIP3    H136154   6.688   1.747  16.474 -0.9271 -0.8788  0.6382
 4913TIP3    H236155   6.837   1.730  16.487 -0.7014  0.6799  0.2929
 4914TIP3   OH236156   3.323   2.196   4.776  0.0998 -0.1223  0.0193
 4914TIP3    H136157   3.364   2.188   4.690  0.5024 -0.3598  0.2283
 4914TIP3    H236158   3.371   2.267   4.819  1.2811 -1.3546  0.8037
 4915TIP3   OH236159   2.144   5.403  14.901  0.0394 -0.0429  0.2360
 4915TIP3    H136160   2.201   5.331  14.930 -0.9044 -0.2034  1.8378
 4915TIP3    H236161   2.171   5.477  14.956  1.1904  0.9578 -1.5906
 4916TIP3   OH236162   1.563   3.630   1.906 -0.0480  0.4277 -0.5936
 4916TIP3    H136163   1.586   3.576   1.830  0.5753  1.7103 -1.3454
 4916TIP3    H236164   1.469   3.646   1.896 -0.6956 -2.0665  0.6910
 4917TIP3   OH236165   5.885   5.432   3.782  0.4469  0.0014 -0.4531
 4917TIP3    H136166   5.842   5.509   3.819  0.8660  0.8747 -1.7331
 4917TIP3    H236167   5.859   5.432   3.690 -0.6056 -2.1334 -0.2373
 4918TIP3   OH236168   1.879   6.864  13.303 -0.0041  0.2011  0.4520
 4918TIP3    H136169   1.954   6.810  13.330  0.0792 -0.1652 -0.4745
 4918TIP3    H236170   1.917   6.929  13.243 -0.3799  0.2125  0.2243
 4919TIP3   OH236171   3.278   0.895   4.419 -0.5016  0.0473 -0.1692
 4919TIP3    H136172   3.334   0.915   4.494  0.0543 -1.0393 -0.2725
 4919TIP3    H236173   3.280   0.973   4.365 -1.8865  1.3458  1.5158
 4920TIP3   OH236174   1.301   0.052  10.784  0.0892 -0.1818  0.0687
 4920TIP3    H136175   1.385   0.098  10.774  0.9342 -1.0725  2.3471
 4920TIP3    H236176   1.237   0.110  10.743  1.9340 -0.0772 -2.9625
 4921TIP3   OH236177   4.088   6.546  13.212  0.7643  0.2661 -0.2744
 4921TIP3    H136178   4.107   6.501  13.294  0.2246 -2.4600 -1.5352
 4921TIP3    H236179   4.139   6.627  13.217  0.7261  0.2227  2.7051
 4922TIP3   OH236180   6.837   6.837   5.985  0.4676 -0.2822 -0.4202
 4922TIP3    H136181   6.808   6.771   5.922 -0.0441  1.3997 -2.0456
 4922TIP3    H236182   6.894   6.790   6.045 -0.3689 -2.3107 -1.1318
 4923TIP3   OH236183   5.326   4.760  10.863 -0.0892  0.2546  0.3919
 4923TIP3    H136184   5.390   4.690  10.879 -0.6716  0.1322  2.5132
 4923TIP3    H236185   5.247   4.713  10.835 -0.3519  0.0592  1.4085
 4924TIP3   OH236186   0.876   3.927   0.177 -0.0857 -0.1426  0.0491
 4924TIP3    H136187   0.891   3.928   0.272 -0.3518 -0.1076  0.0917
 4924TIP3    H236188   0.890   3.836   0.152 -0.1303 -0.1747  0.1405
 4925TIP3   OH236189   4.775   0.456  16.147 -0.9419 -0.0448 -0.7253
 4925TIP3    H136190   4.841   0.388  16.161  0.1696  1.0676 -0.4315
 4925TIP3    H236191   4.725   0.459  16.228  0.7567  1.3118  0.3524
 4926TIP3   OH236192   1.286   3.548  15.383  0.2054 -0.0433  0.9899
 4926TIP3    H136193   1.284   3.548  15.478  0.0308  1.7429  1.0250
 4926TIP3    H236194   1.208   3.596  15.357  1.3817  1.4760  0.0531
 4927TIP3   OH236195   6.267   0.895  15.182 -0.3875 -0.8403  0.3616
 4927TIP3    H136196   6.222   0.824  15.227 -0.5235 -0.6154  0.5805
 4927TIP3    H236197   6.295   0.954  15.251 -0.7660 -0.3938  0.1360
 4928TIP3   OH236198   1.023   6.467  16.210 -0.4315 -0.1539 -0.1968
 4928TIP3    H136199   0.973   6.439  16.287 -0.8824  0.6253 -0.1980
 4928TIP3    H236200   0.962   6.455  16.137 -0.3338  0.0243 -0.3060
 4929TIP3   OH236201   5.393   5.808   5.534  0.2714  0.3031 -0.4705
 4929TIP3    H136202   5.358   5.725   5.567  1.1732  0.1232  0.0682
 4929TIP3    H236203   5.335   5.875   5.570  0.6434  0.0366  0.6644
 4930TIP3   OH236204   2.145   2.835  11.605  0.0340  0.1071  0.2632
 4930TIP3    H136205   2.191   2.890  11.669 -0.8859 -0.9190  1.8418
 4930TIP3    H236206   2.055   2.868  11.606  0.0239  0.1299 -0.5923
 4931TIP3   OH236207   4.017   0.650  10.386 -0.4376  0.2837  0.2776
 4931TIP3    H136208   3.925   0.653  10.411 -0.4533  0.0563  0.2530
 4931TIP3    H236209   4.016   0.638  10.291 -0.3948 -0.8888  0.4131
 4932TIP3   OH236210   0.474   4.760   4.689 -0.1052 -0.6404 -0.3960
 4932TIP3    H136211   0.451   4.839   4.640  0.5002 -0.4392 -0.3630
 4932TIP3    H236212   0.444   4.776   4.778  0.7350 -0.1099 -0.1996
 4933TIP3   OH236213   6.533   2.324  15.862 -0.0756 -0.0263 -0.0046
 4933TIP3    H136214   6.602   2.263  15.885  0.8021  0.7874 -0.4076
 4933TIP3    H236215   6.497   2.352  15.946  0.2931 -0.2166  0.2184
 4934TIP3   OH236216   5.994   4.735   5.329 -0.5889  0.1426  0.2657
 4934TIP3    H136217   6.043   4.686   5.395 -0.2785  0.9812  0.6677
 4934TIP3    H236218   5.929   4.673   5.296  1.2788 -1.3026 -0.9164
 4935TIP3   OH236219   5.494   2.857  15.638  0.0583  0.3492  0.0625
 4935TIP3    H136220   5.442   2.781  15.664 -0.2482  0.1714 -1.0198
 4935TIP3    H236221   5.434   2.911  15.588  0.5289  0.8622  0.0410
 4936TIP3   OH236222   4.906   2.716   2.844 -0.2392 -0.7134  0.3724
 4936TIP3    H136223   4.897   2.658   2.920 -2.7629 -1.6955 -0.5581
 4936TIP3    H236224   4.818   2.721   2.808  0.3584  1.9164 -0.9606
 4937TIP3   OH236225   5.089   5.292   3.425  0.0338 -0.0446 -0.2329
 4937TIP3    H136226   5.120   5.378   3.453 -0.5133  0.2001 -0.3753
 4937TIP3    H236227   5.073   5.245   3.507  0.3854 -0.0385 -0.1552
 4938TIP3   OH236228   1.317   3.288  12.387  0.4700 -0.3310  0.0986
 4938TIP3    H136229   1.245   3.244  12.431  0.0794  0.9955  0.8407
 4938TIP3    H236230   1.395   3.262  12.436  0.4584 -1.4351 -0.4486
 4939TIP3   OH236231   1.102   5.877  14.952 -0.0934  0.0579 -0.0653
 4939TIP3    H136232   1.069   5.834  15.032  0.2281 -0.3602 -0.1525
 4939TIP3    H236233   1.023   5.909  14.908 -0.1754  1.8100  1.2537
 4940TIP3   OH236234   6.124   4.486   1.309  0.2464  0.4351  0.2868
 4940TIP3    H136235   6.141   4.409   1.255  0.6896 -0.2263  1.3280
 4940TIP3    H236236   6.043   4.522   1.274 -0.2615 -0.8112  0.1119
 4941TIP3   OH236237   2.135   3.679  16.648 -0.5928 -0.4443  0.0291
 4941TIP3    H136238   2.127   3.718  16.735  1.1194  0.4886 -0.2045
 4941TIP3    H236239   2.108   3.588  16.661  0.2532 -0.5065  1.6922
 4942TIP3   OH236240   5.894   6.848  15.428  0.5627 -0.2190 -0.6646
 4942TIP3    H136241   5.866   6.902  15.502  0.6986  0.1858 -0.9005
 4942TIP3    H236242   5.814   6.828  15.381  0.4760 -0.4795 -0.4077
 4943TIP3   OH236243   5.917   2.563   5.893  0.0859 -0.3847 -0.3311
 4943TIP3    H136244   5.986   2.499   5.879  1.6010  1.1583 -0.3389
 4943TIP3    H236245   5.950   2.618   5.965 -0.9573  0.6022 -0.5712
 4944TIP3   OH236246   6.107   3.524  13.185  0.5940 -0.1309 -0.5041
 4944TIP3    H136247   6.113   3.605  13.236  0.2798 -0.0970 -0.5128
 4944TIP3    H236248   6.195   3.488  13.185  0.4292 -0.5903  0.8338
 4945TIP3   OH236249   6.038   6.363   3.465 -0.6380  0.2700 -1.3439
 4945TIP3    H136250   5.995   6.399   3.388 -2.0785  1.4585 -0.0381
 4945TIP3    H236251   6.026   6.268   3.457 -0.9404  0.3894 -2.4569
 4946TIP3   OH236252   0.567   0.050  12.587  0.3553 -0.1965  0.3538
 4946TIP3    H136253   0.578   0.051  12.682 -1.0812 -0.4519  0.5439
 4946TIP3    H236254   0.496   0.111  12.571  0.6853 -0.0443 -0.5903
 4947TIP3   OH236255   5.806   3.012   5.360  0.1997  0.0158 -0.3449
 4947TIP3    H136256   5.828   3.092   5.312  1.2093  0.3741  0.6387
 4947TIP3    H236257   5.716   3.024   5.389  0.3594  0.8388 -0.1702
 4948TIP3   OH236258   1.180   1.118  15.085  0.3371 -0.2707 -0.4299
 4948TIP3    H136259   1.223   1.187  15.034 -0.2462 -0.8382 -1.7585
 4948TIP3    H236260   1.096   1.157  15.111  0.1655 -0.3314 -0.8677
 4949TIP3   OH236261   6.039   2.086  12.412 -0.3912  0.2495  0.3333
 4949TIP3    H136262   6.070   2.008  12.460  0.2133  0.0053 -0.4244
 4949TIP3    H236263   5.958   2.057  12.370  0.9184 -0.6855 -1.6969
 4950TIP3   OH236264   2.032   5.500   0.907  0.8437  0.1762  0.6857
 4950TIP3    H136265   2.026   5.477   0.814  0.4615 -0.8971  0.9594
 4950TIP3    H236266   2.114   5.461   0.937 -0.1225 -1.4746  1.3074
 4951TIP3   OH236267   4.100   2.442   0.954  0.0846 -0.1654  0.1229
 4951TIP3    H136268   4.132   2.391   1.029  1.3002  0.8091  0.2951
 4951TIP3    H236269   4.179   2.480   0.916 -0.7604  1.2960 -0.2273
 4952TIP3   OH236270   4.356   5.507   4.474  0.1200 -0.1896 -0.2798
 4952TIP3    H136271   4.417   5.581   4.466  0.8941 -0.7155  0.6236
 4952TIP3    H236272   4.342   5.498   4.568  0.3600 -1.4452 -0.3448
 4953TIP3   OH236273   0.774   0.026  14.086 -0.1272  0.3879 -0.9412
 4953TIP3    H136274   0.738   0.089  14.024 -0.8145  0.1296 -0.8093
 4953TIP3    H236275   0.744   0.057  14.172 -1.2744 -0.6431 -0.9507
 4954TIP3   OH236276   3.432   2.747  11.233  0.0054  0.2731 -0.3887
 4954TIP3    H136277   3.393   2.808  11.295 -2.0649 -0.1522 -1.2105
 4954TIP3    H236278   3.436   2.794  11.150  2.3568  0.6865 -0.1229
 4955TIP3   OH236279   6.496   4.499  11.816 -0.0104  0.3160  0.0810
 4955TIP3    H136280   6.414   4.496  11.865 -1.1379 -1.6160 -1.7564
 4955TIP3    H236281   6.527   4.408  11.816  1.5169  0.8090 -0.2856
 4956TIP3   OH236282   0.971   5.232   4.975  0.2833 -0.6283  0.4706
 4956TIP3    H136283   1.037   5.169   4.947  0.3591 -0.8293  1.0978
 4956TIP3    H236284   1.001   5.316   4.940  0.0311 -0.9733 -0.6213
 4957TIP3   OH236285   2.158   4.665   1.479 -0.2915 -0.0936  0.3301
 4957TIP3    H136286   2.148   4.754   1.511  3.0366  1.0140 -1.2736
 4957TIP3    H236287   2.140   4.610   1.555 -0.0710  2.0371  2.0096
 4958TIP3   OH236288   2.876   1.393   3.735  0.3843  0.0105 -0.1696
 4958TIP3    H136289   2.845   1.481   3.757  0.4935  0.3865 -1.4560
 4958TIP3    H236290   2.944   1.375   3.801  0.8205  1.1614 -0.2819
 4959TIP3   OH236291   1.483   0.007  16.213 -0.8262 -0.3007  0.2661
 4959TIP3    H136292   1.457  -0.033  16.295 -0.6832 -1.6389 -0.3155
 4959TIP3    H236293   1.578   0.008  16.215 -0.8156  1.5893  0.9813
 4960TIP3   OH236294   2.495   3.138   1.453 -0.4173  0.5779  0.0634
 4960TIP3    H136295   2.578   3.135   1.405 -1.0317  0.8524 -1.0547
 4960TIP3    H236296   2.428   3.142   1.384 -1.3818 -0.1313  0.9307
 4961TIP3   OH236297   0.854   4.029   4.709  0.6243  0.4114 -0.4520
 4961TIP3    H136298   0.940   4.045   4.669 -0.3876  0.6543 -2.6804
 4961TIP3    H236299   0.856   3.936   4.731  1.2499  0.2705 -1.0426
 4962TIP3   OH236300   2.980   0.305  15.188  0.6959 -0.1151 -0.1934
 4962TIP3    H136301   2.900   0.345  15.154  0.5899  1.5505  1.7751
 4962TIP3    H236302   2.950   0.246  15.257  1.1331  1.1495  1.1367
 4963TIP3   OH236303   6.537   4.328  10.251 -0.6190 -0.4656 -0.3114
 4963TIP3    H136304   6.553   4.248  10.200  1.1852 -0.6639  0.4852
 4963TIP3    H236305   6.470   4.303  10.315 -1.6524 -0.6946 -1.4399
 4964TIP3   OH236306   6.290   3.898  16.095 -0.2869  0.2344 -0.8137
 4964TIP3    H136307   6.310   3.980  16.141 -0.8664 -0.2778  0.3784
 4964TIP3    H236308   6.355   3.894  16.025 -0.0465  1.5571 -0.7052
 4965TIP3   OH236309   5.436   0.137   3.263 -0.3047 -0.2412 -0.0568
 4965TIP3    H136310   5.409   0.124   3.172  0.9744  0.3810 -0.5589
 4965TIP3    H236311   5.354   0.146   3.312 -1.0460 -2.0043 -0.9037
 4966TIP3   OH236312   4.012   4.960  12.173 -0.0429  0.7322  0.4892
 4966TIP3    H136313   3.996   4.936  12.081  2.3531 -0.3303  0.2889
 4966TIP3    H236314   4.047   5.049  12.168 -0.2146  0.7977  0.4216
 4967TIP3   OH236315   2.997   0.293  15.850  0.0890  0.2962  0.3450
 4967TIP3    H136316   3.018   0.365  15.909 -1.9457  0.0669  1.4470
 4967TIP3    H236317   3.079   0.275  15.804  1.0750  2.1853  1.2417
 4968TIP3   OH236318   6.624   5.716  16.456 -0.0129 -0.1933  0.1686
 4968TIP3    H136319   6.670   5.762  16.526  0.4466 -0.5450  0.1076
 4968TIP3    H236320   6.604   5.630  16.493 -2.0531  0.4826  0.7458
 4969TIP3   OH236321   2.006   6.086   3.843 -0.9229  0.3810  0.3887
 4969TIP3    H136322   2.096   6.063   3.865 -0.4722  3.2695  2.0866
 4969TIP3    H236323   2.009   6.114   3.752 -0.1116  0.3442  0.4026
 4970TIP3   OH236324   0.488   3.280  14.576  0.1670 -0.0601 -0.2792
 4970TIP3    H136325   0.490   3.248  14.486 -0.8041 -3.7945  0.8371
 4970TIP3    H236326   0.400   3.318  14.585  0.3010  0.4110 -0.9415
 4971TIP3   OH236327   2.916   5.757  10.530  0.4603  0.1345  0.2725
 4971TIP3    H136328   2.868   5.837  10.550 -0.4285 -0.0623 -0.9592
 4971TIP3    H236329   2.849   5.696  10.498  0.9348 -1.5028  2.2144
 4972TIP3   OH236330   6.032   6.419   1.745  0.0127  0.0113 -0.3830
 4972TIP3    H136331   6.003   6.490   1.687 -0.3384 -0.6475 -1.0262
 4972TIP3    H236332   6.057   6.349   1.686  1.4317 -0.0117  0.2189
 4973TIP3   OH236333   6.623   6.297  12.658 -0.4511  0.0745  0.1314
 4973TIP3    H136334   6.674   6.218  12.674  0.1137  0.8605  2.8465
 4973TIP3    H236335   6.667   6.364  12.710 -3.7611  0.9832  2.0550
 4974TIP3   OH236336   0.723   3.469  16.702  0.6284 -0.0293  0.9700
 4974TIP3    H136337   0.636   3.461  16.741 -0.3296  0.6804 -0.8970
 4974TIP3    H236338   0.708   3.468  16.608  2.4491  1.9257  0.5637
 4975TIP3   OH236339   4.093   1.289  12.612 -0.0731  0.3242  0.1883
 4975TIP3    H136340   4.172   1.235  12.618 -0.0954  0.3989  1.6551
 4975TIP3    H236341   4.066   1.282  12.520  1.7097  0.4154 -0.3836
 4976TIP3   OH236342   6.315   5.680  11.732 -0.1695  0.2470  0.1324
 4976TIP3    H136343   6.341   5.772  11.724  1.0394  0.4987  4.2419
 4976TIP3    H236344   6.253   5.680  11.806 -2.5230 -1.9680 -1.6619
 4977TIP3   OH236345   4.870   4.702   4.972  0.5307 -0.5087  0.5966
 4977TIP3    H136346   4.807   4.724   4.904  1.0907  0.4832  0.3868
 4977TIP3    H236347   4.816   4.669   5.044 -0.0657 -1.6210 -0.3193
 4978TIP3   OH236348   3.076   1.047  15.271  0.3604  0.1198 -0.2674
 4978TIP3    H136349   3.168   1.058  15.245  0.3264  1.4193  0.0911
 4978TIP3    H236350   3.068   1.096  15.353 -0.4090 -0.8733  0.2673
 4979TIP3   OH236351   3.830   2.640  11.514  0.0019  0.3311  0.2774
 4979TIP3    H136352   3.889   2.672  11.445 -0.1952 -0.3181 -0.1980
 4979TIP3    H236353   3.749   2.620  11.468 -0.0516 -0.3422  0.6617
 4980TIP3   OH236354   3.018   0.606  10.808 -0.6623  0.1219  0.3185
 4980TIP3    H136355   2.992   0.610  10.716  2.6828  1.3996 -0.7392
 4980TIP3    H236356   3.016   0.513  10.830  0.4692 -0.4481 -1.7487
 4981TIP3   OH236357   5.029   4.611   3.318  0.2994 -0.6066 -0.0030
 4981TIP3    H136358   4.934   4.621   3.328  0.4170  1.1605 -0.3178
 4981TIP3    H236359   5.050   4.530   3.363 -1.4435 -1.3171 -0.4066
 4982TIP3   OH236360   4.139   1.846   4.493 -0.2307  0.0423 -0.3377
 4982TIP3    H136361   4.218   1.890   4.460 -0.3264  0.7781  0.3948
 4982TIP3    H236362   4.157   1.830   4.585 -0.3578 -1.1328 -0.4980
 4983TIP3   OH236363   1.606   0.391   3.894 -0.4555  0.0451 -0.7336
 4983TIP3    H136364   1.565   0.338   3.963  1.7374  0.3254  0.9193
 4983TIP3    H236365   1.642   0.467   3.941 -1.3242  1.7388 -2.6697
 4984TIP3   OH236366   1.724   5.383  12.260 -0.5687  0.0132  0.4473
 4984TIP3    H136367   1.816   5.377  12.284 -1.0503 -0.5808  2.3311
 4984TIP3    H236368   1.700   5.474  12.276 -0.2146  0.2896 -0.5202
 4985TIP3   OH236369   0.058   6.355  12.428  0.3151 -0.0623 -1.0778
 4985TIP3    H136370   0.046   6.261  12.417 -1.3452  0.0021 -0.2001
 4985TIP3    H236371  -0.031   6.389  12.439  1.0279  1.2374  1.3579
 4986TIP3   OH236372   3.864   0.520   1.730 -0.2067 -0.5333  0.2667
 4986TIP3    H136373   3.802   0.576   1.777  0.1369 -0.9491  1.2211
 4986TIP3    H236374   3.938   0.578   1.710  1.0767 -1.0872  3.0606
 4987TIP3   OH236375   2.572   0.960  14.374 -0.5240 -0.3019 -0.4880
 4987TIP3    H136376   2.544   1.029  14.313  0.1186 -0.7336 -1.2885
 4987TIP3    H236377   2.666   0.973  14.382 -0.6804  0.1440  0.9326
 4988TIP3   OH236378   4.944   1.507  12.979 -0.0421 -0.5358  0.4164
 4988TIP3    H136379   5.021   1.551  12.943 -0.9720  2.9360  2.2294
 4988TIP3    H236380   4.876   1.518  12.913  0.1903 -0.8591  0.1211
 4989TIP3   OH236381   6.051   5.539  14.115 -0.0346  0.1006 -0.5969
 4989TIP3    H136382   6.125   5.497  14.071  1.4180  1.2358  0.6452
 4989TIP3    H236383   6.033   5.617  14.063  1.4818  1.2777  0.5354
 4990TIP3   OH236384   6.224   6.139   4.535 -0.0862 -0.7010  0.1484
 4990TIP3    H136385   6.278   6.173   4.606  0.0072 -0.9555  0.1995
 4990TIP3    H236386   6.232   6.204   4.465  0.0977 -0.6226  0.2423
 4991TIP3   OH236387   1.022   4.783   0.146  0.0719 -0.2370  0.0162
 4991TIP3    H136388   1.107   4.763   0.106  0.4707 -0.5007  0.9762
 4991TIP3    H236389   0.978   4.840   0.082  1.9479  1.9655  0.5572
 4992TIP3   OH236390   0.488   4.251   0.309 -0.2675 -0.1968 -1.0120
 4992TIP3    H136391   0.476   4.227   0.400  1.8895  2.4574  0.1458
 4992TIP3    H236392   0.416   4.209   0.262 -2.1639 -0.6625  2.0738
 4993TIP3   OH236393   6.724   1.291   4.340  0.3049  0.1445  0.4981
 4993TIP3    H136394   6.691   1.218   4.288 -0.2129  0.2606  0.6631
 4993TIP3    H236395   6.818   1.292   4.321  0.1474  0.1100 -0.3435
 4994TIP3   OH236396   2.235   6.011   5.881  0.2416  0.6475 -0.4290
 4994TIP3    H136397   2.302   5.972   5.938 -0.5713 -1.3091 -0.7143
 4994TIP3    H236398   2.152   5.979   5.917 -0.4294  1.4287 -1.2403
 4995TIP3   OH236399   1.097   3.626  13.899 -0.3198 -0.1668 -0.3714
 4995TIP3    H136400   1.111   3.609  13.992 -0.4497  0.6807 -0.1875
 4995TIP3    H236401   1.052   3.548  13.866  0.8034 -1.0086 -0.0022
 4996TIP3   OH236402   3.762   3.479   1.142 -0.0339 -0.1436  0.6530
 4996TIP3    H136403   3.671   3.479   1.113  0.0138 -0.8886  0.4860
 4996TIP3    H236404   3.758   3.505   1.234 -0.2126  1.9371  0.1158
 4997TIP3   OH236405   0.508   5.666   1.980  0.1592 -0.0409 -0.1436
 4997TIP3    H136406   0.594   5.666   2.022  0.0479  0.0538  0.0853
 4997TIP3    H236407   0.520   5.720   1.902  0.0519  0.8060  0.4213
 4998TIP3   OH236408   0.733   6.090   0.976 -0.1908 -0.0624  0.4626
 4998TIP3    H136409   0.766   6.177   0.952 -0.7696 -0.1749 -0.8151
 4998TIP3    H236410   0.738   6.088   1.072  1.0076  0.8992  0.4459
 4999TIP3   OH236411   2.610   4.381  10.147 -0.0824  0.1386 -0.3071
 4999TIP3    H136412   2.641   4.471  10.158  1.4783 -0.6074  1.9844
 4999TIP3    H236413   2.675   4.340  10.089  0.5078 -0.1087  0.5173
 5000TIP3   OH236414   6.204   0.530  12.996  0.2151  0.2856  0.6159
 5000TIP3    H136415   6.216   0.449  12.947  0.6491 -0.5254  2.0047
 5000TIP3    H236416   6.247   0.597  12.942  1.4009 -0.7106  0.2758
 5001TIP3   OH236417   5.364   1.839  15.523 -0.0978 -0.1037 -0.3386
 5001TIP3    H136418   5.277   1.828  15.485 -0.8236  0.9181  0.9825
 5001TIP3    H236419   5.404   1.908  15.471 -0.7269  0.6157  0.1171
 5002TIP3   OH236420   5.433   1.400  15.677  0.9137 -0.5871  0.9978
 5002TIP3    H136421   5.351   1.427  15.635  1.5832  1.5511  0.9092
 5002TIP3    H236422   5.497   1.403  15.606  1.1829 -1.7636  1.1727
 5003TIP3   OH236423   2.713   1.765  13.163  0.6109  0.4343  0.6690
 5003TIP3    H136424   2.710   1.856  13.193 -1.0307  0.3140  0.9640
 5003TIP3    H236425   2.642   1.722  13.210 -1.2390 -0.0960 -2.3908
 5004TIP3   OH236426   6.367   0.838   0.437 -0.2083 -0.2883 -0.9479
 5004TIP3    H136427   6.306   0.881   0.377 -1.1500  0.0930  0.2330
 5004TIP3    H236428   6.417   0.778   0.382  0.0442  1.1502 -2.3833
 5005TIP3   OH236429   5.355   0.830   3.233 -0.1509 -0.1042 -1.1548
 5005TIP3    H136430   5.365   0.739   3.259  2.3642  1.0230  2.5973
 5005TIP3    H236431   5.272   0.858   3.271 -0.6568 -0.6418 -1.8452
 5006TIP3   OH236432   5.648   4.059   4.318  0.1895  0.2299 -0.4228
 5006TIP3    H136433   5.643   4.140   4.267 -0.0908 -0.6464 -1.8523
 5006TIP3    H236434   5.659   4.088   4.408  0.1292  1.8576 -0.9052
 5007TIP3   OH236435   1.388   2.411  12.100 -0.7220  0.2312 -0.2603
 5007TIP3    H136436   1.347   2.342  12.152 -2.5194  1.3029 -0.1479
 5007TIP3    H236437   1.314   2.467  12.073  0.6783  2.2635 -0.0828
 5008TIP3   OH236438   1.067   6.338  15.566  0.0237  0.0542 -0.2754
 5008TIP3    H136439   0.980   6.306  15.543 -0.1025  0.9610 -1.1170
 5008TIP3    H236440   1.124   6.261  15.560 -0.4850 -0.2646 -1.0509
 5009TIP3   OH236441   0.137   2.824   4.940  0.5229  0.7811 -0.4747
 5009TIP3    H136442   0.157   2.916   4.961  0.0119  0.7124  0.3359
 5009TIP3    H236443   0.108   2.786   5.023  0.9255 -0.1724 -0.7587
 5010TIP3   OH236444   2.632   3.239  12.207 -0.2935 -0.0962 -0.4278
 5010TIP3    H136445   2.710   3.294  12.216 -0.5427  0.1804  0.0220
 5010TIP3    H236446   2.667   3.150  12.201 -0.0177 -0.3193  2.7385
 5011TIP3   OH236447   1.065   4.718  16.483 -0.2293  0.0227 -0.2338
 5011TIP3    H136448   1.026   4.654  16.542  0.6428 -0.8835 -0.5884
 5011TIP3    H236449   0.992   4.771  16.451 -0.8347 -0.1433  0.8492
 5012TIP3   OH236450   6.686   1.965   3.822  0.3763 -0.6235 -0.2019
 5012TIP3    H136451   6.676   2.059   3.836  1.3781 -0.4506 -0.5330
 5012TIP3    H236452   6.651   1.925   3.902  1.5860  0.1236  0.7515
 5013TIP3   OH236453   3.843   6.289   2.449 -0.4265  0.0880  0.0261
 5013TIP3    H136454   3.923   6.269   2.399 -0.4925 -0.4025  0.1110
 5013TIP3    H236455   3.772   6.264   2.390 -0.5034 -0.6783  0.4336
 5014TIP3   OH236456   5.833   6.363   2.168 -0.5069  0.3075  0.2509
 5014TIP3    H136457   5.826   6.458   2.153  0.1097  0.4972  1.0844
 5014TIP3    H236458   5.920   6.352   2.206 -1.8093 -0.1294  3.4136
 5015TIP3   OH236459   2.520   6.194   3.393 -0.1122 -0.2672 -0.0009
 5015TIP3    H136460   2.458   6.256   3.432 -1.5234 -0.0934 -2.3078
 5015TIP3    H236461   2.483   6.108   3.412  0.7459 -0.3655  1.4101
 5016TIP3   OH236462   6.720   4.618   2.013 -0.6442  0.0146  0.1886
 5016TIP3    H136463   6.694   4.526   2.005 -1.0474  0.0630  0.8748
 5016TIP3    H236464   6.814   4.616   2.032 -0.8325 -0.2842  1.0787
 5017TIP3   OH236465   3.669   2.507  13.805 -0.4654 -0.0573 -0.2223
 5017TIP3    H136466   3.666   2.436  13.869  0.7433 -0.3435 -0.4524
 5017TIP3    H236467   3.605   2.484  13.739  1.5160 -2.2148 -1.5499
 5018TIP3   OH236468   1.339   6.839   0.087 -0.1626 -0.2032 -0.1076
 5018TIP3    H136469   1.298   6.910   0.137 -0.0238 -0.6708  0.6842
 5018TIP3    H236470   1.324   6.863  -0.004  0.5868  1.2728  0.1285
 5019TIP3   OH236471   0.681   2.974   4.606 -0.8801  0.3798 -0.1122
 5019TIP3    H136472   0.705   3.015   4.523  0.8766  1.7073  1.0025
 5019TIP3    H236473   0.640   2.891   4.580  1.2954 -0.1201 -2.2819
 5020TIP3   OH236474   5.708   4.509   0.572  0.3265 -0.6732  0.3190
 5020TIP3    H136475   5.765   4.534   0.499 -0.6547 -0.6075 -0.4515
 5020TIP3    H236476   5.766   4.507   0.648  1.6394 -2.0192 -0.6685
 5021TIP3   OH236477   1.858   2.499   3.167  0.7656  0.4304 -0.0125
 5021TIP3    H136478   1.873   2.404   3.160  0.6568  0.3526  0.7161
 5021TIP3    H236479   1.816   2.523   3.085  1.1632 -0.0844 -0.3742
 5022TIP3   OH236480   6.232   6.838  14.762  0.2521 -0.1735  0.7021
 5022TIP3    H136481   6.203   6.751  14.790  1.5099 -0.8932 -0.1335
 5022TIP3    H236482   6.326   6.839  14.780  0.6638  0.2003 -1.2513
 5023TIP3   OH236483   0.960   2.543  11.735 -0.6284 -0.1775 -0.6260
 5023TIP3    H136484   0.940   2.626  11.691 -0.4452  0.1339 -0.1293
 5023TIP3    H236485   0.899   2.540  11.809  1.7206  1.2364  1.4771
 5024TIP3   OH236486   6.320   5.308  16.596  0.1922 -0.3936 -0.1420
 5024TIP3    H136487   6.297   5.241  16.660  0.1262  0.2288  0.4974
 5024TIP3    H236488   6.403   5.279  16.560  0.9150 -0.0638  1.2161
 5025TIP3   OH236489   6.485   1.257   2.048  0.2195  0.5454 -0.7487
 5025TIP3    H136490   6.421   1.292   1.986 -0.2498  0.2655 -0.4327
 5025TIP3    H236491   6.512   1.333   2.099 -1.6787  0.3078  0.7252
 5026TIP3   OH236492   6.444   6.842  16.470  0.4420 -0.2212 -0.7412
 5026TIP3    H136493   6.467   6.849  16.378  2.0295 -0.2567 -0.3882
 5026TIP3    H236494   6.349   6.833  16.471  0.4170 -0.4582 -2.3769
 5027TIP3   OH236495   2.489   4.915  15.378 -0.1692 -0.1639 -0.1974
 5027TIP3    H136496   2.555   4.954  15.436  0.6864  0.3424 -1.4804
 5027TIP3    H236497   2.407   4.957  15.405  0.3174  0.5635  0.2021
 5028TIP3   OH236498   0.687   3.620  14.209  0.0053 -0.1061 -0.4471
 5028TIP3    H136499   0.715   3.530  14.226  1.4903  0.2610 -0.8350
 5028TIP3    H236500   0.620   3.612  14.141 -0.3475 -0.9557 -0.0201
 5029TIP3   OH236501   1.221   0.789   4.579  0.1138  0.2870  0.6319
 5029TIP3    H136502   1.220   0.757   4.669  0.4924  0.2146  0.6109
 5029TIP3    H236503   1.306   0.761   4.545 -0.6313 -1.0469 -0.2367
 5030TIP3   OH236504   2.290   0.803   3.466  0.2830  0.2723 -0.0555
 5030TIP3    H136505   2.276   0.792   3.560 -0.4882 -1.4889 -0.3442
 5030TIP3    H236506   2.381   0.776   3.452  0.8396  1.8335  0.3422
 5031TIP3   OH236507   0.009   5.088   1.184 -0.2511  0.1427 -0.2177
 5031TIP3    H136508   0.037   5.096   1.276 -0.9168  1.3180 -0.1027
 5031TIP3    H236509  -0.071   5.037   1.188  0.6801 -1.3987 -0.3470
 5032TIP3   OH236510   2.272   5.996   3.958 -0.4201  0.5814  0.3527
 5032TIP3    H136511   2.319   5.935   3.901 -1.2197  0.4464 -0.1752
 5032TIP3    H236512   2.273   5.953   4.044 -0.0661  0.3195  0.2197
 5033TIP3   OH236513   6.658   2.607  10.919  0.3153 -0.0572  0.0797
 5033TIP3    H136514   6.683   2.632  11.008 -0.5482  0.0956  0.2939
 5033TIP3    H236515   6.598   2.677  10.891  0.7955  0.0380 -0.7256
 5034TIP3   OH236516   2.536   4.200   5.990  0.3266  0.2720 -0.7330
 5034TIP3    H136517   2.481   4.161   6.058  0.5500  0.9821 -0.1350
 5034TIP3    H236518   2.624   4.168   6.009  0.5089  1.0584 -0.2446
 5035TIP3   OH236519   1.332   4.994   5.879 -0.9283 -1.2691 -0.0086
 5035TIP3    H136520   1.400   5.048   5.919 -1.1120 -1.6611  0.8583
 5035TIP3    H236521   1.292   4.947   5.953 -2.5979 -0.5324 -0.4057
 5036TIP3   OH236522   5.315   2.133  13.359  1.0245 -0.0500  0.2741
 5036TIP3    H136523   5.393   2.180  13.389  0.3904  0.9859  0.3234
 5036TIP3    H236524   5.298   2.167  13.272 -0.7318  1.4999  1.1483
 5037TIP3   OH236525   2.704   3.270  13.248 -0.0226 -0.2774 -0.0205
 5037TIP3    H136526   2.683   3.178  13.232 -1.8437  0.2838 -1.2101
 5037TIP3    H236527   2.624   3.317  13.225  0.8217  1.6107  0.6840
 5038TIP3   OH236528   2.482   4.249  16.330 -0.1681  0.2272  0.1991
 5038TIP3    H136529   2.460   4.187  16.260  0.8396  2.5456 -2.3709
 5038TIP3    H236530   2.513   4.194  16.402  1.6435 -2.2597 -2.2572
 5039TIP3   OH236531   5.600   3.597   0.187 -0.4041  0.3188  0.2246
 5039TIP3    H136532   5.684   3.632   0.159 -1.1173  1.6553 -0.3048
 5039TIP3    H236533   5.583   3.639   0.271 -1.0938  1.0128 -0.2443
 5040TIP3   OH236534   5.236   5.542  16.584 -0.3367 -0.5517  0.0805
 5040TIP3    H136535   5.175   5.577  16.520  0.5481  0.6199 -0.1621
 5040TIP3    H236536   5.307   5.505  16.532 -0.0721 -0.4592  0.3693
 5041TIP3   OH236537   4.965   6.712   3.900  0.2905 -0.3339 -0.6969
 5041TIP3    H136538   5.036   6.709   3.835  1.1562  0.4771  0.1921
 5041TIP3    H236539   4.998   6.661   3.974 -1.0729 -2.0657 -1.2115
 5042TIP3   OH236540   0.984   5.309  11.592  0.0042 -0.2570  0.7635
 5042TIP3    H136541   0.906   5.345  11.635  1.6111  1.2297  2.6238
 5042TIP3    H236542   1.055   5.321  11.656  1.7071 -2.0014 -0.6429
 5043TIP3   OH236543   3.618   3.897   2.654  0.5410  0.2760  0.3864
 5043TIP3    H136544   3.570   3.953   2.714  0.6875 -0.0378  0.8056
 5043TIP3    H236545   3.557   3.880   2.582  0.1671  0.2126  0.7144
 5044TIP3   OH236546   4.826   0.064  10.584  0.3003 -0.3167  0.2709
 5044TIP3    H136547   4.741   0.021  10.599 -0.9135  1.1045 -1.9611
 5044TIP3    H236548   4.877  -0.001  10.537  0.6856 -1.3609  2.0476
 5045TIP3   OH236549   2.786   2.317  15.448  0.1244 -0.1223 -0.5254
 5045TIP3    H136550   2.772   2.353  15.360  1.2643  1.8676  0.0463
 5045TIP3    H236551   2.851   2.375  15.487 -2.6865  1.0876  2.8269
 5046TIP3   OH236552   0.663   6.169   0.090 -0.2383  0.0795 -0.1119
 5046TIP3    H136553   0.626   6.170   0.002  0.0187 -0.4506 -0.2307
 5046TIP3    H236554   0.695   6.258   0.104 -0.3284  0.1784 -0.5292
 5047TIP3   OH236555   6.045   1.622  16.345  0.6445 -0.1637  0.0078
 5047TIP3    H136556   6.035   1.543  16.292  0.2311  0.8129 -1.4273
 5047TIP3    H236557   6.005   1.600  16.430 -2.2575 -0.5316 -1.3468
 5048TIP3   OH236558   4.092   3.214  15.449 -0.6018  0.7898 -0.2504
 5048TIP3    H136559   4.052   3.158  15.383  1.0293 -0.9095  0.1330
 5048TIP3    H236560   4.165   3.256  15.404 -2.2135  3.3018 -0.7410
 5049TIP3   OH236561   4.801   6.266  12.290  0.1475  0.8696 -0.2575
 5049TIP3    H136562   4.757   6.299  12.369  0.6016 -0.4753  0.5973
 5049TIP3    H236563   4.891   6.297  12.298  1.5398 -3.0696  2.3076
 5050TIP3   OH236564   5.438   1.538  13.487 -0.5134  0.0538 -0.6175
 5050TIP3    H136565   5.468   1.547  13.578 -1.7486 -1.2096 -0.0348
 5050TIP3    H236566   5.452   1.624  13.448 -0.6908  0.8645  1.0238
 5051TIP3   OH236567   6.556   6.242   2.023  0.5964 -0.6313 -0.3849
 5051TIP3    H136568   6.466   6.210   2.028  0.8437 -1.3613 -0.4738
 5051TIP3    H236569   6.552   6.314   1.960  0.1602 -0.9807 -0.7668
 5052TIP3   OH236570   4.914   5.725   3.523 -0.6764 -0.0513 -0.1621
 5052TIP3    H136571   4.895   5.644   3.572 -0.2058  0.3470  0.7047
 5052TIP3    H236572   4.927   5.791   3.591 -0.1289  0.5471 -0.8368
 5053TIP3   OH236573   5.905   1.054   3.323 -0.1370 -0.6530 -0.7847
 5053TIP3    H136574   5.947   1.107   3.391 -1.4596 -2.1174  1.3305
 5053TIP3    H236575   5.870   1.117   3.261  1.8424  0.7324 -0.5927
 5054TIP3   OH236576   1.173   5.065   4.947 -0.0901  0.1357  0.1885
 5054TIP3    H136577   1.221   5.000   4.998  0.3757  0.2134 -0.1463
 5054TIP3    H236578   1.228   5.081   4.871 -1.2675 -0.7709 -0.8962
 5055TIP3   OH236579   5.738   6.328   1.810  0.4938  0.5248  0.5420
 5055TIP3    H136580   5.832   6.346   1.803  0.4340  0.6829  0.1345
 5055TIP3    H236581   5.729   6.282   1.893  1.0911 -0.5295  0.0431
 5056TIP3   OH236582   6.832   4.936   1.636  0.9322 -0.5418 -0.0333
 5056TIP3    H136583   6.851   4.972   1.723  0.9699 -0.0888 -0.2250
 5056TIP3    H236584   6.783   5.006   1.592  1.7068 -0.4094 -0.6949
 5057TIP3   OH236585   2.744   0.372   4.640 -0.2215 -0.1432 -0.5851
 5057TIP3    H136586   2.662   0.339   4.602  0.2700 -0.6275 -1.2492
 5057TIP3    H236587   2.723   0.388   4.732 -0.6875 -1.6200 -0.4162
 5058TIP3   OH236588   1.964   3.948   0.266 -0.3135  0.4293 -0.0751
 5058TIP3    H136589   2.008   3.937   0.350 -0.2942  0.7213 -0.0461
 5058TIP3    H236590   1.979   4.040   0.243  2.5748 -0.3835 -2.0163
 5059TIP3   OH236591   4.643   6.715  14.977 -0.1223 -0.3442  0.0217
 5059TIP3    H136592   4.600   6.697  15.060 -2.9560  0.2516 -1.1797
 5059TIP3    H236593   4.662   6.629  14.940 -0.6320 -0.6509  0.4533
 5060TIP3   OH236594   2.085   1.829  15.368  0.0667 -0.6264  0.1705
 5060TIP3    H136595   2.013   1.878  15.408  0.9890 -0.2305  1.3742
 5060TIP3    H236596   2.065   1.831  15.274  0.0365  1.9995  0.1743
 5061TIP3   OH236597   3.424   0.930   9.803  0.2173 -0.0307  0.0747
 5061TIP3    H136598   3.338   0.886   9.805  0.5823 -0.8916 -1.4732
 5061TIP3    H236599   3.406   1.018   9.836 -1.2330 -0.2579 -0.0098
 5062TIP3   OH236600   1.883   6.663  12.851  0.4447 -0.1271 -0.2168
 5062TIP3    H136601   1.894   6.720  12.775  0.2122 -0.1355 -0.2582
 5062TIP3    H236602   1.873   6.575  12.813  0.0621 -0.0951 -0.1879
 5063TIP3   OH236603   3.688   2.078   1.114  0.5815  0.4824 -0.1116
 5063TIP3    H136604   3.631   2.004   1.134  0.5112  0.8328  1.0407
 5063TIP3    H236605   3.741   2.091   1.193  0.9451  1.3425 -0.4762
 5064TIP3   OH236606   3.172   4.288   3.537  0.5226  0.4826 -0.7161
 5064TIP3    H136607   3.115   4.328   3.472  1.1879  0.3465 -1.3940
 5064TIP3    H236608   3.261   4.299   3.502  0.9066  0.5934  0.2674
 5065TIP3   OH236609   2.555   2.682  11.695  0.1073 -0.1071  0.2628
 5065TIP3    H136610   2.471   2.662  11.653  1.0655 -1.3756 -1.1458
 5065TIP3    H236611   2.604   2.730  11.629  0.1323  1.6425  1.4720
 5066TIP3   OH236612   0.923   1.872  12.710  0.8257 -0.0406 -0.2700
 5066TIP3    H136613   0.913   1.876  12.614  0.5137  0.6417 -0.2149
 5066TIP3    H236614   0.833   1.864  12.743  0.8852  0.3041 -0.0148
 5067TIP3   OH236615   6.398   4.059  13.603  0.4132  0.1084  0.7680
 5067TIP3    H136616   6.467   4.000  13.633 -0.9488 -1.9344  0.0745
 5067TIP3    H236617   6.359   4.092  13.684  1.4874  0.4507  1.1638
 5068TIP3   OH236618   4.448   1.891   0.611 -0.4219  0.3117  0.8111
 5068TIP3    H136619   4.384   1.888   0.540  0.4255 -1.6674  0.0691
 5068TIP3    H236620   4.394   1.900   0.690 -1.3533  2.9792 -0.0154
 5069TIP3   OH236621   2.278   6.260  13.820 -0.1105  0.5727 -0.2203
 5069TIP3    H136622   2.259   6.324  13.889 -0.0427 -1.8099  2.1883
 5069TIP3    H236623   2.368   6.231  13.838 -0.3563 -0.6381 -0.8361
 5070TIP3   OH236624   3.451   2.323  11.108 -0.0254  0.0550 -0.5068
 5070TIP3    H136625   3.500   2.403  11.088  0.1985  0.2672  0.8249
 5070TIP3    H236626   3.362   2.353  11.125 -0.0649 -0.0472 -0.5305
 5071TIP3   OH236627   2.436   5.929   6.042 -0.0823 -0.0076  0.0563
 5071TIP3    H136628   2.523   5.965   6.060 -0.7571  1.9825 -0.4505
 5071TIP3    H236629   2.450   5.835   6.035  1.6816  0.0207  2.0834
 5072TIP3   OH236630   2.510   0.698   2.330  0.1847 -0.4464  0.3171
 5072TIP3    H136631   2.554   0.727   2.410  0.8912  1.6422 -0.7723
 5072TIP3    H236632   2.579   0.699   2.264 -0.4092 -2.0826 -0.3897
 5073TIP3   OH236633   1.058   6.064   1.080  0.2465  0.1268 -0.0858
 5073TIP3    H136634   1.078   6.142   1.133  2.0256 -0.6785  0.5007
 5073TIP3    H236635   1.099   6.083   0.995  0.5567 -0.1040  0.0118
 5074TIP3   OH236636   4.975   4.492   1.523 -0.1540  0.5578 -0.4028
 5074TIP3    H136637   4.943   4.404   1.544 -0.6105  0.3450 -1.8704
 5074TIP3    H236638   5.055   4.502   1.574 -0.3404 -0.5348  0.1234
 5075TIP3   OH236639   0.097   1.620   3.996 -0.4540  0.2723 -0.0756
 5075TIP3    H136640   0.007   1.591   4.011 -0.2247 -0.3576  0.0711
 5075TIP3    H236641   0.087   1.696   3.938 -1.1505  0.8871  0.7975
 5076TIP3   OH236642   5.124   1.669  12.845 -0.2321 -0.5665  0.2415
 5076TIP3    H136643   5.107   1.692  12.754  0.3844 -0.7746  0.0640
 5076TIP3    H236644   5.122   1.753  12.892  0.6243 -0.3060 -0.1674
 5077TIP3   OH236645   4.541   5.872   1.289 -0.4642 -0.3775  0.0014
 5077TIP3    H136646   4.526   5.823   1.208 -0.5737 -2.5184  1.2551
 5077TIP3    H236647   4.597   5.816   1.342  0.5623  1.4714  0.9994
 5078TIP3   OH236648   4.434   3.976   3.538  0.4277  0.2626 -0.1282
 5078TIP3    H136649   4.525   3.949   3.527  0.4240 -0.5350  1.4517
 5078TIP3    H236650   4.399   3.914   3.602 -1.2431  0.5375 -0.7275
 5079TIP3   OH236651   1.730   3.159   3.593  0.3371 -0.2985 -0.2510
 5079TIP3    H136652   1.815   3.140   3.632  0.2815 -0.4858 -0.2190
 5079TIP3    H236653   1.745   3.156   3.499  1.2940  3.6126 -0.3960
 5080TIP3   OH236654   3.102   5.109   2.192  0.2207 -0.6058 -0.4425
 5080TIP3    H136655   3.068   5.027   2.157  0.5049 -1.9551  2.2183
 5080TIP3    H236656   3.180   5.127   2.140 -1.1672 -0.6065 -2.6949
 5081TIP3   OH236657   6.697   1.799   1.846  0.4790  0.1354  0.1628
 5081TIP3    H136658   6.704   1.770   1.937 -0.9127  0.1361  0.2898
 5081TIP3    H236659   6.687   1.894   1.852 -1.3209 -0.0223  0.1385
 5082TIP3   OH236660   4.378   6.515   0.131  0.4488  0.5432 -0.2203
 5082TIP3    H136661   4.447   6.580   0.118 -1.1638  2.3831 -0.1743
 5082TIP3    H236662   4.322   6.524   0.054 -0.4833  0.0899  0.3850
 5083TIP3   OH236663   5.917   5.909   3.202 -0.7125  0.3969  0.3519
 5083TIP3    H136664   5.888   5.987   3.249 -1.5802  0.2532  0.0715
 5083TIP3    H236665   5.922   5.841   3.269 -1.5308  0.2964  0.3164
 5084TIP3   OH236666   5.793   0.314  12.649  0.1304 -0.2570  0.1510
 5084TIP3    H136667   5.829   0.287  12.733 -0.6764 -0.0842  0.5598
 5084TIP3    H236668   5.763   0.233  12.608 -0.5645 -0.2076  0.5538
 5085TIP3   OH236669   5.055   5.996  12.898  0.5681 -0.3415 -0.5753
 5085TIP3    H136670   5.012   5.974  12.980  1.0238 -0.1702 -0.2858
 5085TIP3    H236671   5.145   5.967  12.909  0.8166  0.3516 -0.7286
 5086TIP3   OH236672   4.535   4.468  11.778 -0.0461  0.2584 -0.2178
 5086TIP3    H136673   4.571   4.392  11.824 -0.5252 -0.7902 -1.5034
 5086TIP3    H236674   4.584   4.472  11.695 -0.0451  1.3427 -0.1830
 5087TIP3   OH236675   2.303   5.055   0.283  0.0900  0.3463 -0.2118
 5087TIP3    H136676   2.246   5.114   0.332 -2.1427 -2.6695  1.1085
 5087TIP3    H236677   2.268   5.057   0.194  1.4604  2.5562 -0.7963
 5088TIP3   OH236678   2.543   5.695  11.535 -0.5036 -0.0266 -0.0388
 5088TIP3    H136679   2.486   5.618  11.529  0.1817 -0.5391 -0.0183
 5088TIP3    H236680   2.498   5.753  11.597 -0.7409 -0.6510  0.3849
 5089TIP3   OH236681   6.749   5.774  11.055 -0.2540  0.2798 -0.3452
 5089TIP3    H136682   6.785   5.686  11.040 -0.2325 -0.3891  2.8589
 5089TIP3    H236683   6.787   5.828  10.986  1.8691 -1.7041 -0.8408
 5090TIP3   OH236684   2.909   6.216   2.690 -0.2359  0.2153  0.1819
 5090TIP3    H136685   2.962   6.233   2.768 -1.3718  1.0221  0.7923
 5090TIP3    H236686   2.906   6.121   2.684 -0.0115  0.1459  1.0302
 5091TIP3   OH236687   4.906   1.346  16.113 -0.4714  0.5214 -0.2964
 5091TIP3    H136688   4.916   1.293  16.035  0.0250 -0.4757  0.4250
 5091TIP3    H236689   4.886   1.284  16.183 -3.0274  1.5658  0.0316
 5092TIP3   OH236690   3.660   4.687   3.681 -0.4252 -0.1834 -0.0395
 5092TIP3    H136691   3.566   4.688   3.660 -0.1302  0.1603 -1.4731
 5092TIP3    H236692   3.682   4.779   3.696 -0.3258 -0.2703  0.3520
 5093TIP3   OH236693   2.917   2.636  13.398  0.3701  0.3383  0.3776
 5093TIP3    H136694   2.987   2.662  13.457  1.8090 -1.0152 -0.6361
 5093TIP3    H236695   2.898   2.714  13.347  0.5863  0.9374  1.1926
 5094TIP3   OH236696   0.512   5.635  10.497  0.3636 -0.2037 -0.7002
 5094TIP3    H136697   0.481   5.671  10.413 -3.1996  0.1637  0.5843
 5094TIP3    H236698   0.547   5.710  10.544  1.5001 -0.2400 -1.4370
 5095TIP3   OH236699   5.309   2.946   0.545  0.0640 -0.1832  0.3636
 5095TIP3    H136700   5.233   2.891   0.563  0.1798 -0.0614  1.2841
 5095TIP3    H236701   5.305   3.014   0.612 -0.7993  1.7033 -1.4752
 5096TIP3   OH236702   4.577   1.298   0.728  0.6960  0.1677 -0.1761
 5096TIP3    H136703   4.656   1.345   0.757  0.1110 -0.2366  2.3877
 5096TIP3    H236704   4.505   1.355   0.753  0.1333 -0.0498 -1.2849
 5097TIP3   OH236705   1.676   6.410   2.387  0.2009 -0.2349  0.2196
 5097TIP3    H136706   1.630   6.442   2.309 -1.5939 -0.8644  0.9957
 5097TIP3    H236707   1.731   6.484   2.413 -0.9282  0.8246 -0.2930
 5098TIP3   OH236708   4.621   4.944  13.918  0.6044  0.4306 -0.0426
 5098TIP3    H136709   4.560   4.873  13.895  0.3909 -0.5107  3.0124
 5098TIP3    H236710   4.696   4.930  13.860 -1.2269  0.5065 -2.6313
 5099TIP3   OH236711   0.498   3.457  16.158 -0.0186  0.6544 -0.1846
 5099TIP3    H136712   0.500   3.536  16.103 -0.4842  0.7662 -0.0431
 5099TIP3    H236713   0.499   3.384  16.095  0.7206  0.7629 -0.3093
 5100TIP3   OH236714   2.041   5.839   6.014 -0.1745  0.0537  0.3500
 5100TIP3    H136715   2.017   5.828   6.106  0.0480  0.7459  0.4988
 5100TIP3    H236716   2.094   5.762   5.994 -0.4944 -0.2618  0.7114
 5101TIP3   OH236717   5.377   4.784  14.956  0.5614 -0.0277  0.3675
 5101TIP3    H136718   5.341   4.778  14.867  0.5161 -2.1632  0.4756
 5101TIP3    H236719   5.305   4.756  15.013  0.9711  0.1493  0.9781
 5102TIP3   OH236720   2.013   1.285   2.876 -0.1555 -0.4199  0.1744
 5102TIP3    H136721   2.044   1.195   2.875 -0.2591 -0.5109  2.0331
 5102TIP3    H236722   1.964   1.293   2.958 -2.7434  0.4976 -1.3253
 5103TIP3   OH236723   0.149   0.960   1.636 -0.7073  0.6323  0.3572
 5103TIP3    H136724   0.220   0.903   1.667 -1.6807 -1.4536 -1.0049
 5103TIP3    H236725   0.071   0.905   1.642 -1.9838  2.4015  0.4790
 5104TIP3   OH236726   0.398   1.150  12.245  0.2514  0.0703 -0.3303
 5104TIP3    H136727   0.309   1.179  12.229  0.6341  1.6424  0.2673
 5104TIP3    H236728   0.392   1.054  12.247 -1.3710  0.1458 -0.4660
 5105TIP3   OH236729   3.564   5.075   2.832  0.0652 -0.3442  0.2763
 5105TIP3    H136730   3.566   5.159   2.786 -2.9913 -0.5068 -0.3707
 5105TIP3    H236731   3.576   5.009   2.763 -1.3203 -0.5006  0.1591
 5106TIP3   OH236732   1.934   2.864   1.934 -0.2757  0.0678 -0.1909
 5106TIP3    H136733   1.883   2.854   1.853 -0.3297  0.6556 -0.2323
 5106TIP3    H236734   1.962   2.955   1.934 -1.4124  0.4533  1.1241
 5107TIP3   OH236735   5.186   3.502   0.824 -0.0219  0.0474 -0.1839
 5107TIP3    H136736   5.199   3.536   0.912 -0.7589  0.7350 -0.3325
 5107TIP3    H236737   5.152   3.413   0.838 -1.8236  0.7585  0.2728
 5108TIP3   OH236738   2.226   5.515  12.146 -0.2202 -0.5090  0.2353
 5108TIP3    H136739   2.274   5.585  12.191 -0.4604  0.5843 -1.1619
 5108TIP3    H236740   2.225   5.443  12.209  1.3652  0.1989  1.1243
 5109TIP3   OH236741   2.574   6.570   1.542  0.0449 -0.0467  0.5741
 5109TIP3    H136742   2.508   6.539   1.480 -0.8088  1.8651  0.4647
 5109TIP3    H236743   2.615   6.645   1.498  1.1691 -0.2082  1.3142
 5110TIP3   OH236744   1.502   2.930  16.148  0.7159 -0.4654  0.2249
 5110TIP3    H136745   1.436   2.970  16.091  0.2668  1.0597  1.7256
 5110TIP3    H236746   1.451   2.875  16.207  1.2270 -2.4619 -1.0913
 5111TIP3   OH236747   0.643   2.552   4.918 -0.0920 -0.1633  0.8229
 5111TIP3    H136748   0.622   2.487   4.852 -2.0071  0.9005  0.2862
 5111TIP3    H236749   0.735   2.573   4.904  0.0391 -1.3597 -0.2390
 5112TIP3   OH236750   4.471   4.647   2.603 -0.3412 -0.5378  0.1203
 5112TIP3    H136751   4.457   4.619   2.512  0.6137 -0.9086  0.0716
 5112TIP3    H236752   4.557   4.611   2.626  0.4341  1.3816  0.4549
 5113TIP3   OH236753   1.935   4.356   0.853  0.2983 -0.7020  0.4352
 5113TIP3    H136754   1.884   4.285   0.890  0.6306 -0.6055  1.0827
 5113TIP3    H236755   1.894   4.436   0.888  0.0260 -0.5732 -0.1585
 5114TIP3   OH236756   1.636   4.919  16.505  0.0899 -0.4658  0.4144
 5114TIP3    H136757   1.695   4.844  16.498  0.8926  0.2335 -0.8418
 5114TIP3    H236758   1.570   4.893  16.569  1.2102 -1.6502  1.1178
 5115TIP3   OH236759   5.704   1.162  14.091  0.1227 -0.0038 -0.4341
 5115TIP3    H136760   5.656   1.112  14.025  0.9870 -0.9400 -0.3728
 5115TIP3    H236761   5.795   1.154  14.065  0.7478 -2.2784  2.0456
 5116TIP3   OH236762   2.852   5.144   1.810 -0.2111  0.3386 -0.4026
 5116TIP3    H136763   2.869   5.233   1.841 -0.5975 -0.1265  1.2303
 5116TIP3    H236764   2.930   5.121   1.759  1.3458  0.4835  1.8130
 5117TIP3   OH236765   2.200   6.297  11.977  0.3680  0.6026  0.1655
 5117TIP3    H136766   2.215   6.295  11.883  1.3332  1.7832  0.2662
 5117TIP3    H236767   2.143   6.222  11.994  1.5086 -0.6282 -1.1246
 5118TIP3   OH236768   6.397   6.545   2.660 -0.1331 -0.3047  0.3252
 5118TIP3    H136769   6.372   6.636   2.678  0.4308 -0.3603  1.4569
 5118TIP3    H236770   6.382   6.499   2.742 -0.8473 -1.3530 -0.3681
 5119TIP3   OH236771   4.510   1.144   4.913  0.0619  0.0432  0.2219
 5119TIP3    H136772   4.508   1.240   4.905 -0.9649 -0.0298 -0.6421
 5119TIP3    H236773   4.501   1.113   4.823 -0.4792 -0.8743  0.5837
 5120TIP3   OH236774   4.071   4.257   5.062  0.0928  0.3496  0.5649
 5120TIP3    H136775   4.111   4.231   5.145 -2.0731 -1.0412  1.2841
 5120TIP3    H236776   4.095   4.349   5.051  1.3137  0.2676  2.1747
 5121TIP3   OH236777   1.233   6.172   0.820 -0.0262 -0.1894  0.3354
 5121TIP3    H136778   1.318   6.214   0.833 -0.1539 -0.6002  3.2719
 5121TIP3    H236779   1.175   6.244   0.794  1.0417  0.2249 -0.9870
 5122TIP3   OH236780   3.010   2.849  12.078  0.0348 -0.3960 -0.3507
 5122TIP3    H136781   3.071   2.914  12.043 -0.1590 -0.2176 -0.3572
 5122TIP3    H236782   2.985   2.796  12.002 -0.0818 -0.2548 -0.4119
 5123TIP3   OH236783   4.312   5.359  11.995  0.2873 -0.2227  0.5229
 5123TIP3    H136784   4.313   5.454  11.990  0.4983 -0.1790  1.2162
 5123TIP3    H236785   4.395   5.336  12.037  0.0356 -0.6774  0.7788
 5124TIP3   OH236786   6.354   4.399  14.898 -0.0060 -0.4448 -0.3051
 5124TIP3    H136787   6.397   4.317  14.924 -1.0950 -1.3743 -1.3391
 5124TIP3    H236788   6.319   4.434  14.980  0.2334 -1.1638  0.1130
 5125TIP3   OH236789   0.588   5.186  14.636  0.3919 -0.4983  0.1955
 5125TIP3    H136790   0.518   5.247  14.611  0.5093 -0.5343 -0.2292
 5125TIP3    H236791   0.646   5.237  14.693 -0.0692 -0.5186  0.6914
 5126TIP3   OH236792   2.876   1.012  13.815 -0.7883 -0.5087 -0.4889
 5126TIP3    H136793   2.805   1.077  13.815 -0.5926 -0.2280  1.2773
 5126TIP3    H236794   2.839   0.938  13.863  0.5513  0.2601  1.9376
 5127TIP3   OH236795   5.070   1.141   5.046  0.2861  0.0401  0.3522
 5127TIP3    H136796   5.065   1.046   5.060  1.1863 -0.1542 -0.5034
 5127TIP3    H236797   5.123   1.173   5.118 -0.4923 -0.0071  0.9666
 5128TIP3   OH236798   2.588   2.353   3.343  0.1566 -0.0090  0.4377
 5128TIP3    H136799   2.616   2.324   3.256 -0.7657  2.5956 -0.8439
 5128TIP3    H236800   2.651   2.313   3.403  1.8421 -0.5721 -1.5793
 5129TIP3   OH236801   2.039   5.150  16.667 -0.4882  0.0085 -0.6589
 5129TIP3    H136802   2.115   5.187  16.623  0.7596  1.4547  2.4069
 5129TIP3    H236803   1.970   5.215  16.653  0.0268  0.6846 -0.1592
 5130TIP3   OH236804   0.042   2.192   4.735 -0.2743 -0.4182 -0.0612
 5130TIP3    H136805  -0.049   2.189   4.763 -0.5549  2.5282 -0.2750
 5130TIP3    H236806   0.091   2.152   4.806 -1.6258 -0.9453  0.6068
 5131TIP3   OH236807   2.977   3.628   0.183  0.5506  0.3664 -0.5805
 5131TIP3    H136808   2.973   3.560   0.116  1.2941 -2.1903  1.7705
 5131TIP3    H236809   3.067   3.624   0.216  0.5369  2.3405 -0.1456
 5132TIP3   OH236810   3.825   5.281  12.244 -0.5284 -0.3875  0.3227
 5132TIP3    H136811   3.836   5.193  12.208 -1.3124 -0.5759  0.5177
 5132TIP3    H236812   3.731   5.298  12.239 -0.6577 -0.3636  2.1044
 5133TIP3   OH236813   4.367   0.108   5.405  0.1728 -0.0465  0.3880
 5133TIP3    H136814   4.420   0.166   5.350  0.8509 -1.3999 -0.4567
 5133TIP3    H236815   4.431   0.049   5.444 -0.5147 -0.3191  1.1035
 5134TIP3   OH236816   4.754   2.910  16.559 -0.2216 -0.4100  0.1195
 5134TIP3    H136817   4.819   2.974  16.587 -0.6551 -0.3850  1.0899
 5134TIP3    H236818   4.707   2.954  16.488  0.6895 -0.3674 -0.4763
 5135TIP3   OH236819   1.621   1.165  11.528  0.1611  0.2871 -0.0499
 5135TIP3    H136820   1.563   1.236  11.499  1.0032  0.5977 -1.0270
 5135TIP3    H236821   1.562   1.090  11.540 -0.4244  0.5331 -1.2306
 5136TIP3   OH236822   6.161   5.596  13.661 -0.1831 -0.5417 -0.3833
 5136TIP3    H136823   6.230   5.537  13.630  2.2146  2.5101 -1.4674
 5136TIP3    H236824   6.183   5.613  13.753  0.5158  0.3100 -0.6867
 5137TIP3   OH236825   6.403   5.186  13.164 -0.0496 -0.0538 -0.5844
 5137TIP3    H136826   6.366   5.210  13.249 -0.4666 -0.7588 -0.5602
 5137TIP3    H236827   6.422   5.093  13.172  1.7906  0.2831 -0.5824
 5138TIP3   OH236828   1.687   4.728   1.711  0.4393  0.6331 -0.5466
 5138TIP3    H136829   1.655   4.818   1.717 -1.0203  0.1234 -0.2406
 5138TIP3    H236830   1.685   4.696   1.802 -0.4407 -0.1454 -0.8259
 5139TIP3   OH236831   4.651   2.081   5.435 -0.4429  0.0301  0.2027
 5139TIP3    H136832   4.657   2.071   5.530 -1.8629 -1.4436  0.1813
 5139TIP3    H236833   4.580   2.143   5.421  1.3139  2.1501  0.0867
 5140TIP3   OH236834   5.649   4.841   1.325  0.1930 -0.0450  0.4974
 5140TIP3    H136835   5.564   4.836   1.282 -0.2189  2.4756  0.8953
 5140TIP3    H236836   5.631   4.814   1.415 -0.3001  0.8088  0.6713
 5141TIP3   OH236837   3.880   6.237   1.861  0.1984  0.5747 -0.1900
 5141TIP3    H136838   3.924   6.261   1.779  0.9598 -1.1970 -0.3630
 5141TIP3    H236839   3.795   6.204   1.833 -0.6629  2.5402  0.0070
 5142TIP3   OH236840   1.647   1.564   3.163  0.2929 -0.1820  0.3140
 5142TIP3    H136841   1.618   1.527   3.247  1.9293 -1.7393  0.2506
 5142TIP3    H236842   1.729   1.609   3.184 -0.5662  1.6346 -0.0288
 5143TIP3   OH236843   3.743   0.848   2.870 -0.5537  0.2948 -0.4784
 5143TIP3    H136844   3.804   0.819   2.937  0.7539 -0.1991 -1.8284
 5143TIP3    H236845   3.799   0.875   2.797 -1.8807 -3.0796 -2.9908
 5144TIP3   OH236846   2.177   0.581  12.396 -0.1277  0.0863 -0.9630
 5144TIP3    H136847   2.093   0.538  12.410 -0.1183 -0.5773 -2.7553
 5144TIP3    H236848   2.181   0.649  12.464 -1.3310 -0.9727  0.2149
 5145TIP3   OH236849   0.700   2.383   1.730  0.1477  0.1807  0.0862
 5145TIP3    H136850   0.697   2.315   1.662 -0.5531  0.1504  0.1439
 5145TIP3    H236851   0.721   2.335   1.811 -0.7132 -0.0325  0.1949
 5146TIP3   OH236852   2.147   1.195  11.212  0.4444  0.3183 -0.4395
 5146TIP3    H136853   2.125   1.257  11.142  0.3339  2.3512  1.3017
 5146TIP3    H236854   2.238   1.169  11.193 -0.0601 -0.4077 -2.1372
 5147TIP3   OH236855   4.116   5.669   3.520  0.5113 -0.6458 -0.3395
 5147TIP3    H136856   4.067   5.615   3.582 -0.1830 -0.1464 -0.4489
 5147TIP3    H236857   4.050   5.723   3.478  1.0678 -0.4928 -1.0259
 5148TIP3   OH236858   6.206   5.680   3.941 -0.6873 -0.4782 -0.2703
 5148TIP3    H136859   6.252   5.764   3.953 -0.7239 -0.1261 -2.2558
 5148TIP3    H236860   6.113   5.704   3.940 -0.8128 -0.8423  1.1787
 5149TIP3   OH236861   2.969   3.394   1.499 -0.2030  0.2302 -0.1082
 5149TIP3    H136862   3.053   3.436   1.517 -0.8800  1.2639  0.7864
 5149TIP3    H236863   2.906   3.465   1.500 -1.1853 -0.6131 -0.1041
 5150TIP3   OH236864   6.034   1.445  11.762 -0.2817  0.0240  0.4971
 5150TIP3    H136865   6.050   1.483  11.675  0.0106  0.0757  0.5736
 5150TIP3    H236866   5.978   1.370  11.745  1.9544 -1.6018 -0.0498
 5151TIP3   OH236867   0.375   3.142  13.355  0.1974  0.4229 -0.3305
 5151TIP3    H136868   0.421   3.159  13.273 -0.0109 -0.8810 -0.7337
 5151TIP3    H236869   0.439   3.161  13.423  1.3100 -1.1852 -0.8790
 5152TIP3   OH236870   4.020   2.709  13.424 -0.1059 -0.0472  0.2796
 5152TIP3    H136871   4.013   2.614  13.418  0.5720 -0.1476  0.8995
 5152TIP3    H236872   3.936   2.737  13.460  0.1641 -0.5454  1.3294
 5153TIP3   OH236873   3.491   4.078   2.814 -0.0686 -0.6501 -0.9147
 5153TIP3    H136874   3.558   4.146   2.807 -0.3777 -0.3777 -1.2564
 5153TIP3    H236875   3.409   4.126   2.828  0.0594 -1.0288  1.6571
 5154TIP3   OH236876   3.546   6.116  11.532 -0.4943 -0.3177 -0.5638
 5154TIP3    H136877   3.638   6.088  11.530 -0.5740 -0.5378 -1.8643
 5154TIP3    H236878   3.518   6.111  11.441 -1.0067  2.3265 -0.6337
 5155TIP3   OH236879   2.566   0.333  15.725 -0.6142  0.1665 -0.3895
 5155TIP3    H136880   2.607   0.337  15.812  0.6013  1.3357 -0.9720
 5155TIP3    H236881   2.639   0.349  15.664 -1.4807 -0.4382 -1.6110
 5156TIP3   OH236882   4.920   3.769   3.672 -0.5246  0.3979  0.1119
 5156TIP3    H136883   4.843   3.775   3.615 -0.5162  0.0595  0.0634
 5156TIP3    H236884   4.993   3.792   3.615 -0.4450 -0.5318 -0.1834
 5157TIP3   OH236885   4.762   2.288  16.330 -0.2038  0.1411  0.0661
 5157TIP3    H136886   4.792   2.216  16.273  0.1331 -0.1792  0.6446
 5157TIP3    H236887   4.705   2.340  16.273  1.1550  0.5672 -0.9650
 5158TIP3   OH236888   4.289   2.645   0.108 -0.0086 -0.4841 -0.1610
 5158TIP3    H136889   4.318   2.659   0.017 -1.3851  0.7740 -0.4550
 5158TIP3    H236890   4.269   2.733   0.140 -1.7723 -1.1008  0.5634
 5159TIP3   OH236891   5.842   5.257  12.258 -0.1381  0.1857  0.2534
 5159TIP3    H136892   5.812   5.167  12.270  0.0266 -0.0242 -0.8782
 5159TIP3    H236893   5.777   5.309  12.305 -0.7265 -0.4594  0.1774
 5160TIP3   OH236894   5.158   3.569   1.082 -0.6584  0.3879 -0.0864
 5160TIP3    H136895   5.211   3.620   1.143 -0.4420 -0.0600  0.1078
 5160TIP3    H236896   5.143   3.486   1.127  0.4692 -0.3934 -1.1004
 5161TIP3   OH236897   1.460   1.937   4.374  0.2294  0.3887 -0.9687
 5161TIP3    H136898   1.496   1.860   4.329  3.0073  1.9737 -1.7367
 5161TIP3    H236899   1.515   1.947   4.452  0.5978  2.1029 -1.4076
 5162TIP3   OH236900   2.711   6.014  14.422 -0.0062 -0.9271  0.0701
 5162TIP3    H136901   2.769   6.072  14.472 -1.0044  0.3506 -0.2053
 5162TIP3    H236902   2.700   5.938  14.479  1.4612 -0.9442  0.3803
 5163TIP3   OH236903   5.462   5.453   1.910 -0.3611  0.4268 -0.2621
 5163TIP3    H136904   5.430   5.372   1.950 -2.6486  1.8434  0.9417
 5163TIP3    H236905   5.390   5.483   1.854 -0.7863  3.0634  1.5202
 5164TIP3   OH236906   6.658   0.109  14.960 -0.1110 -0.1524  0.2089
 5164TIP3    H136907   6.690   0.034  15.011  0.2502 -1.1709 -1.4428
 5164TIP3    H236908   6.575   0.133  15.003 -0.9553 -2.3875 -0.0134
 5165TIP3   OH236909   4.051   1.755  15.778  0.1436 -0.0270 -0.4917
 5165TIP3    H136910   3.957   1.745  15.767 -0.1239  1.4882  0.1660
 5165TIP3    H236911   4.085   1.771  15.690 -0.1333 -1.1069 -0.7990
 5166TIP3   OH236912   0.528   0.408   1.746  0.5871 -0.2346 -0.1513
 5166TIP3    H136913   0.618   0.432   1.724  0.0472  0.3728 -1.8259
 5166TIP3    H236914   0.498   0.477   1.805  1.0245 -0.1080 -0.0738
 5167TIP3   OH236915   4.094   2.371  10.935 -0.0176  0.1652 -0.3410
 5167TIP3    H136916   4.024   2.426  10.971  0.5109  0.9426 -0.4943
 5167TIP3    H236917   4.161   2.370  11.003  1.0300  1.7177 -1.2839
 5168TIP3   OH236918   3.070   2.923  11.668 -0.6445  0.0689 -0.1019
 5168TIP3    H136919   3.018   3.003  11.661 -0.7982 -0.1422 -1.6731
 5168TIP3    H236920   3.029   2.873  11.739 -2.4299  0.0260 -1.1141
 5169TIP3   OH236921   1.896   1.146  14.247  0.4519 -0.2466  0.2242
 5169TIP3    H136922   1.811   1.190  14.252  0.2083 -0.6912  0.0940
 5169TIP3    H236923   1.907   1.126  14.154 -0.0341 -1.5786  0.4269
 5170TIP3   OH236924   1.767   2.397   4.075  0.5775 -0.2726  0.2785
 5170TIP3    H136925   1.790   2.460   4.143  0.6041 -0.9152  0.8712
 5170TIP3    H236926   1.673   2.382   4.088  0.3204  0.4581 -0.5598
 5171TIP3   OH236927   2.972   4.996  12.237  0.1724 -0.0008 -0.1762
 5171TIP3    H136928   3.020   4.913  12.229  1.6187  0.8399 -0.4874
 5171TIP3    H236929   2.889   4.972  12.279  0.2319 -1.7226 -0.9574
 5172TIP3   OH236930   4.628   0.494   1.073 -0.5473  0.1452  0.8959
 5172TIP3    H136931   4.579   0.412   1.064  0.4990 -0.2959 -1.2403
 5172TIP3    H236932   4.625   0.534   0.987  1.6526  0.7960  1.0684
 5173TIP3   OH236933   6.395   3.444   2.464  0.2357  0.1215  0.3138
 5173TIP3    H136934   6.439   3.529   2.467  0.1917  0.1995 -0.8648
 5173TIP3    H236935   6.461   3.385   2.426 -0.4089  0.0740 -0.7540
 5174TIP3   OH236936   4.437   5.668  14.062  0.3495 -0.1862  0.0475
 5174TIP3    H136937   4.344   5.658  14.082  0.1960 -0.4763 -0.7394
 5174TIP3    H236938   4.442   5.749  14.011  0.5161 -0.2146  0.0177
 5175TIP3   OH236939   5.183   4.024   2.385 -0.0845  0.4073  0.5399
 5175TIP3    H136940   5.257   4.085   2.389  1.5100 -0.9399 -3.2028
 5175TIP3    H236941   5.124   4.063   2.321 -2.1183  0.8393  2.5603
 5176TIP3   OH236942   5.815   5.739   0.108  0.3941  0.0117  0.0353
 5176TIP3    H136943   5.811   5.663   0.050  0.1600 -1.2277  1.6217
 5176TIP3    H236944   5.903   5.775   0.095  0.0350  0.3522 -1.7567
 5177TIP3   OH236945   1.572   5.144   5.953  0.0488 -0.5003 -0.1383
 5177TIP3    H136946   1.580   5.238   5.966  1.2217 -0.5125 -0.7107
 5177TIP3    H236947   1.659   5.109   5.970 -0.7188 -1.7212  1.7395
 5178TIP3   OH236948   6.588   3.502  16.412  0.3229  0.0702  0.0746
 5178TIP3    H136949   6.609   3.477  16.322 -1.1048 -0.5526 -0.1072
 5178TIP3    H236950   6.575   3.419  16.458 -1.4776  0.3794  0.1993
 5179TIP3   OH236951   2.960   6.289   3.856 -0.3087 -0.3202  0.0508
 5179TIP3    H136952   2.911   6.249   3.783  0.7556  0.7770 -1.3305
 5179TIP3    H236953   3.006   6.215   3.897  1.5658 -0.6709 -2.3972
 5180TIP3   OH236954   0.579   0.261   4.224  0.2643 -0.3733 -0.5057
 5180TIP3    H136955   0.486   0.276   4.238 -0.0730 -2.0237 -0.7802
 5180TIP3    H236956   0.583   0.186   4.166  1.7595  1.3670 -2.8297
 5181TIP3   OH236957   1.022   0.496   5.649 -0.3172 -0.2618 -0.0734
 5181TIP3    H136958   1.107   0.466   5.616 -0.0675  0.1164  0.2240
 5181TIP3    H236959   1.019   0.465   5.739 -0.7550 -0.7962 -0.2695
 5182TIP3   OH236960   1.757   2.303  14.967 -0.1588  0.5852 -0.0384
 5182TIP3    H136961   1.720   2.215  14.973 -0.3538  0.5647 -1.3239
 5182TIP3    H236962   1.682   2.361  14.972 -0.2813  0.5824 -1.5348
 5183TIP3   OH236963   0.948   1.600   4.396 -0.0600 -0.3514  0.8372
 5183TIP3    H136964   0.929   1.680   4.346 -0.8112  0.0273  1.6866
 5183TIP3    H236965   1.000   1.547   4.337 -2.0293 -0.5155 -0.8880
 5184TIP3   OH236966   5.830   6.681   2.784 -0.1921 -0.3529  0.2680
 5184TIP3    H136967   5.901   6.618   2.774 -1.0224 -0.9980 -2.0825
 5184TIP3    H236968   5.791   6.661   2.869  1.8393 -0.5643  1.1904
 5185TIP3   OH236969   5.366   6.554   1.428 -0.2059  0.1347 -0.0528
 5185TIP3    H136970   5.392   6.507   1.507 -1.1801  0.2596  0.3696
 5185TIP3    H236971   5.307   6.494   1.382 -0.3206  0.3850 -0.2394
 5186TIP3   OH236972   4.094   6.609   3.477 -0.0993 -0.1484 -0.3953
 5186TIP3    H136973   4.073   6.693   3.517 -2.7925 -0.1658 -1.5123
 5186TIP3    H236974   4.083   6.624   3.383  1.0410 -1.3420 -0.7441
 5187TIP3   OH236975   1.080   2.125  10.539  0.7589 -0.0006  0.8738
 5187TIP3    H136976   1.000   2.170  10.514  0.6898  0.2738  1.5520
 5187TIP3    H236977   1.128   2.111  10.457 -0.8961 -1.9816  0.1705
 5188TIP3   OH236978   4.119   0.106  16.370  0.4638  0.1546  0.0883
 5188TIP3    H136979   4.198   0.160  16.359  0.2486  1.3905  3.3705
 5188TIP3    H236980   4.139   0.025  16.323  2.2084  1.7176 -2.1192
 5189TIP3   OH236981   4.597   0.319  10.202 -0.5339  0.1269  0.0735
 5189TIP3    H136982   4.580   0.225  10.202 -0.4250  0.0947 -1.2132
 5189TIP3    H236983   4.516   0.359  10.169  0.0292  0.3425 -1.0881
 5190TIP3   OH236984   5.638   2.608  10.582 -0.3128 -0.1224 -0.2411
 5190TIP3    H136985   5.664   2.661  10.657 -1.4051 -0.2534  0.2523
 5190TIP3    H236986   5.542   2.601  10.590 -0.3582 -0.7716 -1.2190
 5191TIP3   OH236987   2.168   6.184   0.580  0.2659 -0.1292 -0.2806
 5191TIP3    H136988   2.143   6.275   0.561 -1.2205 -0.5338 -0.3866
 5191TIP3    H236989   2.168   6.141   0.494 -4.0107 -1.3642  0.0957
 5192TIP3   OH236990   6.409   0.590   5.064 -0.4750  0.0882  0.6481
 5192TIP3    H136991   6.323   0.549   5.075 -0.5925 -0.3503 -1.4569
 5192TIP3    H236992   6.456   0.531   5.006  0.2190  1.7362 -0.5159
 5193TIP3   OH236993   4.626   6.299   3.333  0.3736 -0.5324  0.2348
 5193TIP3    H136994   4.556   6.355   3.368 -0.0834 -0.6623 -0.4512
 5193TIP3    H236995   4.689   6.360   3.296  0.0482 -0.4500 -0.1926
 5194TIP3   OH236996   3.681   0.102  16.536 -0.2881  0.2390 -0.5068
 5194TIP3    H136997   3.708   0.164  16.469 -0.8045  0.6348 -0.3545
 5194TIP3    H236998   3.762   0.077  16.581 -0.2125  1.7862  0.2804
 5195TIP3   OH236999   5.299   0.884  12.973 -0.5502 -0.2172 -0.2229
 5195TIP3    H137000   5.282   0.933  13.053 -1.0928  0.9673 -1.0436
 5195TIP3    H237001   5.215   0.880  12.928 -0.2397 -0.8214 -0.7726
 5196TIP3   OH237002   2.875   3.133  12.001 -0.0335  0.3889  0.6730
 5196TIP3    H137003   2.881   3.151  11.907 -0.2660  0.6099  0.6985
 5196TIP3    H237004   2.934   3.196  12.041  0.5328 -0.1158  0.6292
 5197TIP3   OH237005   6.163   1.676   0.105  0.0469 -0.2510 -0.3889
 5197TIP3    H137006   6.244   1.628   0.121 -0.4158 -0.5049  1.3545
 5197TIP3    H237007   6.181   1.727   0.026  1.4189 -1.3520 -0.8227
 5198TIP3   OH237008   3.050   0.019   1.361 -0.6903 -0.3070  0.1027
 5198TIP3    H137009   3.053   0.059   1.448 -0.2648 -2.8755  1.3710
 5198TIP3    H237010   2.983   0.068   1.314  0.9501  2.9517  0.8767
 5199TIP3   OH237011   1.183   4.575  14.578 -0.1597 -0.3705  0.0036
 5199TIP3    H137012   1.171   4.649  14.519  0.7730  0.9238  1.3697
 5199TIP3    H237013   1.097   4.535  14.585 -1.1183  1.6904  0.6364
 5200TIP3   OH237014   3.701   3.996   5.604  0.0618  0.0822 -0.4692
 5200TIP3    H137015   3.709   4.021   5.696  0.6692  1.1857 -0.8066
 5200TIP3    H237016   3.736   3.907   5.601  0.8468  0.3563  0.2138
 5201TIP3   OH237017   1.791   1.282  16.205  0.6924 -0.6146 -0.2098
 5201TIP3    H137018   1.811   1.189  16.206  0.4344 -0.6891  1.9362
 5201TIP3    H237019   1.714   1.291  16.262  0.7349  0.9124 -0.3427
 5202TIP3   OH237020   5.273   3.583  14.527 -0.3536  0.1947  0.2808
 5202TIP3    H137021   5.275   3.565  14.433  0.8915  0.2578  0.2847
 5202TIP3    H237022   5.316   3.508  14.567 -0.6822  0.2731  0.7938
 5203TIP3   OH237023   0.262   1.744  15.714 -0.1094 -0.8332 -0.4257
 5203TIP3    H137024   0.284   1.652  15.704 -1.0783 -1.1726  0.3995
 5203TIP3    H237025   0.175   1.752  15.674  0.8923  0.2247 -2.5703
 5204TIP3   OH237026   1.310   1.691  15.551  0.1554 -0.0830  0.5869
 5204TIP3    H137027   1.365   1.630  15.599  1.5046  0.5546 -0.0718
 5204TIP3    H237028   1.254   1.636  15.496  0.9210 -0.7295  0.4470
 5205TIP3   OH237029   0.520   6.350  12.374  0.4544 -0.1296 -0.1024
 5205TIP3    H137030   0.483   6.375  12.289 -0.5513  0.8206  0.6015
 5205TIP3    H237031   0.449   6.361  12.436  1.3740 -0.1535  0.9851
 5206TIP3   OH237032   2.329   5.401   3.271  0.5774 -0.2618  0.4597
 5206TIP3    H137033   2.423   5.384   3.270  0.9017  1.2237 -1.9436
 5206TIP3    H237034   2.293   5.341   3.206  0.2447  0.8722 -0.4293
 5207TIP3   OH237035   1.101   6.433   0.831  0.2560  0.0280  0.6521
 5207TIP3    H137036   1.132   6.520   0.807  0.2945 -0.0132  0.5473
 5207TIP3    H237037   1.127   6.422   0.922  1.2350 -0.3039  0.3500
 5208TIP3   OH237038   4.126   3.788  15.162  0.7349 -0.1690  0.2191
 5208TIP3    H137039   4.058   3.854  15.171 -0.0345 -0.8943 -0.1149
 5208TIP3    H237040   4.200   3.822  15.212  1.0415  1.8450 -1.4760
 5209TIP3   OH237041   2.854   0.862   1.420  0.6198 -0.7548  0.1851
 5209TIP3    H137042   2.823   0.774   1.400 -0.3442 -0.1911 -0.9253
 5209TIP3    H237043   2.916   0.883   1.350  1.9362 -1.0447  1.2079
 5210TIP3   OH237044   0.219   5.568  14.675  0.2276  0.2056  0.2987
 5210TIP3    H137045   0.172   5.572  14.592  0.4431  0.0444  0.1683
 5210TIP3    H237046   0.166   5.511  14.730 -0.2801  0.8672  0.5079
 5211TIP3   OH237047   1.629   1.141   3.420  0.2153  0.2054 -0.2436
 5211TIP3    H137048   1.538   1.152   3.390 -0.0968 -1.8579 -0.1932
 5211TIP3    H237049   1.635   1.196   3.498 -1.1461  0.0304  0.0100
 5212TIP3   OH237050   4.651   0.489   4.231 -0.1448 -0.7742 -0.3977
 5212TIP3    H137051   4.631   0.493   4.137 -0.2112  1.1620 -0.3490
 5212TIP3    H237052   4.568   0.468   4.272 -0.2753 -0.9197 -0.7299
 5213TIP3   OH237053   4.881   0.895   0.444  0.0472 -0.5894 -0.1420
 5213TIP3    H137054   4.818   0.855   0.504 -1.9772  0.0618 -1.6739
 5213TIP3    H237055   4.831   0.907   0.363  2.2963 -0.3458 -1.5755
 5214TIP3   OH237056   3.223   0.945   3.518 -0.4670 -0.4696 -0.3219
 5214TIP3    H137057   3.204   0.892   3.440 -0.8407 -0.0559 -0.5150
 5214TIP3    H237058   3.243   1.032   3.483  3.8791 -1.2638 -0.3678
 5215TIP3   OH237059   0.344   5.630  13.796  0.4058  0.1798  0.3842
 5215TIP3    H137060   0.414   5.655  13.856  0.2336  0.3113  0.5281
 5215TIP3    H237061   0.303   5.712  13.770  0.9743  0.1911 -0.5145
 5216TIP3   OH237062   0.293   5.720   4.154  0.2144  0.7647  0.2888
 5216TIP3    H137063   0.345   5.722   4.073  0.2355  0.4500  0.2931
 5216TIP3    H237064   0.215   5.670   4.131  0.3116  0.5063  0.5179
 5217TIP3   OH237065   6.027   2.955  13.265  0.1214 -0.7290  0.7744
 5217TIP3    H137066   6.048   3.047  13.277 -1.1540 -0.2708 -0.2615
 5217TIP3    H237067   5.946   2.942  13.315 -0.3841 -0.9625 -0.0779
 5218TIP3   OH237068   3.275   4.526  13.435  0.0014 -0.3923  0.4455
 5218TIP3    H137069   3.247   4.437  13.458 -1.0009  0.1414  1.3946
 5218TIP3    H237070   3.271   4.528  13.340  1.8708 -1.9212  0.2593
 5219TIP3   OH237071   4.360   4.778   2.207 -0.4567  0.0499 -0.0034
 5219TIP3    H137072   4.291   4.745   2.266 -0.0168 -0.3223  0.3119
 5219TIP3    H237073   4.425   4.817   2.266 -0.2169  0.0604 -0.2748
 5220TIP3   OH237074   2.004   0.118   1.628  0.2081 -0.1627 -0.4678
 5220TIP3    H137075   2.040   0.082   1.709  2.0897 -0.8039 -1.5419
 5220TIP3    H237076   1.950   0.047   1.592  0.3324 -0.3002 -0.3809
 5221TIP3   OH237077   5.406   0.591  15.053  0.1195 -0.0869 -0.3781
 5221TIP3    H137078   5.390   0.669  15.001  0.3859  0.4966  0.3975
 5221TIP3    H237079   5.456   0.622  15.129 -0.1557 -0.9347  0.1702
 5222TIP3   OH237080   0.546   1.193  15.977 -0.3005  0.0216  0.1390
 5222TIP3    H137081   0.588   1.126  15.924 -0.2676  0.2031 -0.0643
 5222TIP3    H237082   0.456   1.197  15.944 -0.8188 -1.1561  1.3106
 5223TIP3   OH237083   1.271   5.244   0.870 -0.5358  0.3923 -0.2200
 5223TIP3    H137084   1.323   5.266   0.948  1.7520 -0.0695 -1.5303
 5223TIP3    H237085   1.325   5.273   0.797 -2.2812  0.0955 -1.6893
 5224TIP3   OH237086   5.137   2.152  13.946 -0.4306  0.2193 -0.3444
 5224TIP3    H137087   5.223   2.194  13.940 -0.2279 -0.2327 -0.6595
 5224TIP3    H237088   5.087   2.207  14.005 -0.0785  0.7589 -0.5460
 5225TIP3   OH237089   0.632   1.349   0.969 -0.6030  0.2402 -0.1775
 5225TIP3    H137090   0.566   1.282   0.985 -0.8845  0.7318  0.8006
 5225TIP3    H237091   0.582   1.426   0.943 -0.3487  0.3856 -0.2358
 5226TIP3   OH237092   4.218   4.750  12.952  0.0616  0.1593 -0.4560
 5226TIP3    H137093   4.298   4.735  12.900  0.2348 -0.2642 -0.0742
 5226TIP3    H237094   4.201   4.843  12.942  1.4187  0.5525  0.6047
 5227TIP3   OH237095   5.475   5.270  16.272 -0.5405 -0.6287 -0.2042
 5227TIP3    H137096   5.516   5.286  16.187 -0.3655  0.0578  0.0032
 5227TIP3    H237097   5.394   5.222  16.251 -0.4085 -0.6223 -0.7395
 5228TIP3   OH237098   1.058   3.780  12.392 -0.2451 -0.2750 -0.0969
 5228TIP3    H137099   1.123   3.844  12.419  0.0311  0.7074 -2.7346
 5228TIP3    H237100   1.101   3.695  12.406  1.2880  0.3195 -0.9318
 5229TIP3   OH237101   0.327   1.896   4.115  0.0146 -0.1583 -0.1525
 5229TIP3    H137102   0.284   1.849   4.187  1.8358  1.3277  2.0534
 5229TIP3    H237103   0.255   1.932   4.064 -1.4215  0.2650  2.0077
 5230TIP3   OH237104   3.419   0.850   0.806 -0.0665  0.3752  0.6613
 5230TIP3    H137105   3.384   0.839   0.718  0.9389  0.2868  0.2541
 5230TIP3    H237106   3.394   0.771   0.853 -0.9055  0.5782  0.5631
 5231TIP3   OH237107   6.031   6.325  13.000  0.3551  0.3889  0.2509
 5231TIP3    H137108   5.941   6.318  13.034  0.0289  0.0387 -0.6539
 5231TIP3    H237109   6.073   6.243  13.026  0.3701  0.4859  0.5391
 5232TIP3   OH237110   0.074   4.150   6.132 -0.7400 -0.1531  0.1831
 5232TIP3    H137111   0.003   4.212   6.118 -2.7130 -2.1982  0.6999
 5232TIP3    H237112   0.032   4.064   6.136  1.8663 -1.5781 -0.4600
 5233TIP3   OH237113   2.811   3.507  16.314 -0.4140  0.4086  0.2404
 5233TIP3    H137114   2.848   3.441  16.372 -0.0805  0.6302  0.2879
 5233TIP3    H237115   2.795   3.462  16.232 -0.9298  0.0813  0.5188
 5234TIP3   OH237116   4.419   5.099  16.440 -0.4828 -0.4932  0.1360
 5234TIP3    H137117   4.344   5.137  16.485 -1.0253 -0.7395 -0.5266
 5234TIP3    H237118   4.494   5.151  16.468 -1.4090  2.2321 -2.0595
 5235TIP3   OH237119   0.965   0.458  12.093 -0.3429  0.5798  0.6361
 5235TIP3    H137120   0.953   0.510  12.173 -1.3557 -2.1256  2.4265
 5235TIP3    H237121   1.050   0.415  12.105 -1.1964 -1.0624  1.1059
 5236TIP3   OH237122   5.070   6.156   1.477 -0.5874 -0.0857  0.6780
 5236TIP3    H137123   5.108   6.096   1.541  3.1754  0.2040 -1.0314
 5236TIP3    H237124   5.024   6.222   1.530  2.5860  0.3122  3.2230
 5237TIP3   OH237125   5.626   6.185  10.857  0.1195 -0.4992 -0.7831
 5237TIP3    H137126   5.552   6.242  10.839  1.4803  1.0577 -1.7956
 5237TIP3    H237127   5.659   6.213  10.942  2.0535  1.8345 -2.1635
 5238TIP3   OH237128   3.301   4.613  14.980 -0.0475 -0.0836  0.2079
 5238TIP3    H137129   3.323   4.573  15.064  1.6404 -0.6089 -0.4394
 5238TIP3    H237130   3.274   4.540  14.925  1.9363 -0.2517 -0.6322
 5239TIP3   OH237131   2.448   6.114  11.667  0.1606 -0.5063  0.1008
 5239TIP3    H137132   2.407   6.131  11.582  2.3671 -0.2040 -0.9560
 5239TIP3    H237133   2.475   6.201  11.698 -0.1978 -0.6727  0.9010
 5240TIP3   OH237134   2.709   1.190   0.305 -0.1151 -0.1106 -0.4025
 5240TIP3    H137135   2.789   1.242   0.317 -0.3729  0.5204 -1.2586
 5240TIP3    H237136   2.685   1.162   0.393  0.9474 -0.1623 -0.1105
 5241TIP3   OH237137   6.450   5.586  13.809 -0.0230 -0.4405  0.6462
 5241TIP3    H137138   6.480   5.556  13.723 -0.4705 -4.0853  1.6077
 5241TIP3    H237139   6.530   5.598  13.860  0.1770  0.4344  0.1510
 5242TIP3   OH237140   0.057   1.096   6.254 -0.0951 -0.1957  0.3634
 5242TIP3    H137141   0.010   1.159   6.200 -0.7062 -2.0788 -1.4400
 5242TIP3    H237142   0.125   1.148   6.298  0.3255  1.4929 -2.0937
 5243TIP3   OH237143   0.385   1.198   4.906  0.1011 -0.1547  0.6201
 5243TIP3    H137144   0.304   1.225   4.862  0.4512  0.4295  0.3304
 5243TIP3    H237145   0.400   1.109   4.874 -0.1735 -0.0934  0.3097
 5244TIP3   OH237146   2.837   3.229   1.155 -0.1279 -0.2882  0.2893
 5244TIP3    H137147   2.924   3.221   1.194  0.7391 -0.4048 -1.5635
 5244TIP3    H237148   2.803   3.312   1.190  0.7985 -0.1417  0.8803
 5245TIP3   OH237149   3.902   6.574  11.496 -0.1932  0.5297  0.4629
 5245TIP3    H137150   3.898   6.493  11.547 -1.5773 -0.6748 -1.3978
 5245TIP3    H237151   3.825   6.624  11.523 -0.0282  0.6409  0.7228
 5246TIP3   OH237152   1.205   0.618  13.165  0.1834 -0.7606 -0.1515
 5246TIP3    H137153   1.285   0.660  13.196  1.6748 -0.6535 -3.7162
 5246TIP3    H237154   1.141   0.688  13.162  1.3229  0.2959 -1.5491
 5247TIP3   OH237155   3.173   4.991   5.394  0.0660  0.2025  0.1599
 5247TIP3    H137156   3.184   5.062   5.458  0.9552  0.0271  0.2218
 5247TIP3    H237157   3.104   4.935   5.431  0.4890  0.1687  0.9186
 5248TIP3   OH237158   4.814   4.804   5.713  0.1394  0.2110 -0.1258
 5248TIP3    H137159   4.826   4.718   5.752  2.1825  0.0202 -1.0492
 5248TIP3    H237160   4.734   4.796   5.660  0.8118 -1.4214 -0.9560
 5249TIP3   OH237161   2.189   2.663  11.072 -0.0509  0.1218  0.4602
 5249TIP3    H137162   2.145   2.687  10.990  0.6420  1.2466  0.4021
 5249TIP3    H237163   2.269   2.618  11.044 -0.9141 -1.5183  0.5607
 5250TIP3   OH237164   3.234   0.757  15.300 -0.2347  0.4404  0.0277
 5250TIP3    H137165   3.269   0.694  15.237  0.4038  0.6183  0.1884
 5250TIP3    H237166   3.283   0.838  15.282  1.0944  0.0839  1.7495
 5251TIP3   OH237167   4.183   1.664  12.996 -0.7107  0.0288  0.1335
 5251TIP3    H137168   4.174   1.572  13.018  0.3802  0.0292  0.6427
 5251TIP3    H237169   4.275   1.684  13.013 -1.0222  1.3051  0.4243
 5252TIP3   OH237170   2.210   1.397   6.069 -0.7704  0.4972  0.1079
 5252TIP3    H137171   2.143   1.451   6.112 -1.2051 -0.8306  1.1722
 5252TIP3    H237172   2.166   1.313   6.052  0.0730  0.2449 -0.9212
 5253TIP3   OH237173   3.236   3.616   5.597  0.0222  0.3956  0.0271
 5253TIP3    H137174   3.322   3.586   5.626  0.5095  1.5610 -0.1565
 5253TIP3    H237175   3.237   3.711   5.613 -1.3769  0.3687  0.3854
 5254TIP3   OH237176   5.698   4.350  11.323  0.0192  0.1046 -0.5588
 5254TIP3    H137177   5.774   4.297  11.348  0.2861 -0.6223 -2.7088
 5254TIP3    H237178   5.656   4.373  11.406  2.1535 -0.1063  0.6363
 5255TIP3   OH237179   2.491   1.970   4.170  0.0145 -0.1683  0.7110
 5255TIP3    H137180   2.426   1.924   4.117  2.0660 -1.5002 -0.8123
 5255TIP3    H237181   2.457   1.967   4.259 -2.5257  0.2438 -0.1697
 5256TIP3   OH237182   6.048   2.264  16.377 -0.2996 -0.1667  0.4636
 5256TIP3    H137183   6.079   2.247  16.288 -0.2711 -0.8470  0.6044
 5256TIP3    H237184   5.953   2.262  16.371 -0.3212  0.7573  0.2655
 5257TIP3   OH237185   4.884   5.432  11.943 -0.3131  0.0691  0.6596
 5257TIP3    H137186   4.877   5.383  12.025 -0.8616  0.3851  0.8072
 5257TIP3    H237187   4.802   5.414  11.897  0.4959 -1.1198 -0.4066
 5258TIP3   OH237188   1.977   0.405  11.367  0.0916 -0.3642  0.0104
 5258TIP3    H137189   2.046   0.463  11.399 -0.9191  0.3958  0.9082
 5258TIP3    H237190   1.971   0.335  11.433 -0.0473 -0.3843 -0.0229
 5259TIP3   OH237191   4.582   6.437   0.796  0.0587 -0.5499  0.6685
 5259TIP3    H137192   4.500   6.485   0.781  0.0936 -0.2982  1.2583
 5259TIP3    H237193   4.560   6.346   0.776 -0.2071 -0.3988  0.2552
 5260TIP3   OH237194   5.832   3.415   9.830 -0.7227  0.4165 -0.5705
 5260TIP3    H137195   5.828   3.381   9.741  1.5581 -0.3173 -0.4594
 5260TIP3    H237196   5.817   3.338   9.886 -0.3720  0.5257 -0.3229
 5261TIP3   OH237197   0.231   5.073   3.863 -0.3565  0.2776  0.1259
 5261TIP3    H137198   0.268   4.987   3.886  2.0065  0.9917 -0.6543
 5261TIP3    H237199   0.162   5.053   3.801 -0.3742 -1.1023  0.5404
 5262TIP3   OH237200   2.310   3.935  12.104 -0.0099  0.3425 -0.2925
 5262TIP3    H137201   2.267   3.953  12.020  0.7436  0.9892 -0.5491
 5262TIP3    H237202   2.252   3.871  12.146  0.0311 -0.6694 -1.6735
 5263TIP3   OH237203   6.682   0.058  11.094 -0.0311  0.6891 -0.2905
 5263TIP3    H137204   6.773   0.075  11.120 -0.4467  0.8939  1.1484
 5263TIP3    H237205   6.680   0.072  10.999  1.5635  0.0892 -0.4288
 5264TIP3   OH237206   0.406   0.526   6.051 -0.4419 -0.0010 -0.4359
 5264TIP3    H137207   0.456   0.467   5.995  0.5823  2.0307 -1.7896
 5264TIP3    H237208   0.330   0.474   6.078  0.4914 -1.9780 -1.3498
 5265TIP3   OH237209   5.769   2.891  13.054 -0.2982  0.2645 -0.2285
 5265TIP3    H137210   5.717   2.937  12.988  1.3149  2.4313 -0.0503
 5265TIP3    H237211   5.795   2.958  13.116  0.5863 -1.2424  1.1087
 5266TIP3   OH237212   6.868   5.005  16.319 -0.0067 -0.4365  0.1807
 5266TIP3    H137213   6.955   4.975  16.294  0.2078 -0.2637  0.7056
 5266TIP3    H237214   6.843   4.948  16.392 -0.4349 -0.6426 -0.1244
 5267TIP3   OH237215   3.461   2.682   3.798  0.6122 -0.4946 -0.2963
 5267TIP3    H137216   3.477   2.655   3.888 -0.2088  0.8348  0.2695
 5267TIP3    H237217   3.397   2.752   3.804  1.4546  0.4781 -1.8123
 5268TIP3   OH237218   5.316   3.126  13.411 -0.5493  0.0320 -0.0826
 5268TIP3    H137219   5.355   3.060  13.354  0.1742  0.4284 -0.0522
 5268TIP3    H237220   5.316   3.206  13.359  0.0243  0.3734  0.4334
 5269TIP3   OH237221   6.307   5.145   0.231 -0.4761 -0.6065 -0.5278
 5269TIP3    H137222   6.318   5.066   0.177  0.7880 -0.6376 -0.2640
 5269TIP3    H237223   6.213   5.162   0.229 -0.7398 -1.9416 -0.8489
 5270TIP3   OH237224   3.558   0.040  12.017 -0.3579 -0.3546 -0.5871
 5270TIP3    H137225   3.589   0.004  11.934  2.1565 -1.4584  0.7283
 5270TIP3    H237226   3.497  -0.026  12.051 -0.3107 -0.5548 -0.8900
 5271TIP3   OH237227   1.786   6.558  16.496  0.1277  0.1977 -0.1395
 5271TIP3    H137228   1.834   6.514  16.566 -0.5930 -1.0787 -0.4160
 5271TIP3    H237229   1.781   6.493  16.426  0.0940  1.1591 -1.0411
 5272TIP3   OH237230   2.801   4.649  10.195 -0.0327  0.4981  0.0419
 5272TIP3    H137231   2.710   4.676  10.206 -0.0234  0.9190 -0.8226
 5272TIP3    H237232   2.851   4.713  10.245 -0.1473  0.8856 -0.3361
 5273TIP3   OH237233   6.201   2.373   2.833 -0.1499 -0.2315 -0.0446
 5273TIP3    H137234   6.116   2.354   2.873 -0.7640 -0.6811 -1.4976
 5273TIP3    H237235   6.248   2.424   2.900 -0.9729 -1.2530  1.3712
 5274TIP3   OH237236   0.360   0.810   2.088  0.1902 -0.0930 -0.0905
 5274TIP3    H137237   0.363   0.882   2.025  0.3601  0.1761  0.2184
 5274TIP3    H237238   0.405   0.844   2.165 -0.3760 -0.2619  0.3278
 5275TIP3   OH237239   3.400   3.240  16.107  0.0550 -0.1099 -0.5721
 5275TIP3    H137240   3.426   3.149  16.123  0.3232  0.1961  0.8685
 5275TIP3    H237241   3.361   3.238  16.020  0.1310 -1.5950 -0.6089
 5276TIP3   OH237242   3.975   0.397   5.273  0.0148 -0.1083  1.0018
 5276TIP3    H137243   4.034   0.429   5.341 -0.3314 -0.8722  1.6768
 5276TIP3    H237244   3.896   0.450   5.282 -0.4261 -0.8958  1.8903
 5277TIP3   OH237245   2.462   1.033   3.064 -0.1807  0.1784  0.2893
 5277TIP3    H137246   2.438   1.025   2.972  0.0884 -2.0076  0.3565
 5277TIP3    H237247   2.401   0.975   3.110  0.3579  0.4342  1.3453
 5278TIP3   OH237248   2.951   1.529  12.443 -0.2597 -0.1550  0.5450
 5278TIP3    H137249   2.917   1.458  12.387  1.1706  0.6610 -1.4917
 5278TIP3    H237250   2.995   1.484  12.515 -1.5931 -1.2730  0.6963
 5279TIP3   OH237251   5.482   4.155  15.217  0.1353 -0.1054 -0.2238
 5279TIP3    H137252   5.569   4.195  15.223 -0.4785  1.4667 -1.3204
 5279TIP3    H237253   5.463   4.151  15.124 -0.8328 -0.7738 -0.0160
 5280TIP3   OH237254   2.135   0.856   5.802  0.1413 -0.7348  0.0078
 5280TIP3    H137255   2.143   0.867   5.707 -0.3263 -1.5506 -0.1313
 5280TIP3    H237256   2.174   0.936   5.839 -2.6925  1.2511 -0.9267
 5281TIP3   OH237257   3.471   2.944   1.059  0.2612 -0.1553  0.2809
 5281TIP3    H137258   3.398   2.968   1.117  1.0046  0.9787  0.7902
 5281TIP3    H237259   3.501   2.859   1.093  0.8538  0.6064  1.7899
 5282TIP3   OH237260   2.165   0.832  13.554  0.1792 -0.4468  0.3002
 5282TIP3    H137261   2.168   0.846  13.459  1.3697 -1.0505  0.2360
 5282TIP3    H237262   2.138   0.916  13.590  2.9521  0.8348 -0.3572
 5283TIP3   OH237263   3.036   4.916   3.024 -0.2209 -0.1707  0.2179
 5283TIP3    H137264   3.058   4.936   2.933  0.6823 -0.5025  0.3534
 5283TIP3    H237265   2.958   4.861   3.018  0.5465 -1.2213 -0.4307
 5284TIP3   OH237266   4.744   2.993  14.563 -0.3798 -0.6276  0.7235
 5284TIP3    H137267   4.769   3.081  14.533  0.1084 -0.7523  0.7550
 5284TIP3    H237268   4.731   3.003  14.657  2.4232 -1.1459  1.2647
 5285TIP3   OH237269   1.077   5.106  14.685  0.4484 -0.4533 -0.7020
 5285TIP3    H137270   1.085   5.109  14.780 -2.3182 -2.6679 -0.2524
 5285TIP3    H237271   1.054   5.195  14.659 -1.3145 -0.3261  1.0800
 5286TIP3   OH237272   6.390   5.170   4.432 -0.1484  0.3543 -0.0879
 5286TIP3    H137273   6.438   5.133   4.358 -1.2298 -2.4337  0.5114
 5286TIP3    H237274   6.456   5.184   4.499  0.9210  3.2900 -1.5680
 5287TIP3   OH237275   5.766   3.710   5.464 -0.2147  0.5703 -0.3323
 5287TIP3    H137276   5.859   3.697   5.478 -0.0092  1.6198 -0.6383
 5287TIP3    H237277   5.724   3.651   5.526  0.6619  1.3268  1.0168
 5288TIP3   OH237278   4.952   3.719  11.242 -0.3680  0.7647  0.0201
 5288TIP3    H137279   4.996   3.643  11.204 -0.8589  0.1611  0.6483
 5288TIP3    H237280   4.910   3.762  11.167 -0.8236 -0.0796 -0.2268
 5289TIP3   OH237281   5.082   5.645   3.306 -0.1419 -0.4174  0.4761
 5289TIP3    H137282   5.149   5.604   3.361 -0.5840  0.5534  1.8152
 5289TIP3    H237283   5.008   5.658   3.366 -1.4132 -1.1515 -0.8764
 5290TIP3   OH237284   3.102   5.948   2.150  0.0044 -0.3695 -0.2634
 5290TIP3    H137285   3.045   5.966   2.224  0.4879 -0.5315  0.1516
 5290TIP3    H237286   3.191   5.962   2.183  0.2163 -0.2807 -0.8544
 5291TIP3   OH237287   4.910   5.087  15.827  0.4558 -0.1065  0.0329
 5291TIP3    H137288   4.942   4.997  15.839 -0.0272 -0.4520 -1.1630
 5291TIP3    H237289   4.819   5.084  15.857  0.0638 -0.3274 -1.1411
 5292TIP3   OH237290   1.775   3.690  12.726  0.0226  0.3977  0.4681
 5292TIP3    H137291   1.827   3.643  12.791  2.0968  2.9133  0.8014
 5292TIP3    H237292   1.725   3.754  12.777 -1.6416 -0.4374 -0.0767
 5293TIP3   OH237293   3.422   1.067  13.420 -0.2190  0.2985 -0.3916
 5293TIP3    H137294   3.447   1.006  13.490  1.2760  0.0632 -1.0726
 5293TIP3    H237295   3.368   1.133  13.463  1.2975  0.5946  1.1691
 5294TIP3   OH237296   2.139   4.280   1.216 -0.6315 -0.3642 -0.0761
 5294TIP3    H137297   2.135   4.196   1.170  0.5941 -0.4428 -0.0715
 5294TIP3    H237298   2.051   4.316   1.208 -1.0420 -1.4190 -0.5126
 5295TIP3   OH237299   6.142   6.652   0.344 -0.5104  0.3168  0.1357
 5295TIP3    H137300   6.073   6.588   0.359  0.2545 -0.7196 -0.5985
 5295TIP3    H237301   6.224   6.605   0.359  0.0955  0.9262 -0.9954
 5296TIP3   OH237302   6.048   3.312   0.716  0.3502 -0.0264  0.1037
 5296TIP3    H137303   6.051   3.390   0.772 -0.0075 -0.0582  0.1733
 5296TIP3    H237304   5.958   3.310   0.684  0.0816 -0.9615  0.8919
 5297TIP3   OH237305   0.241   5.841  15.908  0.1436  0.5368 -0.4611
 5297TIP3    H137306   0.287   5.901  15.966 -0.6551  2.1783 -1.4826
 5297TIP3    H237307   0.285   5.850  15.824  0.0865 -0.4250 -0.6107
 5298TIP3   OH237308   4.682   4.877   3.217  0.4262  0.3033 -0.3080
 5298TIP3    H137309   4.685   4.854   3.124  0.0334 -1.7725  0.1326
 5298TIP3    H237310   4.756   4.831   3.256 -0.2833 -0.0901  0.6235
 5299TIP3   OH237311   2.927   3.265   4.390  0.2290 -0.4073  0.1011
 5299TIP3    H137312   2.911   3.237   4.481 -1.4987 -0.9879 -0.3404
 5299TIP3    H237313   2.999   3.327   4.397 -1.6191  1.7319  2.2719
 5300TIP3   OH237314   0.137   0.705   0.847  0.5654  0.0968 -0.5390
 5300TIP3    H137315   0.194   0.630   0.864  0.4356  0.1288  0.0548
 5300TIP3    H237316   0.133   0.751   0.931 -0.8891 -0.2876 -0.3613
 5301TIP3   OH237317   0.787   0.819  16.493  0.1397 -0.5868 -0.5096
 5301TIP3    H137318   0.761   0.727  16.497 -2.3039  0.0119 -1.1911
 5301TIP3    H237319   0.766   0.854  16.580 -0.6999 -0.2726 -0.8280
 5302TIP3   OH237320   4.198   4.511  13.087 -0.3904  0.1251 -0.0395
 5302TIP3    H137321   4.200   4.601  13.054 -2.2983  0.5593  0.8938
 5302TIP3    H237322   4.254   4.512  13.164 -1.3644  0.8780  0.6929
 5303TIP3   OH237323   0.943   4.102   4.365 -0.2658 -0.3714 -0.3789
 5303TIP3    H137324   1.029   4.090   4.325  0.4958 -2.8321  1.7352
 5303TIP3    H237325   0.941   4.195   4.389  1.2904 -0.0033 -1.4982
 5304TIP3   OH237326   6.487   6.801  10.951 -0.0011 -0.2032 -0.7536
 5304TIP3    H137327   6.495   6.859  11.026 -0.8573 -1.1370  0.0937
 5304TIP3    H237328   6.404   6.826  10.910 -0.8010 -1.3509  0.1108
 5305TIP3   OH237329   0.003   5.396  13.610 -0.3306  0.2333 -0.7432
 5305TIP3    H137330   0.067   5.393  13.681 -0.3004  1.5256 -0.6880
 5305TIP3    H237331  -0.070   5.341  13.641  0.5633 -0.9365 -0.6511
 5306TIP3   OH237332   2.414   6.217   0.991  0.1827 -0.1275 -0.4691
 5306TIP3    H137333   2.355   6.292   0.990  0.3386  0.0320  0.8773
 5306TIP3    H237334   2.440   6.208   1.082 -0.1918 -2.1108 -0.5168
 5307TIP3   OH237335   5.936   4.375   3.417  0.0547  0.4588 -0.0678
 5307TIP3    H137336   5.841   4.366   3.423  0.1622 -1.9556 -1.0445
 5307TIP3    H237337   5.949   4.448   3.355 -1.1368  1.0939  0.3994
 5308TIP3   OH237338   1.127   3.950  14.327 -0.3854 -0.0233  0.6218
 5308TIP3    H137339   1.119   4.029  14.273  0.0414  0.2096  0.8938
 5308TIP3    H237340   1.134   3.878  14.263 -0.6008  0.1728  0.3735
 5309TIP3   OH237341   0.128   0.829   2.488  0.0019 -0.1984  0.0357
 5309TIP3    H137342   0.088   0.793   2.567 -0.8290  0.1367 -0.2258
 5309TIP3    H237343   0.180   0.903   2.519 -1.4979  0.8610  0.1288
 5310TIP3   OH237344   1.470   2.341  10.720 -0.1917  0.1416 -0.0229
 5310TIP3    H137345   1.497   2.432  10.710  0.4676  0.1677  1.6205
 5310TIP3    H237346   1.379   2.339  10.690 -0.5031  1.5554  0.7430
 5311TIP3   OH237347   4.385   3.545  13.384  0.3155  0.0564  0.6011
 5311TIP3    H137348   4.340   3.473  13.428 -1.4814  1.0837  0.5128
 5311TIP3    H237349   4.466   3.556  13.434  0.4353 -1.7257  0.8716
 5312TIP3   OH237350   5.626   0.471  14.913 -0.1141 -0.3696 -0.7510
 5312TIP3    H137351   5.558   0.481  14.980  0.3728 -0.5851 -0.2163
 5312TIP3    H237352   5.581   0.429  14.840 -0.3444 -1.4191 -0.0330
 5313TIP3   OH237353   3.108   6.229   0.304 -0.5771  0.1175 -0.1941
 5313TIP3    H137354   3.060   6.147   0.288 -1.3077  0.4396  0.3307
 5313TIP3    H237355   3.102   6.276   0.221  0.0238 -0.4412 -0.5671
 5314TIP3   OH237356   5.089   0.772   2.763 -0.1344  0.0170  0.4970
 5314TIP3    H137357   5.180   0.748   2.780  0.0107  0.0699 -0.1818
 5314TIP3    H237358   5.091   0.867   2.756 -0.1098 -0.0256 -0.2115
 5315TIP3   OH237359   0.276   4.488  12.248 -0.2815  0.2605 -0.1264
 5315TIP3    H137360   0.347   4.449  12.197 -0.8903 -1.3600  0.1934
 5315TIP3    H237361   0.293   4.460  12.338 -0.4135  1.2799  0.2301
 5316TIP3   OH237362   0.952   1.820  13.113  0.1864  0.5524  0.0588
 5316TIP3    H137363   0.964   1.875  13.191 -0.6485 -0.2538  0.7644
 5316TIP3    H237364   0.999   1.739  13.133  1.2137  0.8705 -0.8908
 5317TIP3   OH237365   1.569   4.721   3.881  0.4339  0.2718 -0.2689
 5317TIP3    H137366   1.535   4.662   3.814  1.3371  0.5247 -0.9752
 5317TIP3    H237367   1.542   4.808   3.852  0.7116  0.3699 -0.2383
 5318TIP3   OH237368   1.104   3.799  11.553  0.9363  0.1038  0.0594
 5318TIP3    H137369   1.041   3.846  11.608  0.6115 -1.0231  0.6821
 5318TIP3    H237370   1.100   3.708  11.584 -0.3242 -0.9143 -2.7540
 5319TIP3   OH237371   6.515   0.388  12.605  0.9147  0.0826 -0.3993
 5319TIP3    H137372   6.603   0.397  12.568  0.4761  0.6938 -1.3445
 5319TIP3    H237373   6.456   0.407  12.531 -0.0208 -0.9358  0.0540
 5320TIP3   OH237374   5.579   6.318  16.495  0.0657 -0.4732 -0.4097
 5320TIP3    H137375   5.655   6.320  16.436  1.2038 -1.2554  0.9581
 5320TIP3    H237376   5.546   6.229  16.489  0.2279 -0.5776  0.1547
 5321TIP3   OH237377   5.670   1.782  15.344  0.4454 -0.0085  0.8102
 5321TIP3    H137378   5.752   1.801  15.390  0.5073  0.4467  0.5158
 5321TIP3    H237379   5.667   1.845  15.272  0.2803 -0.6200  0.2696
 5322TIP3   OH237380   3.575   5.635  14.097  0.0700 -0.3364  0.5323
 5322TIP3    H137381   3.492   5.614  14.053  0.4952  0.0274 -0.4729
 5322TIP3    H237382   3.630   5.672  14.028  0.1093  2.0346  1.7144
 5323TIP3   OH237383   0.814   3.037  12.250  0.3154 -0.2807  0.1113
 5323TIP3    H137384   0.797   2.975  12.321  0.6606  0.6850  1.0784
 5323TIP3    H237385   0.877   3.099  12.288  0.5771  0.2059 -1.0811
 5324TIP3   OH237386   3.578   5.745   4.136 -0.0035  0.0966  0.3121
 5324TIP3    H137387   3.541   5.728   4.222 -1.3577  1.5497  0.0561
 5324TIP3    H237388   3.568   5.662   4.089 -1.0325 -0.1379  0.9275
 5325TIP3   OH237389   6.088   0.595   1.239 -0.3459 -0.2467  0.5034
 5325TIP3    H137390   6.011   0.564   1.288 -1.9130  1.0085 -1.0176
 5325TIP3    H237391   6.062   0.587   1.147  1.3545  0.2559 -0.0424
 5326TIP3   OH237392   4.395   0.067  10.971 -0.0440  0.2529 -0.4662
 5326TIP3    H137393   4.405  -0.010  11.026  1.4300 -0.5002 -1.7138
 5326TIP3    H237394   4.302   0.090  10.979 -0.2678 -0.9748  0.7901
 5327TIP3   OH237395   1.895   1.845  12.522 -0.0950  0.4390  0.1663
 5327TIP3    H137396   1.987   1.872  12.511  0.5158 -1.4574  0.2656
 5327TIP3    H237397   1.893   1.754  12.493 -1.6109 -0.0591  1.6733
 5328TIP3   OH237398   0.304   1.396   1.307  0.3674  0.4103  0.1929
 5328TIP3    H137399   0.249   1.400   1.385 -1.3700 -0.8825 -0.8963
 5328TIP3    H237400   0.242   1.403   1.234  2.1229  4.6743 -1.2017
 5329TIP3   OH237401   3.320   3.525   3.181 -0.2385  0.2460 -0.1423
 5329TIP3    H137402   3.357   3.437   3.187  0.1040  0.4653  1.5477
 5329TIP3    H237403   3.380   3.573   3.124  0.0305 -0.3871 -0.4024
 5330TIP3   OH237404   0.124   0.185   2.344  0.0840  0.0705  0.2462
 5330TIP3    H137405   0.081   0.130   2.278  0.1225  0.7177 -0.3289
 5330TIP3    H237406   0.159   0.123   2.408 -0.6464 -0.5279  0.0794
 5331TIP3   OH237407   2.389   6.167  13.296 -0.0203 -0.5769  0.1672
 5331TIP3    H137408   2.467   6.152  13.350 -0.4304 -1.0727  0.6313
 5331TIP3    H237409   2.381   6.089  13.242 -0.6520 -0.9017  0.7074
 5332TIP3   OH237410   0.814   5.145   4.089 -0.4239  0.4944 -0.2623
 5332TIP3    H137411   0.817   5.137   4.185 -1.9363 -0.0663 -0.2324
 5332TIP3    H237412   0.860   5.227   4.071  0.9006  0.0424  0.8332
 5333TIP3   OH237413   5.255   6.888  11.568 -0.2382 -0.0826 -0.5291
 5333TIP3    H137414   5.265   6.832  11.645 -0.3143 -0.5731 -0.8687
 5333TIP3    H237415   5.265   6.977  11.601  0.9776 -0.3430 -0.1644
 5334TIP3   OH237416   3.066   6.803  14.422  0.3965 -0.7300 -0.0173
 5334TIP3    H137417   3.020   6.728  14.459  0.1629 -0.7885 -0.4240
 5334TIP3    H237418   3.157   6.792  14.451  0.2794 -0.9449  0.2693
 5335TIP3   OH237419   5.754   0.986   2.967 -0.1986 -0.0622 -0.4159
 5335TIP3    H137420   5.724   0.954   3.052  1.4094 -1.1649 -0.2078
 5335TIP3    H237421   5.826   1.045   2.988 -0.1275  0.0608 -0.9973
 5336TIP3   OH237422   5.531   3.064   5.422  0.0431 -0.3245  0.3058
 5336TIP3    H137423   5.528   3.023   5.336  2.8322 -1.2217  0.5305
 5336TIP3    H237424   5.492   3.000   5.481  0.2348 -0.7106  0.0135
 5337TIP3   OH237425   5.349   6.549  13.018  0.0177 -0.5100  0.4544
 5337TIP3    H137426   5.295   6.487  12.970  0.5469  0.0705 -0.9462
 5337TIP3    H237427   5.311   6.635  12.997 -0.3059 -0.2887  1.8378
 5338TIP3   OH237428   4.545   0.283   1.930  0.1643  0.6312 -0.1768
 5338TIP3    H137429   4.610   0.234   1.879 -1.1439 -0.1832 -1.1243
 5338TIP3    H237430   4.557   0.252   2.020  0.6191 -0.0392 -0.4573
 5339TIP3   OH237431   3.061   1.595   3.221  0.8935 -0.2831  0.3742
 5339TIP3    H137432   3.085   1.642   3.142  0.7001 -0.1928  0.3704
 5339TIP3    H237433   2.996   1.531   3.193  1.4676 -0.8513  0.2972
 5340TIP3   OH237434   6.327   1.015  10.951  0.2301  0.0271 -0.1196
 5340TIP3    H137435   6.259   0.954  10.922  0.9091 -0.5240 -0.5849
 5340TIP3    H237436   6.389   1.018  10.878  1.7130 -0.9978  1.0418
 5341TIP3   OH237437   3.608   1.082   5.213  0.1319 -0.3039  0.1793
 5341TIP3    H137438   3.561   1.136   5.277 -0.2693 -1.7393  1.1675
 5341TIP3    H237439   3.540   1.027   5.175  0.1746  1.2733 -2.3610
 5342TIP3   OH237440   3.961   3.436   3.093  0.0182 -0.2062  0.0259
 5342TIP3    H137441   3.971   3.375   3.021  2.5249 -0.4452  0.4704
 5342TIP3    H237442   4.037   3.494   3.086 -0.7264  1.0031  1.3381
 5343TIP3   OH237443   5.392   0.766   3.523 -0.4733  0.0854 -0.5031
 5343TIP3    H137444   5.445   0.725   3.591 -1.9839  0.4575  0.9754
 5343TIP3    H237445   5.450   0.830   3.482  0.4103  0.0105  0.5928
 5344TIP3   OH237446   2.564   0.506  10.491 -0.0216  0.4643 -0.4678
 5344TIP3    H137447   2.530   0.470  10.572 -2.9149 -1.1827 -2.2505
 5344TIP3    H237448   2.631   0.443  10.462  0.7364  0.8587  0.3804
 5345TIP3   OH237449   5.830   1.660   3.211 -0.7707  0.2070  0.3670
 5345TIP3    H137450   5.846   1.603   3.287  1.0719 -0.4253 -0.4309
 5345TIP3    H237451   5.911   1.709   3.200 -1.0114  0.3230 -1.1517
 5346TIP3   OH237452   0.227   0.391   2.678 -0.2329  0.4136 -0.2147
 5346TIP3    H137453   0.231   0.296   2.672  1.0574  0.4972 -1.1788
 5346TIP3    H237454   0.319   0.419   2.679 -0.4419  1.4917  3.3822
 5347TIP3   OH237455   6.261   0.386   2.425  0.3812  0.4413 -0.5640
 5347TIP3    H137456   6.227   0.302   2.395 -0.3520  0.8735 -0.9715
 5347TIP3    H237457   6.191   0.422   2.479 -0.4020  1.9147 -2.4373
 5348TIP3   OH237458   4.793   2.550   4.841 -0.1338 -0.3339 -0.2302
 5348TIP3    H137459   4.861   2.611   4.815 -0.3033  0.6926  1.5563
 5348TIP3    H237460   4.775   2.571   4.933 -0.7982 -2.5208  0.2147
 5349TIP3   OH237461   3.883   2.102   4.519  0.3113 -0.1630  0.1891
 5349TIP3    H137462   3.967   2.137   4.549  0.5302 -0.7436  0.2696
 5349TIP3    H237463   3.904   2.014   4.488 -0.2730 -0.3177  0.2240
 5350TIP3   OH237464   5.800   5.303   0.723  0.4814  0.8646 -0.3543
 5350TIP3    H137465   5.854   5.380   0.704  0.4135  0.6476 -1.4747
 5350TIP3    H237466   5.819   5.242   0.653 -1.5002  0.9337 -1.0172
 5351TIP3   OH237467   0.747   5.138  10.550 -0.1721  0.0673 -0.0806
 5351TIP3    H137468   0.717   5.205  10.489  0.1523 -0.8832 -1.3125
 5351TIP3    H237469   0.765   5.061  10.496 -2.1490 -1.6126  1.4771
 5352TIP3   OH237470   1.723   4.600   4.186 -0.1118  0.5735 -0.3441
 5352TIP3    H137471   1.748   4.683   4.225  2.0473  0.2595 -0.9194
 5352TIP3    H237472   1.718   4.539   4.259  1.2116  0.5940 -0.2032
 5353TIP3   OH237473   0.095   3.835  13.424 -0.2137 -0.1653  0.2794
 5353TIP3    H137474   0.141   3.909  13.463 -0.5686 -0.7293  1.8487
 5353TIP3    H237475   0.081   3.860  13.333 -1.5474  2.2853  1.0962
 5354TIP3   OH237476   0.396   3.222  10.694  0.8762  0.5505 -0.0620
 5354TIP3    H137477   0.390   3.316  10.712 -1.3382  0.3719  0.3772
 5354TIP3    H237478   0.332   3.182  10.753 -0.0883 -0.9762 -2.0319
 5355TIP3   OH237479   6.225   0.618  15.285  0.1157  0.2474  0.5655
 5355TIP3    H137480   6.159   0.627  15.216  0.0385  0.8906  0.7144
 5355TIP3    H237481   6.283   0.549  15.253  0.0234  0.4677 -0.1044
 5356TIP3   OH237482   0.678   4.630   5.628  0.4740 -0.1361 -0.2479
 5356TIP3    H137483   0.730   4.710   5.629 -0.9894  0.8635 -0.3905
 5356TIP3    H237484   0.741   4.560   5.639  1.6887  1.1018  1.0334
 5357TIP3   OH237485   1.946   5.991  13.749  0.4206  0.2282  0.7502
 5357TIP3    H137486   1.920   5.898  13.747 -0.7457  0.5427  0.4842
 5357TIP3    H237487   1.978   6.009  13.661 -0.3109  0.3248  0.4952
 5358TIP3   OH237488   1.125   3.235  12.630 -0.3297 -0.1758  0.0159
 5358TIP3    H137489   1.186   3.281  12.687 -3.2936  3.9621  0.2829
 5358TIP3    H237490   1.058   3.200  12.689 -0.2122 -1.4101 -0.5398
 5359TIP3   OH237491   6.357   1.605   0.431 -0.0405  0.2110  0.1252
 5359TIP3    H137492   6.380   1.583   0.340 -0.6780 -1.0009  0.2510
 5359TIP3    H237493   6.302   1.683   0.422 -0.1307  0.0828 -0.5373
 5360TIP3   OH237494   1.017   6.158  11.606 -0.1686 -0.0149 -0.4819
 5360TIP3    H137495   1.087   6.224  11.605 -1.1992  1.1434 -2.6901
 5360TIP3    H237496   0.948   6.196  11.660  0.4550 -0.7556  0.9135
 5361TIP3   OH237497   4.171   5.077   4.395 -0.0654  0.4075  0.4331
 5361TIP3    H137498   4.100   5.054   4.455  0.3181 -1.3033  0.2688
 5361TIP3    H237499   4.172   5.007   4.330  1.2767  0.8139 -0.0211
 5362TIP3   OH237500   0.142   4.511   1.654  0.1637 -0.1206 -0.1402
 5362TIP3    H137501   0.130   4.425   1.614  3.1535 -0.8960  0.3806
 5362TIP3    H237502   0.131   4.496   1.748 -0.8900  0.4488 -0.1529
 5363TIP3   OH237503   4.021   0.412  10.849  0.0121  0.3679 -0.3866
 5363TIP3    H137504   4.067   0.372  10.923 -0.4125 -1.0235 -0.8613
 5363TIP3    H237505   3.934   0.374  10.850 -0.2060  0.8114 -1.2365
 5364TIP3   OH237506   3.985   5.308   4.576 -0.5010  1.1079  0.3264
 5364TIP3    H137507   3.892   5.304   4.553 -0.4295  0.6136  0.1215
 5364TIP3    H237508   4.023   5.368   4.512 -0.0767 -1.1476 -1.6718
 5365TIP3   OH237509   6.217   3.591  14.948 -0.5843 -0.2461 -0.5431
 5365TIP3    H137510   6.281   3.522  14.930 -0.2264 -0.3566  0.9980
 5365TIP3    H237511   6.153   3.583  14.877  0.3244 -1.0777 -1.3115
 5366TIP3   OH237512   0.183   4.454   4.647  0.9176  0.7578 -0.0231
 5366TIP3    H137513   0.270   4.482   4.674  1.2983  1.1135 -1.5673
 5366TIP3    H237514   0.132   4.535   4.640  0.6862  0.6245  0.0660
 5367TIP3   OH237515   0.544   2.337   6.119  0.2562 -0.2130 -0.1034
 5367TIP3    H137516   0.467   2.283   6.099 -0.1002  0.5204 -0.7659
 5367TIP3    H237517   0.533   2.360   6.212  0.2943 -1.0711  0.1235
 5368TIP3   OH237518   6.771   4.886   2.643  0.0661 -0.2720  0.2437
 5368TIP3    H137519   6.860   4.878   2.608 -0.4549 -0.2304 -1.1077
 5368TIP3    H237520   6.765   4.814   2.707 -0.0030 -2.3984 -2.0185
 5369TIP3   OH237521   4.754   3.048  14.078  0.0925 -0.2717  0.3658
 5369TIP3    H137522   4.662   3.075  14.078  0.4802  1.3204  2.0996
 5369TIP3    H237523   4.783   3.063  14.168  2.0394 -0.7908 -0.1306
 5370TIP3   OH237524   5.430   5.405  14.755 -0.0458 -0.1933 -0.5102
 5370TIP3    H137525   5.511   5.385  14.801  0.5576  1.1657 -0.9430
 5370TIP3    H237526   5.365   5.416  14.825 -0.7573 -4.4970 -0.2143
 5371TIP3   OH237527   2.717   1.656  14.227 -0.0776  0.0795  0.7017
 5371TIP3    H137528   2.667   1.704  14.293 -0.5712  1.3203 -0.5209
 5371TIP3    H237529   2.653   1.600  14.184  0.2822 -0.8787  1.3601
 5372TIP3   OH237530   2.099   6.486   5.108  0.1430 -0.1962  0.1037
 5372TIP3    H137531   2.171   6.530   5.062 -0.7729  0.5074 -0.6841
 5372TIP3    H237532   2.041   6.455   5.039  0.0320 -1.3763  0.7128
 5373TIP3   OH237533   6.660   4.517  10.405 -0.2686 -0.0375  0.1154
 5373TIP3    H137534   6.751   4.516  10.377  0.2386  0.4689  1.6219
 5373TIP3    H237535   6.615   4.458  10.344  0.8180  0.6437 -1.3955
 5374TIP3   OH237536   2.440   0.381   2.333  0.2728  0.1713  0.2517
 5374TIP3    H137537   2.471   0.406   2.245 -1.7883 -1.6236 -1.0846
 5374TIP3    H237538   2.458   0.457   2.387  0.6055  1.7864 -1.9828
 5375TIP3   OH237539   5.871   4.300  16.289 -0.2325  0.0736  0.5410
 5375TIP3    H137540   5.814   4.313  16.214  0.5054  0.7008  0.0718
 5375TIP3    H237541   5.865   4.382  16.339  1.3887  0.7743 -0.3210
 5376TIP3   OH237542   3.648   6.688  11.502 -0.4165  0.4270 -0.0907
 5376TIP3    H137543   3.633   6.608  11.452 -1.0805  0.7194 -0.3708
 5376TIP3    H237544   3.578   6.747  11.474  0.3021  1.2510 -0.2009
 5377TIP3   OH237545   3.611   4.746  13.077 -0.4028  0.3679 -0.4502
 5377TIP3    H137546   3.553   4.769  13.150  1.2779  3.4413  0.0738
 5377TIP3    H237547   3.634   4.654  13.093 -2.3382  0.0880  1.2102
 5378TIP3   OH237548   3.916   0.346  12.760  0.1822  0.5889 -0.1644
 5378TIP3    H137549   3.882   0.360  12.848  2.2560  1.3969  0.5686
 5378TIP3    H237550   3.903   0.430  12.715  0.2307  0.5583 -0.2367
 5379TIP3   OH237551   6.404   4.157  14.640 -0.2431 -0.1780 -0.4029
 5379TIP3    H137552   6.388   4.143  14.733 -0.2073  0.4575 -0.2942
 5379TIP3    H237553   6.340   4.101  14.595 -0.6385 -0.0583  0.0070
 5380TIP3   OH237554   2.779   3.351  16.076 -0.2534  0.4186  0.3849
 5380TIP3    H137555   2.803   3.264  16.044 -0.2254  1.2594 -2.1342
 5380TIP3    H237556   2.684   3.349  16.082 -0.3858  0.6446 -1.2192
 5381TIP3   OH237557   3.969   0.592  14.689 -0.0896  0.3345  0.2782
 5381TIP3    H137558   3.880   0.624  14.673 -0.4064 -0.3249  0.6994
 5381TIP3    H237559   3.957   0.515  14.744  0.6670 -0.4317 -0.6135
 5382TIP3   OH237560   4.578   3.431  11.258  1.0720 -0.0032  0.1749
 5382TIP3    H137561   4.519   3.356  11.249  1.2627 -0.0137 -1.1278
 5382TIP3    H237562   4.637   3.425  11.183 -0.1403  2.5394 -1.1033
 5383TIP3   OH237563   0.439   6.060   5.006 -0.3004 -0.2280 -0.1922
 5383TIP3    H137564   0.358   6.096   4.970 -0.5407 -1.1473 -0.6138
 5383TIP3    H237565   0.506   6.125   4.986 -0.6500 -0.1758 -1.2739
 5384TIP3   OH237566   5.777   3.390  10.636 -0.1738 -0.2089 -0.3145
 5384TIP3    H137567   5.753   3.300  10.614 -0.7304  0.1019 -1.0607
 5384TIP3    H237568   5.789   3.432  10.551 -0.0413  0.4498  0.0254
 5385TIP3   OH237569   2.596   1.658   4.293 -0.0139 -0.0173  0.2439
 5385TIP3    H137570   2.554   1.619   4.216 -0.1780 -0.7878  0.7243
 5385TIP3    H237571   2.556   1.615   4.368  1.5352 -0.6920  0.7212
 5386TIP3   OH237572   2.298   1.078   5.817 -0.0742 -0.2549 -0.2741
 5386TIP3    H137573   2.370   1.142   5.817  1.0196 -1.4111 -2.0519
 5386TIP3    H237574   2.231   1.119   5.872  0.4888  2.5259 -1.4639
 5387TIP3   OH237575   2.543   4.273   1.426  0.2025  0.4328 -0.3090
 5387TIP3    H137576   2.487   4.350   1.437  0.0361  0.1912  0.5406
 5387TIP3    H237577   2.628   4.309   1.399  0.0893  0.9010 -0.0474
 5388TIP3   OH237578   6.313   6.852   1.674  0.0354 -0.4267  0.0065
 5388TIP3    H137579   6.293   6.771   1.627 -0.6646 -0.2952  0.0670
 5388TIP3    H237580   6.292   6.833   1.765 -0.1641 -0.1644  0.0161
 5389TIP3   OH237581   1.248   5.643   5.647 -0.3249  0.6233  0.1089
 5389TIP3    H137582   1.318   5.658   5.710 -0.9271  1.6812  0.5631
 5389TIP3    H237583   1.276   5.567   5.597  1.9143  1.8911 -0.7474
 5390TIP3   OH237584   3.559   5.195  14.756 -0.3021 -0.1131 -0.0751
 5390TIP3    H137585   3.622   5.266  14.766  1.1382 -1.3635  0.0546
 5390TIP3    H237586   3.556   5.178  14.662 -1.5340  0.8600 -0.2357
 5391TIP3   OH237587   3.680   5.535   0.020 -0.5559 -0.1973  0.3460
 5391TIP3    H137588   3.645   5.455   0.060 -1.1079 -0.6727 -1.0340
 5391TIP3    H237589   3.748   5.503  -0.040  0.1299  0.4904  0.7309
 5392TIP3   OH237590   6.837   0.002  15.628 -0.5980  0.7494 -0.1979
 5392TIP3    H137591   6.775   0.070  15.601 -1.0132  0.1239 -0.8650
 5392TIP3    H237592   6.893   0.045  15.692 -1.6406  1.3770  0.3295
 5393TIP3   OH237593   1.343   4.530  16.497  0.2152  0.1612 -0.0304
 5393TIP3    H137594   1.377   4.586  16.427 -0.9595 -1.7660 -2.3139
 5393TIP3    H237595   1.418   4.478  16.525  0.0232 -1.9151 -2.8772
 5394TIP3   OH237596   3.939   5.226  16.004 -0.1369  0.5964  0.3198
 5394TIP3    H137597   3.949   5.311  15.961  0.2780  0.2594 -0.2763
 5394TIP3    H237598   3.994   5.166  15.952 -0.5170 -0.0594  0.6528
 5395TIP3   OH237599   1.203   3.306  12.935  0.2435  0.4282 -0.5485
 5395TIP3    H137600   1.276   3.294  12.875  1.6956 -0.3903  1.2667
 5395TIP3    H237601   1.244   3.334  13.017 -1.4943  0.0892  0.4858
 5396TIP3   OH237602   4.826   3.560  10.831  0.0661  0.2169 -0.2592
 5396TIP3    H137603   4.804   3.561  10.738 -1.1582  1.4540  0.0178
 5396TIP3    H237604   4.892   3.491  10.839 -1.1058 -1.1672 -1.7463
 5397TIP3   OH237605   4.646   6.257  16.119 -0.0265  0.2437 -0.1308
 5397TIP3    H137606   4.637   6.232  16.211  0.3843  1.9722  0.4164
 5397TIP3    H237607   4.567   6.308  16.100 -1.1710 -1.8735 -1.4172
 5398TIP3   OH237608   0.566   3.046   0.991 -0.6524 -0.2468  0.6349
 5398TIP3    H137609   0.590   2.954   0.979 -1.6369 -0.4092 -0.1937
 5398TIP3    H237610   0.605   3.090   0.916 -0.4122 -0.0175  0.8905
 5399TIP3   OH237611   5.753   6.394  10.167  0.0588  0.4016  0.2507
 5399TIP3    H137612   5.797   6.324  10.119  1.0983  0.8026  0.5904
 5399TIP3    H237613   5.672   6.354  10.199  0.1975 -0.3712 -0.3429
 5400TIP3   OH237614   3.010   4.583   0.971  0.6277 -0.0202 -0.2028
 5400TIP3    H137615   2.925   4.573   1.014  1.4431  0.0940  1.5049
 5400TIP3    H237616   2.989   4.616   0.884 -1.0813 -0.0842  0.1537
 5401TIP3   OH237617   2.012   5.478   0.637  0.0261 -0.6142  0.0320
 5401TIP3    H137618   1.922   5.493   0.608  0.5072  3.3024  0.0650
 5401TIP3    H237619   2.059   5.457   0.556 -0.3494  0.6131 -0.5187
 5402TIP3   OH237620   3.155   5.506   0.067 -0.4457 -0.4802  0.1635
 5402TIP3    H137621   3.218   5.437   0.089  0.2037  0.5794  1.8933
 5402TIP3    H237622   3.198   5.557  -0.002  0.7854  0.3607  1.4711
 5403TIP3   OH237623   3.647   6.216  14.322  0.2742 -0.1114 -0.0069
 5403TIP3    H137624   3.739   6.228  14.299  0.0221  0.9654 -0.5050
 5403TIP3    H237625   3.601   6.288  14.279 -0.9401 -1.1802 -0.6112
 5404TIP3   OH237626   0.834   0.490  16.389  0.2574 -0.0323 -0.4677
 5404TIP3    H137627   0.774   0.504  16.462  2.6438  0.5949  1.5066
 5404TIP3    H237628   0.883   0.411  16.412  0.4215 -0.3862 -1.8977
 5405TIP3   OH237629   5.747   5.452  10.652  0.4406 -0.2640 -0.1076
 5405TIP3    H137630   5.671   5.509  10.661 -1.2638 -2.4224  0.1405
 5405TIP3    H237631   5.740   5.417  10.563  1.1547 -0.4878 -0.0830
 5406TIP3   OH237632   1.592   1.189   1.243  0.0042  0.6873  0.0285
 5406TIP3    H137633   1.665   1.129   1.259 -0.5535  0.3462  1.4867
 5406TIP3    H237634   1.630   1.276   1.251  0.1651  0.5124  1.3180
 5407TIP3   OH237635   1.088   5.335  14.319 -0.0102 -0.3870  0.4426
 5407TIP3    H137636   1.127   5.415  14.283 -1.1431 -0.3857 -0.8858
 5407TIP3    H237637   1.090   5.347  14.414  2.2523  0.0377  0.3960
 5408TIP3   OH237638   0.673   0.726  11.609  0.2321  0.0450 -0.7424
 5408TIP3    H137639   0.702   0.783  11.680  1.9168 -2.0164  0.3485
 5408TIP3    H237640   0.697   0.773  11.529  0.8069  1.2212  0.0889
 5409TIP3   OH237641   0.767   2.562  14.337  0.4965 -0.2575  0.7699
 5409TIP3    H137642   0.693   2.592  14.285  1.1600  0.4610  0.2230
 5409TIP3    H237643   0.728   2.502  14.401 -0.3200 -1.1839 -0.5546
 5410TIP3   OH237644   5.136   5.092   4.826 -0.6971  0.3309 -0.0051
 5410TIP3    H137645   5.108   5.003   4.849 -1.1097  0.2461 -0.7861
 5410TIP3    H237646   5.188   5.121   4.901 -1.0045 -0.3674  0.4940
 5411TIP3   OH237647   1.686   4.589  13.592  0.1708  0.0464 -0.5163
 5411TIP3    H137648   1.756   4.627  13.643 -0.8952 -0.5146  1.4687
 5411TIP3    H237649   1.617   4.570  13.655 -0.9268 -1.4148 -2.0413
 5412TIP3   OH237650   1.461   1.134  12.087 -0.6750 -0.5752  0.3837
 5412TIP3    H137651   1.430   1.209  12.137  1.9985  0.7514  0.2509
 5412TIP3    H237652   1.425   1.146  11.999 -0.3202  0.5381  0.3832
 5413TIP3   OH237653   1.546   0.682   4.215 -0.3459 -0.2861 -0.1618
 5413TIP3    H137654   1.603   0.638   4.153 -1.2480 -2.5518  0.5050
 5413TIP3    H237655   1.602   0.746   4.259  0.7301  0.0992 -1.9996
 5414TIP3   OH237656   1.818   1.685   5.738  0.4135  0.4733 -0.6658
 5414TIP3    H137657   1.729   1.683   5.772  0.8410  1.8154  0.6599
 5414TIP3    H237658   1.852   1.597   5.754 -0.9695 -0.3972 -2.1690
 5415TIP3   OH237659   4.149   1.571  12.713  0.2361  0.6685  0.0670
 5415TIP3    H137660   4.236   1.558  12.748 -0.1437 -1.2087  0.3905
 5415TIP3    H237661   4.102   1.490  12.732 -0.4421  0.0404 -3.4446
 5416TIP3   OH237662   3.142   2.830  16.317 -0.2519 -0.2104 -0.0362
 5416TIP3    H137663   3.171   2.832  16.226 -0.0054  2.7370  0.0170
 5416TIP3    H237664   3.213   2.786  16.363 -0.0976 -1.1833 -1.1671
 5417TIP3   OH237665   3.949   5.366   1.686  0.0507  0.1890 -0.1262
 5417TIP3    H137666   3.938   5.340   1.595  2.8822  1.4555 -0.9274
 5417TIP3    H237667   3.866   5.341   1.728 -0.8519 -1.5887 -2.7136
 5418TIP3   OH237668   3.676   6.624  14.666 -0.1419  0.5235  0.2253
 5418TIP3    H137669   3.727   6.545  14.685 -2.0124 -1.0341 -0.9247
 5418TIP3    H237670   3.720   6.663  14.591  1.4690  1.2813  1.4917
 5419TIP3   OH237671   6.822   1.591   2.888 -0.1521 -0.5182 -0.2553
 5419TIP3    H137672   6.865   1.596   2.802  2.1589 -0.9621  0.7879
 5419TIP3    H237673   6.805   1.683   2.911 -2.1994 -0.4404 -1.7576
 5420TIP3   OH237674   3.811   4.341  13.359  0.4053 -0.0665  0.2140
 5420TIP3    H137675   3.778   4.253  13.344  2.9058 -1.8260  3.6122
 5420TIP3    H237676   3.895   4.343  13.312  1.2340 -0.2403  1.6452
 5421TIP3   OH237677   3.198   5.868  11.082  0.8181  0.1960 -0.3330
 5421TIP3    H137678   3.180   5.962  11.077  1.0635  0.1907 -1.4543
 5421TIP3    H237679   3.114   5.826  11.062  0.8996  0.1774 -0.6409
 5422TIP3   OH237680   0.373   4.189  16.181  0.3123 -0.8915  0.2918
 5422TIP3    H137681   0.295   4.134  16.185 -0.0429 -0.4047  0.1646
 5422TIP3    H237682   0.351   4.257  16.118  0.4697 -0.1776  0.9853
 5423TIP3   OH237683   1.543   0.369  11.688 -0.0541 -1.1358  0.5733
 5423TIP3    H137684   1.470   0.307  11.679 -0.9936  0.1710 -1.3902
 5423TIP3    H237685   1.522   0.419  11.767 -1.6930 -0.3393 -0.3095
 5424TIP3   OH237686   3.544   0.018  11.008  0.4031 -0.3067  0.1805
 5424TIP3    H137687   3.508  -0.070  11.018  0.4708 -0.5742 -1.6233
 5424TIP3    H237688   3.638   0.008  11.023  0.3004 -0.3665  0.8169
 5425TIP3   OH237689   6.779   3.304   2.613 -0.2497 -0.2403  0.4714
 5425TIP3    H137690   6.771   3.349   2.529  3.7921 -0.1748 -0.0826
 5425TIP3    H237691   6.764   3.212   2.593 -0.5177 -0.0869 -0.0572
 5426TIP3   OH237692   3.044   4.761  15.939 -0.1678 -0.2996  0.3928
 5426TIP3    H137693   2.974   4.756  15.874 -0.7461  0.8598  0.9049
 5426TIP3    H237694   2.999   4.771  16.023  0.6034  0.4093  0.7327
 5427TIP3   OH237695   3.693   5.560   5.160 -0.2359 -0.2263 -0.5101
 5427TIP3    H137696   3.644   5.577   5.241 -0.5219  1.8081 -1.0578
 5427TIP3    H237697   3.688   5.465   5.149 -1.8874 -0.3446  0.8102
 5428TIP3   OH237698   5.203   6.000  11.084  0.4944 -0.3758  0.3755
 5428TIP3    H137699   5.205   6.006  10.988 -0.3969  1.6381  0.4452
 5428TIP3    H237700   5.126   6.049  11.110  1.7750  0.7913  2.2305
 5429TIP3   OH237701   5.511   0.178  15.093 -0.6145  0.3052 -0.1094
 5429TIP3    H137702   5.503   0.223  15.177 -0.1183 -1.5126  0.9671
 5429TIP3    H237703   5.604   0.187  15.070 -0.7943  0.9860 -0.5773
 5430TIP3   OH237704   4.773   4.616  11.884  0.2673 -0.1378  0.1147
 5430TIP3    H137705   4.698   4.676  11.884 -0.1751 -0.6805 -0.1714
 5430TIP3    H237706   4.773   4.577  11.797  0.2637 -0.8970  0.4459
 5431TIP3   OH237707   0.223   3.929   4.890 -0.6245  0.1011  0.1732
 5431TIP3    H137708   0.201   4.017   4.922 -0.7818  0.5577 -1.0848
 5431TIP3    H237709   0.143   3.899   4.847 -0.8139 -0.9955  1.2470
 5432TIP3   OH237710   2.741   6.768   4.701  0.4320 -0.4967 -0.0447
 5432TIP3    H137711   2.764   6.860   4.712  0.1638 -0.3878 -0.3947
 5432TIP3    H237712   2.825   6.724   4.685  0.5329 -0.2818 -0.1026
 5433TIP3   OH237713   1.757   4.033  10.666 -0.6703  0.1453 -0.1332
 5433TIP3    H137714   1.812   3.956  10.653  1.9309  1.8915 -0.1531
 5433TIP3    H237715   1.760   4.079  10.582 -0.2561  1.4213  0.5607
 5434TIP3   OH237716   2.278   1.633   3.867  0.2633 -0.0922  0.6314
 5434TIP3    H137717   2.368   1.627   3.834  0.4780 -0.7983  1.2960
 5434TIP3    H237718   2.231   1.564   3.820  0.4342 -0.7118  1.3395
 5435TIP3   OH237719   0.908   4.290   0.700  0.3202 -0.3773 -0.2425
 5435TIP3    H137720   0.995   4.304   0.737  0.0641 -0.9435  0.6353
 5435TIP3    H237721   0.912   4.326   0.612  0.9105  1.2086  0.3990
 5436TIP3   OH237722   6.768   2.935   3.342  0.0698 -0.1546  0.7002
 5436TIP3    H137723   6.689   2.905   3.386 -0.6209 -0.6383 -0.7913
 5436TIP3    H237724   6.737   2.996   3.275  0.8751 -0.7006 -0.2163
 5437TIP3   OH237725   6.127   2.341   3.322  0.2627 -0.3372 -0.1719
 5437TIP3    H137726   6.156   2.428   3.349 -1.4621  0.2596 -0.1544
 5437TIP3    H237727   6.036   2.335   3.351  0.1557 -1.9150 -0.7118
 5438TIP3   OH237728   2.023   4.223   2.327 -0.1289 -0.5238  0.1455
 5438TIP3    H137729   1.928   4.216   2.323 -0.1118 -1.2726  0.7478
 5438TIP3    H237730   2.040   4.268   2.410  0.0322 -0.2694 -0.0273
 5439TIP3   OH237731   6.563   3.861  14.698 -0.4704 -0.9001 -0.1748
 5439TIP3    H137732   6.496   3.807  14.656  0.0062 -0.6080 -1.3335
 5439TIP3    H237733   6.645   3.815  14.680 -0.2154 -0.5644  0.1241
 5440TIP3   OH237734   3.054   0.541   4.821 -0.2846 -0.0488  0.3954
 5440TIP3    H137735   3.085   0.528   4.910 -0.0237 -2.0751  0.0435
 5440TIP3    H237736   3.012   0.627   4.823  1.2236  0.7021  2.0222
 5441TIP3   OH237737   3.973   4.538  12.202  0.5206  0.2533  0.0306
 5441TIP3    H137738   4.033   4.558  12.130 -2.2154 -0.5461 -2.6676
 5441TIP3    H237739   4.019   4.472  12.254  1.7516 -0.7783 -2.2529
 5442TIP3   OH237740   4.063   0.414   0.553 -0.8323  0.6942 -0.2078
 5442TIP3    H137741   3.983   0.423   0.501 -2.0198 -0.8720  1.2684
 5442TIP3    H237742   4.036   0.428   0.643  0.5378 -0.0670  0.3520
 5443TIP3   OH237743   5.878   2.955   0.685 -0.1311 -0.4116  0.0951
 5443TIP3    H137744   5.803   2.896   0.679  0.0700 -0.5518 -1.3785
 5443TIP3    H237745   5.915   2.956   0.597  1.4478 -0.1381  0.7284
 5444TIP3   OH237746   2.470   5.993  16.082 -0.0398 -0.1534  0.3756
 5444TIP3    H137747   2.438   6.080  16.106  0.0245  0.4891 -1.6438
 5444TIP3    H237748   2.391   5.944  16.059  0.0795  0.2161 -0.9235
 5445TIP3   OH237749   4.839   5.254  10.762 -0.2335  0.2614 -0.3649
 5445TIP3    H137750   4.812   5.235  10.672 -1.0311 -0.5431  0.0262
 5445TIP3    H237751   4.812   5.177  10.812 -1.3110  1.3868  0.8626
 5446TIP3   OH237752   0.452   0.863  12.193  0.6149  0.2929  0.1767
 5446TIP3    H137753   0.455   0.814  12.275 -3.6909 -0.7232 -0.0083
 5446TIP3    H237754   0.528   0.833  12.143  1.1558 -2.0488  2.2481
 5447TIP3   OH237755   1.206   0.608   0.495  0.0513  0.2487  0.2616
 5447TIP3    H137756   1.286   0.630   0.447  0.0597  0.3625  0.3282
 5447TIP3    H237757   1.171   0.531   0.449 -0.1896  0.6409 -0.2153
 5448TIP3   OH237758   6.202   5.534  13.271  0.1638 -0.1097  0.1276
 5448TIP3    H137759   6.169   5.506  13.185 -0.8739 -0.5319  0.6376
 5448TIP3    H237760   6.159   5.618  13.286  2.1053  1.0952 -0.7339
 5449TIP3   OH237761   6.284   4.787  10.846  0.1092  0.3263 -0.4651
 5449TIP3    H137762   6.269   4.802  10.939  1.6882  1.5731 -0.3764
 5449TIP3    H237763   6.240   4.704  10.829  0.1334 -0.1461  1.4781
 5450TIP3   OH237764   3.790   2.812   4.518 -0.3779  0.2539 -0.1387
 5450TIP3    H137765   3.864   2.761   4.486  0.0121  0.0404  1.0661
 5450TIP3    H237766   3.752   2.758   4.587 -0.6414  1.1090  0.3959
 5451TIP3   OH237767   6.216   3.085  10.893 -0.1771  0.8814 -0.0626
 5451TIP3    H137768   6.227   3.166  10.943  2.0414  0.7819 -0.2823
 5451TIP3    H237769   6.304   3.063  10.864 -0.6000 -2.0017  0.5699
 5452TIP3   OH237770   3.135   2.983  12.285  0.7539  0.1506  0.1052
 5452TIP3    H137771   3.125   2.914  12.350  1.2205 -0.1238 -0.1157
 5452TIP3    H237772   3.090   2.950  12.208  4.4597 -1.8066 -1.4533
 5453TIP3   OH237773   3.086   1.170  12.520 -0.5131 -0.0157 -0.6866
 5453TIP3    H137774   3.054   1.196  12.607  0.6890  0.4871 -0.3800
 5453TIP3    H237775   3.181   1.169  12.529 -0.3299  1.0245 -2.2882
 5454TIP3   OH237776   0.761   4.514   3.826  0.2988 -0.2205 -0.6915
 5454TIP3    H137777   0.782   4.480   3.913 -0.8302  0.1267 -0.2630
 5454TIP3    H237778   0.716   4.597   3.843 -4.0809 -2.1986 -1.2887
 5455TIP3   OH237779   0.892   2.246   2.146 -0.4780 -0.1458  0.4228
 5455TIP3    H137780   0.936   2.273   2.227  0.5265 -1.4285  0.3531
 5455TIP3    H237781   0.940   2.292   2.077 -0.1159 -0.4697  0.4487
 5456TIP3   OH237782   0.372   6.508  15.213 -0.0931  0.1685  0.0701
 5456TIP3    H137783   0.348   6.597  15.237 -0.0656  0.3373 -0.5123
 5456TIP3    H237784   0.418   6.517  15.130 -1.0586 -0.4868 -0.5592
 5457TIP3   OH237785   2.143   1.116  15.667  0.4038 -0.3490  0.0320
 5457TIP3    H137786   2.186   1.082  15.588 -0.8151 -0.5480 -0.5579
 5457TIP3    H237787   2.204   1.182  15.700  0.4394  0.5616 -1.7043
 5458TIP3   OH237788   1.369   0.305   2.226  0.2427 -0.2089  0.5369
 5458TIP3    H137789   1.349   0.374   2.289 -1.5849  0.3766 -0.6238
 5458TIP3    H237790   1.359   0.347   2.141  1.2270 -1.3742 -0.1838
 5459TIP3   OH237791   5.933   3.796   3.649  0.1516 -0.2819 -0.4368
 5459TIP3    H137792   6.006   3.851   3.620 -2.6571  2.8189 -2.3644
 5459TIP3    H237793   5.874   3.793   3.573 -2.1823 -1.8099  1.3114
 5460TIP3   OH237794   3.130   1.323   2.652  0.6259 -0.0754 -0.0065
 5460TIP3    H137795   3.215   1.362   2.672  1.0483 -0.7432 -0.4398
 5460TIP3    H237796   3.069   1.368   2.710  1.1026  1.1368 -0.3952
 5461TIP3   OH237797   2.711   2.595   2.334 -0.0445 -0.3587 -0.1818
 5461TIP3    H137798   2.712   2.690   2.348  0.2284 -0.3203 -0.4668
 5461TIP3    H237799   2.739   2.584   2.244  3.1287 -0.8831  0.7280
 5462TIP3   OH237800   5.525   5.876  11.692  0.0955 -0.3849 -0.1495
 5462TIP3    H137801   5.486   5.813  11.752 -1.3411  1.6945  1.2353
 5462TIP3    H237802   5.619   5.866  11.705 -0.1625 -0.2723  2.2092
 5463TIP3   OH237803   2.141   0.680   5.074 -0.2949  0.0833  0.2495
 5463TIP3    H137804   2.057   0.724   5.068  0.1969  1.6995  3.2263
 5463TIP3    H237805   2.155   0.642   4.987 -3.5574  0.6439 -0.6467
 5464TIP3   OH237806   0.063   0.993  14.886 -0.0662 -0.0675 -0.6991
 5464TIP3    H137807  -0.025   1.027  14.905 -0.8791 -0.8496 -2.7554
 5464TIP3    H237808   0.076   0.924  14.950 -0.0789  1.3711  0.9260
 5465TIP3   OH237809   1.582   6.618   0.877  0.5463  0.3413  0.3339
 5465TIP3    H137810   1.623   6.562   0.811 -2.2053 -0.1841 -1.0746
 5465TIP3    H237811   1.530   6.680   0.826 -0.2480  1.0859  2.0045
 5466TIP3   OH237812   2.699   1.407  15.581 -0.0313  0.2930  0.3053
 5466TIP3    H137813   2.619   1.419  15.529 -0.6970  1.6169  1.5641
 5466TIP3    H237814   2.717   1.494  15.617  1.2529 -0.2737  1.0936
 5467TIP3   OH237815   2.410   1.400  15.875  0.2232  0.1785 -0.6285
 5467TIP3    H137816   2.407   1.305  15.889 -0.3233 -0.0068 -1.8723
 5467TIP3    H237817   2.321   1.423  15.851  0.6743  0.7602 -1.8016
 5468TIP3   OH237818   6.057   0.299   4.920  0.6514  0.2944 -0.2847
 5468TIP3    H137819   6.040   0.217   4.967  0.0233  1.0570  0.8795
 5468TIP3    H237820   5.972   0.324   4.883  1.1972 -0.4446 -2.1350
 5469TIP3   OH237821   2.306   0.573   2.610  0.0611  1.1481  0.2447
 5469TIP3    H137822   2.218   0.537   2.599  0.3325  0.7908 -0.9524
 5469TIP3    H237823   2.291   0.665   2.634 -0.6566  1.2973 -0.6889
 5470TIP3   OH237824   1.911   0.075  16.639 -0.0904  0.0852 -0.1637
 5470TIP3    H137825   1.890   0.150  16.583 -0.5230  0.9778  1.1341
 5470TIP3    H237826   1.838   0.014  16.627 -0.1991  0.2912 -0.5391
 5471TIP3   OH237827   5.392   5.525   1.488  0.7224  1.6759  0.5050
 5471TIP3    H137828   5.452   5.598   1.495  1.1036  1.4192  0.0206
 5471TIP3    H237829   5.408   5.489   1.400 -0.7252  2.1201  0.0207
 5472TIP3   OH237830   5.967   0.207   0.254  0.0810 -0.0303 -0.0071
 5472TIP3    H137831   5.917   0.140   0.299  1.6845 -0.1119  1.7815
 5472TIP3    H237832   6.040   0.160   0.214 -0.1361  0.3345 -0.8401
 5473TIP3   OH237833   6.875   0.529   0.682 -0.6703  0.3200 -0.0147
 5473TIP3    H137834   6.927   0.571   0.752 -1.7889  1.7252  0.0271
 5473TIP3    H237835   6.839   0.603   0.632 -4.2327 -0.4317  1.1481
 5474TIP3   OH237836   3.874   4.316  11.202 -0.0115  0.0008  1.1246
 5474TIP3    H137837   3.794   4.367  11.201  0.3652  0.6070  0.1850
 5474TIP3    H237838   3.851   4.233  11.160 -0.0516  0.3270  0.5018
 5475TIP3   OH237839   1.950   0.196  11.572 -0.0963  0.0909 -0.0859
 5475TIP3    H137840   1.957   0.202  11.667 -0.7787 -0.6071  0.0146
 5475TIP3    H237841   1.856   0.198  11.554  0.0525  1.9693 -0.8804
 5476TIP3   OH237842   5.585   3.074   1.502 -0.3927 -0.0484 -0.4208
 5476TIP3    H137843   5.536   3.156   1.504  2.5842  1.9212  2.1482
 5476TIP3    H237844   5.599   3.052   1.594  1.3152 -1.8304 -1.0318
 5477TIP3   OH237845   0.252   3.330   2.439  0.2874  0.4135 -0.7974
 5477TIP3    H137846   0.239   3.282   2.357  1.3050 -1.3590  0.0152
 5477TIP3    H237847   0.243   3.422   2.415 -0.6662 -0.1175 -2.6441
 5478TIP3   OH237848   4.601   5.104   5.798 -0.3680  0.6642  0.2763
 5478TIP3    H137849   4.649   5.069   5.872 -1.9392 -0.4397  0.8348
 5478TIP3    H237850   4.649   5.183   5.773  1.5938 -0.2812  0.8666
 5479TIP3   OH237851   2.467   3.111  12.886  0.0485 -0.2274  0.2000
 5479TIP3    H137852   2.518   3.094  12.807 -0.8756 -2.2253 -0.0306
 5479TIP3    H237853   2.377   3.120  12.856 -0.0923  0.7455  0.8638
 5480TIP3   OH237854   6.485   4.607   1.634  0.1298  0.4434 -0.2235
 5480TIP3    H137855   6.473   4.591   1.728 -1.5425 -2.4101 -0.8239
 5480TIP3    H237856   6.428   4.681   1.615  0.1389  0.7628  0.8999
 5481TIP3   OH237857   0.011   2.393  10.179  0.0082 -0.8890  0.5298
 5481TIP3    H137858  -0.039   2.377  10.100  2.0953  0.6079 -1.2472
 5481TIP3    H237859   0.085   2.333  10.174 -1.1858 -2.7125  2.8334
 5482TIP3   OH237860   2.899   0.896  10.728 -0.5383 -0.2515  0.2494
 5482TIP3    H137861   2.928   0.979  10.690 -1.9537 -0.0245 -0.3997
 5482TIP3    H237862   2.921   0.830  10.663 -2.4184  0.0635 -0.7768
 5483TIP3   OH237863   2.366   3.453   5.618  0.4226  0.3864  0.4477
 5483TIP3    H137864   2.360   3.378   5.676  1.1225  0.6435  0.8698
 5483TIP3    H237865   2.324   3.425   5.537 -2.4014  0.7045  1.7137
 5484TIP3   OH237866   2.979   0.915   2.472  0.4870  0.2223  0.1261
 5484TIP3    H137867   3.035   0.992   2.472  1.6147 -0.5663 -0.5562
 5484TIP3    H237868   2.992   0.875   2.386  0.3503 -1.0129  0.6531
 5485TIP3   OH237869   0.150   5.263   2.463  0.2219 -0.1433 -0.2565
 5485TIP3    H137870   0.099   5.213   2.527 -0.0358  1.0846  0.5354
 5485TIP3    H237871   0.151   5.207   2.385 -1.0353 -0.8691  0.2045
 5486TIP3   OH237872   4.048   3.667  15.416  0.2416  0.1907 -0.1966
 5486TIP3    H137873   4.046   3.699  15.326 -1.4646 -0.6954 -0.5145
 5486TIP3    H237874   4.002   3.735  15.466  1.3348  0.7650  0.0780
 5487TIP3   OH237875   3.438   4.184  16.010 -0.3832 -0.5927  0.3543
 5487TIP3    H137876   3.387   4.187  15.928 -0.9498 -1.2010  0.6780
 5487TIP3    H237877   3.497   4.110  15.998 -0.8283 -1.0097  0.6969
 5488TIP3   OH237878   2.780   3.601   0.378 -0.0881  0.0446  0.4547
 5488TIP3    H137879   2.834   3.630   0.451  1.6662 -0.5639 -0.5429
 5488TIP3    H237880   2.841   3.589   0.305 -1.6644 -0.0662 -0.9257
 5489TIP3   OH237881   4.903   0.884   1.861 -0.4804 -0.3203 -0.0581
 5489TIP3    H137882   4.849   0.933   1.800 -2.4407 -1.8213  0.3508
 5489TIP3    H237883   4.968   0.840   1.807 -0.4079  0.5794 -0.7168
 5490TIP3   OH237884   4.971   4.695   2.845  0.1321 -0.1798  0.3302
 5490TIP3    H137885   4.907   4.714   2.914  0.1044  0.6554  0.0835
 5490TIP3    H237886   5.044   4.653   2.891 -0.2019 -0.2973  0.7552
 5491TIP3   OH237887   1.772   6.025   1.397 -0.7126 -0.6864  0.7437
 5491TIP3    H137888   1.689   6.068   1.417 -0.0547  0.0612  2.0234
 5491TIP3    H237889   1.805   6.070   1.319 -0.8387  0.0055  1.0818
 5492TIP3   OH237890   3.925   1.094   2.429  0.2095  0.5903  0.1508
 5492TIP3    H137891   4.018   1.116   2.439  0.6741 -0.2802 -1.7653
 5492TIP3    H237892   3.925   1.001   2.407 -1.2264  0.2585  1.4232
 5493TIP3   OH237893   1.761   4.763   0.537 -0.0619  0.4919 -0.0199
 5493TIP3    H137894   1.799   4.825   0.598  1.4125 -1.3456  1.0218
 5493TIP3    H237895   1.788   4.794   0.450  3.2280 -0.2756  0.6231
 5494TIP3   OH237896   0.449   6.596   4.501  0.5825 -0.4047  0.0492
 5494TIP3    H137897   0.474   6.674   4.451  1.5477  0.0816  1.2330
 5494TIP3    H237898   0.364   6.618   4.538  0.9883  0.2225  0.6282
 5495TIP3   OH237899   0.438   5.686  16.651  0.0599 -0.6459 -0.6352
 5495TIP3    H137900   0.461   5.747  16.581 -0.6508  0.0401 -0.2961
 5495TIP3    H237901   0.515   5.685  16.707  0.2477 -0.3950 -0.8849
 5496TIP3   OH237902   4.778   6.652  12.405  0.3489 -0.1184  0.5377
 5496TIP3    H137903   4.832   6.696  12.339  1.5648 -1.9076  0.2567
 5496TIP3    H237904   4.695   6.700  12.405  1.1223  1.2934 -0.6798
 5497TIP3   OH237905   6.348   1.582   6.019  0.0100 -0.1688 -0.6984
 5497TIP3    H137906   6.326   1.670   5.990 -0.0151  0.0350 -0.0567
 5497TIP3    H237907   6.410   1.594   6.091  0.5040 -0.6913 -1.0211
 5498TIP3   OH237908   6.613   3.843  16.285 -0.2362 -0.1837 -0.1950
 5498TIP3    H137909   6.528   3.881  16.309  0.5466  0.6403  1.3865
 5498TIP3    H237910   6.601   3.748  16.295 -0.9876 -0.0829 -0.0930
 5499TIP3   OH237911   4.316   5.519  12.761  0.2472 -0.0200  0.2214
 5499TIP3    H137912   4.406   5.493  12.744 -0.5761 -1.8883 -1.9341
 5499TIP3    H237913   4.304   5.600  12.710  0.5439 -0.1349 -0.0341
 5500TIP3   OH237914   1.954   5.672  12.699 -0.0995 -0.0707  0.7748
 5500TIP3    H137915   2.026   5.633  12.649 -0.2391  0.6474 -0.0034
 5500TIP3    H237916   1.992   5.749  12.741 -0.2455 -0.0873  0.9420
 5501TIP3   OH237917   3.261   1.521  12.735 -0.1760 -0.1813  0.3416
 5501TIP3    H137918   3.312   1.548  12.811  1.7675  0.6256 -1.1688
 5501TIP3    H237919   3.226   1.435  12.759 -0.6190  0.5611  2.5699
 5502TIP3   OH237920   0.715   5.338  11.888 -0.5951  0.2423 -0.3812
 5502TIP3    H137921   0.636   5.391  11.895 -1.3252 -1.0339  3.2456
 5502TIP3    H237922   0.787   5.399  11.903 -1.2933  0.6227  1.7422
 5503TIP3   OH237923   1.408   2.260   1.810 -0.2436 -0.1813  0.5894
 5503TIP3    H137924   1.454   2.342   1.830  0.6902 -0.8455  1.2321
 5503TIP3    H237925   1.437   2.237   1.722  1.1328 -0.8909  1.2078
 5504TIP3   OH237926   5.593   2.684   4.547  0.1895  0.3078 -0.4514
 5504TIP3    H137927   5.511   2.652   4.585 -0.2835  0.2662 -1.4688
 5504TIP3    H237928   5.606   2.770   4.586  0.7425 -0.4991  1.2588
 5505TIP3   OH237929   2.350   4.376  10.204  0.4219 -0.0176 -0.2399
 5505TIP3    H137930   2.292   4.314  10.160  1.0653 -1.4537  0.8537
 5505TIP3    H237931   2.439   4.345  10.184  0.7378 -0.0515  1.1067
 5506TIP3   OH237932   5.438   1.492   5.143 -0.0942 -0.0151  0.0690
 5506TIP3    H137933   5.369   1.541   5.187 -0.4271 -0.8376  0.4929
 5506TIP3    H237934   5.514   1.550   5.144 -0.6268  0.6915  0.0682
 5507TIP3   OH237935   4.455   3.537   5.439  0.6444 -0.4301  0.0699
 5507TIP3    H137936   4.533   3.591   5.425  0.9697 -1.4130 -2.4535
 5507TIP3    H237937   4.417   3.526   5.352 -1.4532 -1.2849  1.0201
 5508TIP3   OH237938   1.936   0.351   3.238 -0.2691  0.8533 -0.3289
 5508TIP3    H137939   1.872   0.335   3.170 -0.1142  1.6547 -0.6799
 5508TIP3    H237940   1.945   0.268   3.284 -1.2739  0.6366 -0.5144
 5509TIP3   OH237941   2.337   4.970   1.421  0.1298 -0.1934 -0.2170
 5509TIP3    H137942   2.292   5.052   1.439  0.0271 -0.1470 -0.6615
 5509TIP3    H237943   2.430   4.994   1.419  0.1062 -0.1059 -0.2565
 5510TIP3   OH237944   6.005   1.865  10.632  0.3352 -0.1033  0.5044
 5510TIP3    H137945   5.953   1.899  10.704  2.6940  3.4325  0.7859
 5510TIP3    H237946   6.092   1.850  10.669  1.2189  0.3811 -1.2295
 5511TIP3   OH237947   5.452   6.794   3.526  0.0360 -0.0883  0.8150
 5511TIP3    H137948   5.490   6.724   3.579  0.6638  0.5250  1.2028
 5511TIP3    H237949   5.382   6.830   3.580 -0.7461 -0.8593  0.3289
 5512TIP3   OH237950   5.835   0.874   5.037 -0.0506  0.3921 -1.1556
 5512TIP3    H137951   5.881   0.947   4.997 -0.4159  1.7322  0.7199
 5512TIP3    H237952   5.756   0.913   5.074 -0.9952 -1.2377 -1.3480
 5513TIP3   OH237953   5.764   6.673   2.051 -0.1214 -0.3674 -0.2861
 5513TIP3    H137954   5.857   6.698   2.050 -0.0529 -0.4977 -2.0600
 5513TIP3    H237955   5.718   6.750   2.017 -0.4151 -0.9528 -1.2846
 5514TIP3   OH237956   0.548   1.072   5.338  0.4936 -0.3661  0.2161
 5514TIP3    H137957   0.463   1.058   5.297 -0.1234  1.2183  0.8749
 5514TIP3    H237958   0.530   1.126   5.414  2.0568 -0.3120  0.5987
 5515TIP3   OH237959   1.833   4.919   3.983 -0.1065 -0.0051  0.0127
 5515TIP3    H137960   1.874   4.911   3.897  4.4244 -0.2578  1.9209
 5515TIP3    H237961   1.780   4.839   3.991 -0.2471 -0.2086 -2.3089
 5516TIP3   OH237962   5.441   0.290  12.092 -0.1347 -0.3542 -0.4101
 5516TIP3    H137963   5.472   0.292  12.002  0.4159  1.5644 -0.2096
 5516TIP3    H237964   5.345   0.289  12.085 -0.1360 -2.5016 -0.9815
 5517TIP3   OH237965   0.563   1.405   4.917 -0.2929 -0.0974  0.1305
 5517TIP3    H137966   0.579   1.402   4.823  1.0645  0.0731  0.3438
 5517TIP3    H237967   0.502   1.333   4.933  0.7396 -1.1797 -0.6475
 5518TIP3   OH237968   3.500   5.644   0.919 -0.0952 -0.6419  0.6812
 5518TIP3    H137969   3.580   5.696   0.929 -1.0548  0.5988  2.3161
 5518TIP3    H237970   3.434   5.707   0.891 -1.2794 -0.9240  2.6711
 5519TIP3   OH237971   6.316   5.036  15.800 -0.1603  0.0673  0.1165
 5519TIP3    H137972   6.290   4.956  15.846 -2.4847  0.7466  0.1483
 5519TIP3    H237973   6.298   5.106  15.864 -1.5794  0.8618 -1.0930
 5520TIP3   OH237974   2.550   3.973   3.669 -0.3208  0.0803  0.7672
 5520TIP3    H137975   2.474   4.006   3.621 -1.0565  0.7205  2.3057
 5520TIP3    H237976   2.622   4.031   3.644 -0.3900 -0.3386 -0.4604
 5521TIP3   OH237977   5.079   1.818  15.422  0.9157  0.2082 -0.2867
 5521TIP3    H137978   5.001   1.858  15.384  0.5871  0.1873  0.3569
 5521TIP3    H237979   5.086   1.733  15.378  0.9624  0.4867 -0.8287
 5522TIP3   OH237980   4.505   3.045   4.026 -0.1789  0.3706  0.3125
 5522TIP3    H137981   4.435   3.040   3.961 -0.2656  1.5351  0.3060
 5522TIP3    H237982   4.470   3.102   4.095  0.9399  1.3909  0.0687
 5523TIP3   OH237983   6.028   4.817   3.587  0.0572 -0.3128 -0.0545
 5523TIP3    H137984   6.000   4.842   3.499  1.3110  1.3600 -0.0144
 5523TIP3    H237985   6.114   4.858   3.598  0.2732 -1.1375  1.6694
 5524TIP3   OH237986   3.596   0.685   5.838  0.0751  0.1932  0.0305
 5524TIP3    H137987   3.649   0.721   5.909  0.9168 -0.0477 -0.4575
 5524TIP3    H237988   3.631   0.597   5.823 -0.5976 -0.0493 -0.1730
 5525TIP3   OH237989   2.068   6.639  13.316  0.1679  0.5438 -0.2914
 5525TIP3    H137990   2.120   6.620  13.394  0.2447 -1.0581 -0.6976
 5525TIP3    H237991   2.125   6.615  13.243 -0.7829 -0.3790 -0.7596
 5526TIP3   OH237992   3.157   4.265  13.919  0.1637 -0.0572  0.0199
 5526TIP3    H137993   3.065   4.266  13.894 -0.5682  0.9223  2.5050
 5526TIP3    H237994   3.195   4.194  13.867 -1.7407  0.1563 -1.7742
 5527TIP3   OH237995   6.315   0.917  15.903  0.1583  0.7135  0.0760
 5527TIP3    H137996   6.325   0.829  15.866  1.2436  0.8993 -0.1006
 5527TIP3    H237997   6.377   0.919  15.976 -0.2471  1.1624  0.4146
 5528TIP3   OH237998   2.374   1.824  14.645  0.3468  0.1011  0.4757
 5528TIP3    H137999   2.410   1.790  14.726  0.8508  1.1349  0.6995
 5528TIP3    H238000   2.354   1.915  14.664  0.7863  0.4548 -0.6538
 5529TIP3   OH238001   3.070   6.436  14.258 -0.2543 -0.1447  0.1313
 5529TIP3    H138002   3.130   6.506  14.233  0.0733 -0.0960  1.0039
 5529TIP3    H238003   3.107   6.356  14.221 -0.7745  0.1697 -1.1023
 5530TIP3   OH238004   5.806   5.755   2.299 -0.2224 -0.1256  0.1896
 5530TIP3    H138005   5.843   5.668   2.283  0.0680  0.1100 -0.4656
 5530TIP3    H238006   5.718   5.737   2.334  0.3042 -0.6815  1.2911
 5531TIP3   OH238007   1.720   3.479   1.448  0.2131  0.5939  0.5603
 5531TIP3    H138008   1.671   3.523   1.378 -0.4355 -2.1933 -0.8843
 5531TIP3    H238009   1.668   3.401   1.468  2.6016 -1.0001  0.9955
 5532TIP3   OH238010   1.575   0.875  16.252 -0.2369  0.0795  0.2440
 5532TIP3    H138011   1.523   0.945  16.210 -0.1484 -0.0088 -0.0119
 5532TIP3    H238012   1.544   0.875  16.343 -1.8993 -1.0913 -0.2744
 5533TIP3   OH238013   3.312   4.536   3.968 -0.0251  0.0265  0.1610
 5533TIP3    H138014   3.226   4.570   3.995  0.6124  1.8126  0.0901
 5533TIP3    H238015   3.305   4.442   3.980 -1.4766  0.2723  1.6387
 5534TIP3   OH238016   6.460   5.524   1.387 -0.4455 -0.0723  0.1467
 5534TIP3    H138017   6.432   5.510   1.478  2.5157 -0.3149  1.1268
 5534TIP3    H238018   6.493   5.614   1.386 -2.4606  0.7209 -1.3435
 5535TIP3   OH238019   0.492   6.591   5.806 -0.2846 -0.4522 -0.5991
 5535TIP3    H138020   0.584   6.614   5.797 -0.2804 -0.1188  0.2405
 5535TIP3    H238021   0.475   6.597   5.899 -1.2619 -0.1204 -0.7903
 5536TIP3   OH238022   3.640   0.635   3.982  0.1382  0.6329  0.6853
 5536TIP3    H138023   3.724   0.592   3.963  0.5932  2.3623 -1.7371
 5536TIP3    H238024   3.648   0.721   3.941 -2.6334  1.0732  0.8862
 5537TIP3   OH238025   5.509   5.290  16.636 -0.2378  0.3515 -0.2337
 5537TIP3    H138026   5.495   5.359  16.571  1.8815  0.2811 -0.8651
 5537TIP3    H238027   5.551   5.335  16.710 -1.0383  0.1355  0.3612
 5538TIP3   OH238028   6.387   6.563  14.922 -0.2343  0.6257 -0.4281
 5538TIP3    H138029   6.390   6.589  14.830 -0.0832 -1.6573 -1.1350
 5538TIP3    H238030   6.310   6.507  14.929  0.3701 -0.1301  0.5736
 5539TIP3   OH238031   2.600   4.258   4.846 -0.2982 -0.1409  0.2119
 5539TIP3    H138032   2.620   4.166   4.827  0.7087  0.0935  0.0982
 5539TIP3    H238033   2.609   4.302   4.762 -2.0860 -0.1267 -0.0193
 5540TIP3   OH238034   1.986   3.463   1.833 -0.1049 -0.1999  0.1441
 5540TIP3    H138035   1.971   3.420   1.749  2.7682 -0.4860 -0.3206
 5540TIP3    H238036   1.953   3.552   1.820 -2.3992 -1.0105 -0.2153
 5541TIP3   OH238037   2.108   4.682  13.354  0.4442  0.2465  0.2714
 5541TIP3    H138038   2.049   4.615  13.321 -0.3872  0.2180  1.7268
 5541TIP3    H238039   2.108   4.749  13.285  0.5331 -0.7897 -0.7670
 5542TIP3   OH238040   4.118   4.936  14.543  0.0075  0.2761 -0.2505
 5542TIP3    H138041   4.062   4.927  14.465 -0.1949  1.5323 -0.2666
 5542TIP3    H238042   4.189   4.873  14.528 -0.8139 -0.5564 -0.7456
 5543TIP3   OH238043   2.590   1.979   0.271 -0.6077  0.6558  0.3219
 5543TIP3    H138044   2.501   1.944   0.268 -0.7500  0.6577  2.7356
 5543TIP3    H238045   2.642   1.908   0.309  0.6864  0.2903 -1.9287
 5544TIP3   OH238046   0.049   3.570   0.247 -0.8790 -0.1012  0.2952
 5544TIP3    H138047   0.098   3.599   0.170 -1.1359 -2.1119 -0.6965
 5544TIP3    H238048  -0.042   3.591   0.227 -0.6886  1.8426  1.2810
 5545TIP3   OH238049   2.177   4.494   4.348 -0.5519 -0.3556 -0.1587
 5545TIP3    H138050   2.212   4.568   4.298 -0.1813 -0.8908 -0.7050
 5545TIP3    H238051   2.237   4.484   4.422 -2.8310  2.4785  2.3234
 5546TIP3   OH238052   6.285   4.569   3.529  0.7797 -0.2187 -0.4304
 5546TIP3    H138053   6.243   4.588   3.445  1.6996 -0.4332 -0.9460
 5546TIP3    H238054   6.219   4.519   3.578 -0.2433  1.0066 -0.5139
 5547TIP3   OH238055   2.799   4.518   2.937 -0.1290 -0.0825  0.0813
 5547TIP3    H138056   2.845   4.443   2.976  0.4565  1.3376  2.3051
 5547TIP3    H238057   2.710   4.486   2.921 -0.5574 -0.6900  3.0977
 5548TIP3   OH238058   3.262   0.352  15.670  0.2773 -0.6000 -0.0976
 5548TIP3    H138059   3.326   0.387  15.609  2.1202 -0.6475  1.7173
 5548TIP3    H238060   3.271   0.257  15.664 -0.4281 -0.6383 -0.6391
 5549TIP3   OH238061   2.558   1.462   2.785  0.3059 -0.1589  0.7929
 5549TIP3    H138062   2.601   1.505   2.711 -1.0896 -1.0196 -0.5624
 5549TIP3    H238063   2.572   1.369   2.770  0.0989 -0.3405  1.6878
 5550TIP3   OH238064   6.726   2.506  13.121  0.4399  0.3152  0.4587
 5550TIP3    H138065   6.634   2.530  13.126  0.3077 -0.3478  1.7229
 5550TIP3    H238066   6.754   2.501  13.212  0.9587 -2.2316  0.2460
 5551TIP3   OH238067   0.705   1.789   2.684 -0.3033  0.1549  0.6050
 5551TIP3    H138068   0.737   1.806   2.773  1.4306 -0.7500  0.2016
 5551TIP3    H238069   0.652   1.866   2.662  0.9651  1.3823  1.6557
 5552TIP3   OH238070   4.170   4.843  12.609  0.4222  0.5000  0.6518
 5552TIP3    H138071   4.238   4.843  12.542 -1.1960  0.5886 -1.0947
 5552TIP3    H238072   4.092   4.878  12.564 -0.5941  1.1152  2.7581
 5553TIP3   OH238073   5.997   0.521  11.657  0.3391 -0.2325 -0.8948
 5553TIP3    H138074   6.030   0.442  11.615  1.6755 -1.1623  1.6816
 5553TIP3    H238075   6.074   0.577  11.667  0.6425 -1.0409  2.2667
 5554TIP3   OH238076   5.249   0.225   4.276 -0.3181  0.0299  0.2463
 5554TIP3    H138077   5.261   0.148   4.332  1.7260 -0.0240 -0.1995
 5554TIP3    H238078   5.230   0.296   4.337 -0.1917 -0.4293  0.8312
 5555TIP3   OH238079   2.435   4.293   0.942  0.0923 -0.5404 -0.1981
 5555TIP3    H138080   2.458   4.354   0.872 -1.1638  0.2019  0.0099
 5555TIP3    H238081   2.476   4.330   1.020  1.5221 -1.3868 -0.5122
 5556TIP3   OH238082   5.224   6.217   3.136 -0.0033 -0.5020 -0.0791
 5556TIP3    H138083   5.147   6.223   3.079 -0.2689 -1.9143  0.1002
 5556TIP3    H238084   5.277   6.293   3.112 -0.4949 -0.6083 -1.6365
 5557TIP3   OH238085   2.115   5.218   3.186  0.3758 -0.1627  0.4895
 5557TIP3    H138086   2.086   5.129   3.163 -1.2604  0.0632  1.5067
 5557TIP3    H238087   2.100   5.224   3.281 -2.2651  2.0939  0.0606
 5558TIP3   OH238088   2.633   5.729  13.436 -0.5943  0.2516  0.0512
 5558TIP3    H138089   2.547   5.772  13.434 -0.2378  0.9548 -0.8963
 5558TIP3    H238090   2.685   5.778  13.373  0.8912  0.6111  1.5038
 5559TIP3   OH238091   6.259   3.088  12.824  0.3365  0.3009 -0.6160
 5559TIP3    H138092   6.207   3.158  12.786  0.7233  0.0679 -1.6148
 5559TIP3    H238093   6.195   3.020  12.846  0.1009  0.4339 -0.8839
 5560TIP3   OH238094   2.251   5.476  14.047  0.4933 -0.5477 -0.0939
 5560TIP3    H138095   2.268   5.435  14.132 -0.5826  0.4567  0.6354
 5560TIP3    H238096   2.308   5.429  13.986 -1.5366 -4.0081  0.3945
 5561TIP3   OH238097   3.941   4.771  13.133  0.1434 -0.6196 -0.1304
 5561TIP3    H138098   3.846   4.770  13.121  0.0160 -1.6691  0.7874
 5561TIP3    H238099   3.976   4.724  13.058  0.0489  0.7832 -1.0940
 5562TIP3   OH238100   2.536   3.434  12.412  0.3522  0.2378 -0.4294
 5562TIP3    H138101   2.614   3.475  12.449  0.9364 -0.2920 -1.0477
 5562TIP3    H238102   2.570   3.365  12.354 -0.5559  0.4575 -1.2426
 5563TIP3   OH238103   1.686   4.175  14.041  0.2781 -0.5011  0.2050
 5563TIP3    H138104   1.593   4.156  14.032 -0.2261  0.9100  1.8734
 5563TIP3    H238105   1.729   4.091  14.025 -1.2257 -1.0836 -1.0642
 5564TIP3   OH238106   2.410   4.314   3.598  0.6496 -0.5645  0.2933
 5564TIP3    H138107   2.324   4.356   3.596  0.9581  0.1070  0.7200
 5564TIP3    H238108   2.459   4.363   3.664  1.5607 -0.5479 -0.3712
 5565TIP3   OH238109   6.199   3.497  12.289  0.2551  0.0485 -0.5738
 5565TIP3    H138110   6.255   3.535  12.357  1.9346  0.0826 -1.8993
 5565TIP3    H238111   6.117   3.477  12.334  1.3404 -0.0598  1.4930
 5566TIP3   OH238112   3.133   1.046   2.776  0.0344  0.3491  0.0297
 5566TIP3    H138113   3.049   1.010   2.745 -0.1180  0.1161  0.6826
 5566TIP3    H238114   3.108   1.121   2.829  0.1936 -0.0932  0.7444
 5567TIP3   OH238115   6.770   1.646  10.907  0.0321  0.1666 -0.5613
 5567TIP3    H138116   6.794   1.657  10.815 -0.3116  2.1508 -0.4628
 5567TIP3    H238117   6.845   1.680  10.956 -0.3420  0.3948 -0.1380
 5568TIP3   OH238118   0.779   5.313  14.801 -0.5085  0.3733 -0.0300
 5568TIP3    H138119   0.692   5.350  14.819  0.2784  2.0479  0.4534
 5568TIP3    H238120   0.831   5.333  14.878  0.3971 -0.4079 -0.4159
 5569TIP3   OH238121   2.784   5.085   4.602 -0.4524  0.5540  0.1087
 5569TIP3    H138122   2.848   5.146   4.639 -1.5585  1.5157  0.5187
 5569TIP3    H238123   2.742   5.045   4.679 -0.3682 -0.0348 -0.1513
 5570TIP3   OH238124   2.304   3.347   2.962 -0.4559  0.2272  0.0192
 5570TIP3    H138125   2.356   3.337   2.883 -1.3236 -0.4592 -0.4879
 5570TIP3    H238126   2.228   3.398   2.934 -0.1062  1.1797  0.7355
 5571TIP3   OH238127   6.359   3.312   9.820  0.0318 -0.0516  0.0823
 5571TIP3    H138128   6.424   3.328   9.888 -0.3341  0.4622  0.3147
 5571TIP3    H238129   6.278   3.351   9.854 -0.2009  0.0468 -0.5626
 5572TIP3   OH238130   4.501   6.868  16.559 -0.0923 -0.0668 -0.3446
 5572TIP3    H138131   4.482   6.796  16.498  1.1465 -0.4694 -0.2809
 5572TIP3    H238132   4.556   6.828  16.626  1.3213  1.1220 -0.7577
 5573TIP3   OH238133   4.308   3.532  16.289 -0.6102 -0.4844 -0.3690
 5573TIP3    H138134   4.285   3.529  16.197  1.3153 -2.0748 -0.8598
 5573TIP3    H238135   4.375   3.599  16.296  2.0712 -2.9144 -0.9384
 5574TIP3   OH238136   5.625   0.650   1.311  0.0919  0.0791 -0.0791
 5574TIP3    H138137   5.653   0.559   1.314 -1.1328 -0.3068  0.5705
 5574TIP3    H238138   5.678   0.690   1.242 -1.0791 -1.7258 -2.1325
 5575TIP3   OH238139   5.821   0.241   2.699  0.4345  0.5279 -0.5030
 5575TIP3    H138140   5.749   0.303   2.691  0.3725  0.3906 -0.9989
 5575TIP3    H238141   5.817   0.187   2.620  0.4806 -0.1169 -0.0780
 5576TIP3   OH238142   1.951   5.374   3.833 -0.5000 -0.6161 -0.0644
 5576TIP3    H138143   1.913   5.323   3.762 -0.9688 -1.1486  0.5511
 5576TIP3    H238144   1.967   5.310   3.902 -0.2517 -0.0725  0.3908
 5577TIP3   OH238145   3.825   0.063  14.655 -0.0459 -0.6391 -0.1623
 5577TIP3    H138146   3.752   0.037  14.599 -0.5892  1.6561 -0.5936
 5577TIP3    H238147   3.896   0.084  14.594 -0.1069  0.3115  0.0836
 5578TIP3   OH238148   3.474   3.179  15.212 -0.5645 -0.0456  0.1627
 5578TIP3    H138149   3.567   3.180  15.235 -0.4491 -0.2745 -0.2871
 5578TIP3    H238150   3.432   3.127  15.281 -0.5546  1.0865  1.0668
 5579TIP3   OH238151   0.761   0.864   1.147  0.1142 -0.6933 -0.4754
 5579TIP3    H138152   0.823   0.883   1.218 -0.1283 -0.5321 -0.3094
 5579TIP3    H238153   0.769   0.769   1.134 -0.4778 -0.8595  0.3533
 5580TIP3   OH238154   1.927   5.969   2.050  0.1888 -0.3698  0.3976
 5580TIP3    H138155   1.924   5.918   1.969 -2.3486 -0.1906  0.2756
 5580TIP3    H238156   1.974   6.049   2.028  0.9229 -1.0176 -0.4371
 5581TIP3   OH238157   3.799   6.618   2.965 -0.0623 -0.1900  0.1235
 5581TIP3    H138158   3.875   6.653   2.919 -1.8759  1.0534 -2.1529
 5581TIP3    H238159   3.731   6.685   2.955 -3.0491 -3.1933 -2.5236
 5582TIP3   OH238160   4.709   6.134  10.320 -0.2853 -0.7728  0.3539
 5582TIP3    H138161   4.705   6.220  10.361 -1.1164  0.2211 -1.6163
 5582TIP3    H238162   4.686   6.072  10.389  2.1903  0.3376  2.3148
 5583TIP3   OH238163   1.757   2.634  10.451  0.3207  0.1146 -0.2690
 5583TIP3    H138164   1.753   2.548  10.409  0.4697 -0.5282  0.9914
 5583TIP3    H238165   1.728   2.695  10.383  0.1468 -0.9339 -1.1647
 5584TIP3   OH238166   5.444   6.472  16.127  0.0548  0.4749  0.4428
 5584TIP3    H138167   5.424   6.546  16.070 -1.5342 -0.3964 -0.2138
 5584TIP3    H238168   5.458   6.511  16.213 -1.9614  1.4929  0.3767
 5585TIP3   OH238169   1.145   3.504  12.407 -0.2739 -0.6442  0.3213
 5585TIP3    H138170   1.191   3.537  12.485 -0.3046 -0.2401  0.1731
 5585TIP3    H238171   1.176   3.414  12.397  2.4352  0.3223 -1.2105
 5586TIP3   OH238172   5.122   3.055   4.336  0.0266  0.2357  0.4848
 5586TIP3    H138173   5.194   3.022   4.389  1.0640  1.6509 -0.0049
 5586TIP3    H238174   5.137   3.017   4.249  1.9001  2.7594 -0.4034
 5587TIP3   OH238175   4.918   6.889   4.127 -0.0810 -0.3932 -0.2398
 5587TIP3    H138176   4.925   6.827   4.054  0.0826 -1.0121  0.2886
 5587TIP3    H238177   4.918   6.975   4.086 -2.4062 -0.7647 -1.1693
 5588TIP3   OH238178   2.046   3.506  15.284 -0.2270 -0.4608 -0.7618
 5588TIP3    H138179   2.141   3.514  15.288 -0.0920 -1.4303 -1.6883
 5588TIP3    H238180   2.018   3.577  15.227  0.0213 -0.5970 -1.0590
 5589TIP3   OH238181   6.114   4.512  11.696  0.1565 -0.1897 -0.1822
 5589TIP3    H138182   6.108   4.569  11.773  0.6411 -0.8174  0.3319
 5589TIP3    H238183   6.052   4.549  11.634  0.2833  0.7563  0.2373
 5590TIP3   OH238184   5.507   1.284   4.360 -0.2988  0.3771  0.1013
 5590TIP3    H138185   5.489   1.377   4.348 -1.0730  0.2451  0.1869
 5590TIP3    H238186   5.470   1.263   4.446 -0.1410 -0.0062  0.0758
 5591TIP3   OH238187   2.826   3.290  10.734 -0.8410  0.3349 -0.6264
 5591TIP3    H138188   2.877   3.371  10.746 -1.0530  0.6372 -1.6491
 5591TIP3    H238189   2.882   3.221  10.770 -0.7267  0.9430  0.4111
 5592TIP3   OH238190   4.772   6.687  12.856 -0.0099 -0.1852 -0.2512
 5592TIP3    H138191   4.725   6.653  12.932  1.3639 -1.7245 -0.0295
 5592TIP3    H238192   4.755   6.781  12.857 -1.5855 -0.4358  0.8312
 5593TIP3   OH238193   0.846   0.354  11.377 -0.4829  0.0829  0.3193
 5593TIP3    H138194   0.809   0.389  11.458  0.5929 -0.9481  1.2933
 5593TIP3    H238195   0.839   0.259  11.386  2.0589 -0.1649  0.4581
 5594TIP3   OH238196   1.268   5.995  15.353  0.0687 -0.7099 -0.1286
 5594TIP3    H138197   1.173   5.989  15.344 -0.1177  0.4142  0.7986
 5594TIP3    H238198   1.299   5.906  15.337 -1.4224 -1.8072  2.3379
 5595TIP3   OH238199   5.635   1.935  15.107 -0.4703  0.1377  0.2480
 5595TIP3    H138200   5.591   2.000  15.053  0.1559  0.4073  0.0534
 5595TIP3    H238201   5.725   1.934  15.075 -0.5147 -0.9641  0.1197
 5596TIP3   OH238202   3.772   1.812  12.313 -0.4362 -0.5357 -0.7229
 5596TIP3    H138203   3.719   1.818  12.234 -0.1716 -1.9915 -1.0421
 5596TIP3    H238204   3.727   1.746  12.367  0.5527 -1.1493 -0.6178
 5597TIP3   OH238205   6.249   4.953   3.631  0.4170 -0.1364  0.1914
 5597TIP3    H138206   6.333   4.930   3.670  0.2141  0.2037  0.8520
 5597TIP3    H238207   6.257   5.046   3.610  1.0014 -0.6088 -1.8503
 5598TIP3   OH238208   4.668   5.758  15.468  0.2760 -0.1303 -0.1197
 5598TIP3    H138209   4.576   5.785  15.472  0.1940 -0.2605 -1.0007
 5598TIP3    H238210   4.664   5.665  15.445  0.6107 -0.3843  0.8027
 5599TIP3   OH238211   2.897   0.468  16.519  0.1356  0.4564  0.2307
 5599TIP3    H138212   2.954   0.407  16.471 -0.9272 -0.1153 -0.3459
 5599TIP3    H238213   2.935   0.555  16.501 -0.3679  0.3040 -1.9549
 5600TIP3   OH238214   3.363   6.582  13.976  0.0843  0.5909 -0.1898
 5600TIP3    H138215   3.285   6.627  14.009 -0.0820  0.5188 -0.4901
 5600TIP3    H238216   3.389   6.525  14.049  0.4306  1.3343  0.2837
 5601TIP3   OH238217   6.078   4.634   4.442 -0.1255 -0.1906  0.0308
 5601TIP3    H138218   6.133   4.676   4.375 -0.2681 -1.8193 -1.1630
 5601TIP3    H238219   6.035   4.562   4.396  1.0862 -2.4706  2.2466
 5602TIP3   OH238220   3.317   2.759   0.099 -0.1917  0.2772  0.0689
 5602TIP3    H138221   3.361   2.673   0.102 -0.2644  0.2281 -0.3137
 5602TIP3    H238222   3.359   2.809   0.169  0.4348  0.2093 -0.2545
 5603TIP3   OH238223   4.239   2.922   6.000  0.5014  0.0821 -0.2145
 5603TIP3    H138224   4.202   2.838   5.974 -2.7908  0.3331  2.8940
 5603TIP3    H238225   4.296   2.901   6.074 -0.5648  0.5380  0.7643
 5604TIP3   OH238226   0.869   6.377  12.835  0.0663 -0.4184 -0.1923
 5604TIP3    H138227   0.923   6.333  12.770 -1.0911 -0.9296 -0.8288
 5604TIP3    H238228   0.826   6.448  12.787 -1.6676 -1.4825 -0.3112
 5605TIP3   OH238229   4.380   5.410  11.224  0.4740 -0.1337 -0.7649
 5605TIP3    H138230   4.422   5.364  11.152  0.3579 -0.8685 -0.3672
 5605TIP3    H238231   4.375   5.346  11.295  0.0336  0.3920 -0.3073
 5606TIP3   OH238232   5.318   0.229   2.161 -0.1126 -0.2699 -0.5794
 5606TIP3    H138233   5.234   0.237   2.117 -1.8592 -0.5233  2.4190
 5606TIP3    H238234   5.309   0.283   2.240  1.8567 -1.6886  0.7013
 5607TIP3   OH238235   4.199   2.449  10.447  0.3289 -0.0806  0.1252
 5607TIP3    H138236   4.139   2.506  10.398  0.7023 -1.4370 -2.0182
 5607TIP3    H238237   4.231   2.387  10.382  1.7787 -1.2478  1.8851
 5608TIP3   OH238238   4.261   1.830  14.683  0.1796 -0.5490 -0.2346
 5608TIP3    H138239   4.257   1.838  14.778 -1.0731 -0.0613 -0.3197
 5608TIP3    H238240   4.220   1.746  14.664  0.2105 -0.5348 -0.3673
 5609TIP3   OH238241   2.807   0.705   0.749  0.0778 -0.6831 -0.3286
 5609TIP3    H138242   2.870   0.762   0.704  0.3051 -0.2870  0.4578
 5609TIP3    H238243   2.721   0.733   0.717  0.2610 -0.7263 -0.8595
 5610TIP3   OH238244   6.766   5.682   1.678  0.1836 -0.0785  0.2342
 5610TIP3    H138245   6.784   5.663   1.770 -0.3667  2.1888  0.8707
 5610TIP3    H238246   6.673   5.663   1.667  0.3491 -0.7889 -0.0013
 5611TIP3   OH238247   5.630   2.280   5.897  0.3752 -0.0197 -0.7480
 5611TIP3    H138248   5.551   2.236   5.865  0.9318 -0.1909 -1.9163
 5611TIP3    H238249   5.681   2.211   5.938 -0.1164  0.1134  0.1239
 5612TIP3   OH238250   1.768   5.694  12.947  0.4936 -0.6847 -0.0468
 5612TIP3    H138251   1.801   5.674  12.860 -0.4934 -1.4558 -0.2654
 5612TIP3    H238252   1.810   5.630  13.004 -0.7142 -1.7954 -0.3545
 5613TIP3   OH238253   3.118   6.012  16.334  0.2789  0.0459  0.1188
 5613TIP3    H138254   3.188   5.953  16.305  0.4826  0.4658 -0.2545
 5613TIP3    H238255   3.040   5.956  16.337  0.3998 -0.1745 -0.5530
 5614TIP3   OH238256   0.450   3.938  15.427  0.0220 -0.1016 -0.3031
 5614TIP3    H138257   0.541   3.914  15.409 -0.3040 -1.6217 -0.0250
 5614TIP3    H238258   0.456   4.024  15.470  1.1366  1.1126 -2.7067
 5615TIP3   OH238259   2.798   1.983   4.691 -0.6436  0.6523 -0.1025
 5615TIP3    H138260   2.722   2.020   4.736 -0.6812  1.0343 -0.4856
 5615TIP3    H238261   2.838   2.056   4.645  0.4362  0.6234  0.7525
 5616TIP3   OH238262   3.901   1.586  13.336 -0.0208 -0.1943 -0.0730
 5616TIP3    H138263   3.956   1.520  13.295 -0.3014  0.8734 -2.2986
 5616TIP3    H238264   3.955   1.665  13.338 -0.0218 -0.1822  1.7019
 5617TIP3   OH238265   0.074   0.191   4.417 -0.1171  0.8552  0.2492
 5617TIP3    H138266   0.005   0.137   4.378 -0.4341  2.3762 -1.4321
 5617TIP3    H238267   0.093   0.149   4.501 -1.9633 -0.5139  0.0411
 5618TIP3   OH238268   4.481   2.765   1.827 -0.6517  0.0779  0.0391
 5618TIP3    H138269   4.471   2.852   1.789 -0.8753  0.3200  0.6555
 5618TIP3    H238270   4.430   2.708   1.769  0.5440  0.1318 -1.1296
 5619TIP3   OH238271   4.268   1.340   5.791 -0.4731  0.3246 -0.0809
 5619TIP3    H138272   4.234   1.428   5.809 -0.1955  0.2333  0.9934
 5619TIP3    H238273   4.211   1.306   5.723 -1.9821  0.5194  1.0365
 5620TIP3   OH238274   3.386   6.426   5.623 -0.5385 -0.5915  0.2206
 5620TIP3    H138275   3.329   6.373   5.567  0.1814  0.4683 -1.5789
 5620TIP3    H238276   3.428   6.487   5.563  1.2931 -0.2867  1.7472
 5621TIP3   OH238277   3.816   5.883   1.132 -0.3540 -0.2130 -0.0008
 5621TIP3    H138278   3.751   5.950   1.155 -1.3042 -0.7456 -1.0309
 5621TIP3    H238279   3.894   5.906   1.183 -0.3457  2.2099 -0.9682
 5622TIP3   OH238280   4.404   5.348  10.388  0.3894  0.2669  0.6054
 5622TIP3    H138281   4.413   5.403  10.311 -1.9869 -0.2484 -0.1344
 5622TIP3    H238282   4.380   5.409  10.458  0.5332  0.4922  0.4591
 5623TIP3   OH238283   3.256   5.016  14.595 -0.3645 -0.0229  0.7989
 5623TIP3    H138284   3.200   4.960  14.542 -0.9516  1.4124 -0.1460
 5623TIP3    H238285   3.330   4.960  14.618 -1.2045 -1.3545  0.3920
 5624TIP3   OH238286   6.893   5.844  12.318 -0.3772 -0.0192  0.0691
 5624TIP3    H138287   6.926   5.882  12.237 -3.0629  1.0962 -0.5862
 5624TIP3    H238288   6.952   5.771  12.336  1.5922  1.0450 -1.6692
 5625TIP3   OH238289   6.667   2.692   5.280  0.0820  0.5372  0.5998
 5625TIP3    H138290   6.665   2.785   5.302  1.5112  0.5543  0.7975
 5625TIP3    H238291   6.727   2.654   5.344 -0.7329 -0.5944  0.7335
 5626TIP3   OH238292   4.724   1.012   4.419 -0.4689 -0.2350  0.1285
 5626TIP3    H138293   4.773   1.077   4.368 -0.1079  0.2747  1.1002
 5626TIP3    H238294   4.738   0.930   4.372 -1.5945  0.4886 -1.5937
 5627TIP3   OH238295   6.829   6.704  12.519  0.5094  0.3375  0.1496
 5627TIP3    H138296   6.777   6.766  12.469  0.3568 -0.7556 -1.1018
 5627TIP3    H238297   6.777   6.623  12.518  0.4223  0.3109  2.2246
 5628TIP3   OH238298   1.815   1.867  11.309  0.1988 -0.9859 -0.2865
 5628TIP3    H138299   1.768   1.873  11.392  0.3621  0.2833 -0.2545
 5628TIP3    H238300   1.765   1.803  11.258 -0.8476 -0.5933  0.1987
 5629TIP3   OH238301   0.409   4.878  12.280  0.0192  0.1174  0.3325
 5629TIP3    H138302   0.322   4.854  12.248 -0.1445 -0.2112  1.0073
 5629TIP3    H238303   0.452   4.794  12.297  0.2746  0.2827  0.5116
 5630TIP3   OH238304   5.342   4.829   1.996 -0.1097 -0.5980  0.3176
 5630TIP3    H138305   5.260   4.781   1.987 -1.4761  1.5462  0.5014
 5630TIP3    H238306   5.408   4.772   1.956 -1.6722 -2.3628  0.1031
 5631TIP3   OH238307   3.293   5.109  11.970 -0.6910  0.0143 -0.3661
 5631TIP3    H138308   3.214   5.158  11.948 -0.5046 -0.2985 -1.9100
 5631TIP3    H238309   3.365   5.170  11.950 -0.5013  0.8534  2.4683
 5632TIP3   OH238310   3.834   0.897   4.197  0.1984 -0.0030  0.0723
 5632TIP3    H138311   3.835   0.863   4.108 -0.5979  0.3443 -0.0808
 5632TIP3    H238312   3.743   0.923   4.212  0.6707  1.6629  0.3266
 5633TIP3   OH238313   5.467   4.313   2.956 -0.3071 -0.2316  0.4432
 5633TIP3    H138314   5.532   4.383   2.945 -1.9392  1.2908  0.0837
 5633TIP3    H238315   5.519   4.235   2.974  1.7006  0.6124 -1.2926
 5634TIP3   OH238316   6.061   2.903  11.938 -0.2644  0.1494 -0.2136
 5634TIP3    H138317   6.055   2.998  11.928  1.8348  0.3623  0.1575
 5634TIP3    H238318   6.057   2.889  12.033  0.0805 -0.0720 -0.2293
 5635TIP3   OH238319   1.472   3.170   4.630 -0.2144  0.3820 -0.7401
 5635TIP3    H138320   1.449   3.263   4.639 -2.0059 -0.0154 -0.9252
 5635TIP3    H238321   1.433   3.143   4.547 -0.0292 -0.6363 -0.5079
 5636TIP3   OH238322   0.694   0.666  13.166 -0.0362  0.4145 -0.0176
 5636TIP3    H138323   0.686   0.708  13.252 -2.1313 -1.3039  0.7372
 5636TIP3    H238324   0.607   0.677  13.126  0.4566 -0.1022 -1.2875
 5637TIP3   OH238325   6.223   5.540   2.605  0.3463  0.0135  0.2298
 5637TIP3    H138326   6.315   5.515   2.600  0.9003  1.9512 -0.1514
 5637TIP3    H238327   6.220   5.607   2.673 -0.3916  1.4419 -1.1462
 5638TIP3   OH238328   1.837   3.352  13.573 -0.0390 -0.0468 -0.2784
 5638TIP3    H138329   1.798   3.391  13.495  1.1771  2.6155  0.3581
 5638TIP3    H238330   1.762   3.317  13.622 -0.9074 -0.8928 -2.0945
 5639TIP3   OH238331   0.284   2.095  12.221 -0.5385  0.0054  0.3210
 5639TIP3    H138332   0.304   2.158  12.152  1.0009 -0.0369  0.6767
 5639TIP3    H238333   0.312   2.010  12.184 -1.1769 -0.2465  0.4095
 5640TIP3   OH238334   2.446   4.530   1.492  0.3045 -0.5244 -0.2102
 5640TIP3    H138335   2.357   4.565   1.496 -0.2756 -1.9416 -0.1331
 5640TIP3    H238336   2.502   4.604   1.514 -0.9341  0.0878  1.0282
 5641TIP3   OH238337   5.728   1.896   1.703  0.0528  0.2890  0.0535
 5641TIP3    H138338   5.665   1.887   1.775 -0.1955  0.5061 -0.1330
 5641TIP3    H238339   5.686   1.958   1.643  0.7219  0.9454  0.2411
 5642TIP3   OH238340   6.292   0.900  12.537  0.2223 -0.0484 -0.1110
 5642TIP3    H138341   6.224   0.836  12.515  2.0376 -3.2266  2.5070
 5642TIP3    H238342   6.244   0.974  12.574 -1.8933 -2.1457  1.6571
 5643TIP3   OH238343   0.487   4.772   2.130  0.4188 -0.3257  0.0465
 5643TIP3    H138344   0.572   4.810   2.154  0.3923 -0.8838  1.0804
 5643TIP3    H238345   0.509   4.691   2.085  0.4538  0.4521 -1.4184
 5644TIP3   OH238346   2.177   0.881   5.542  0.6444 -0.2476 -0.2744
 5644TIP3    H138347   2.099   0.926   5.509 -0.0956 -2.1366 -1.2839
 5644TIP3    H238348   2.172   0.794   5.503  1.8190 -1.3265  1.7971
 5645TIP3   OH238349   4.975   1.624  15.911 -0.4648 -0.2220 -0.4684
 5645TIP3    H138350   4.994   1.718  15.916 -1.5446 -0.0264  0.3302
 5645TIP3    H238351   4.927   1.605  15.991 -1.3863 -1.1884 -1.2229
 5646TIP3   OH238352   0.826   2.806  13.543 -0.4736 -0.2172 -0.1621
 5646TIP3    H138353   0.736   2.793  13.572 -0.2361 -1.5818  0.0499
 5646TIP3    H238354   0.878   2.802  13.624 -0.2985  1.6493 -0.1504
 5647TIP3   OH238355   5.464   3.402   3.990 -0.5806 -0.3862  0.3895
 5647TIP3    H138356   5.483   3.489   4.025  0.7753 -0.1883 -0.7240
 5647TIP3    H238357   5.370   3.391   4.003 -0.7526  1.1586  0.7273
 5648TIP3   OH238358   1.902   6.149  12.800 -0.0395 -0.7912 -0.1920
 5648TIP3    H138359   1.985   6.108  12.823  0.6431 -0.2116 -1.4891
 5648TIP3    H238360   1.862   6.089  12.739  0.5817  0.0282 -1.4539
 5649TIP3   OH238361   1.399   1.363  10.099  0.3513 -0.1831 -0.0531
 5649TIP3    H138362   1.426   1.290  10.045 -0.0425  0.3331 -0.9679
 5649TIP3    H238363   1.316   1.392  10.062  1.1033  1.5124 -0.5077
 5650TIP3   OH238364   1.734   3.013  15.309 -0.2016 -0.2258 -0.1368
 5650TIP3    H138365   1.780   2.954  15.368 -0.4056  0.2049  0.4630
 5650TIP3    H238366   1.767   3.100  15.330 -0.9104  0.0319 -0.0400
 5651TIP3   OH238367   2.581   4.018  13.919 -0.7676  0.1827  0.6016
 5651TIP3    H138368   2.511   3.953  13.924  0.1243 -1.1182 -1.8867
 5651TIP3    H238369   2.540   4.095  13.880 -1.3007  0.3012  1.3677
 5652TIP3   OH238370   2.611   6.159  15.253  0.1890 -0.7020  0.1734
 5652TIP3    H138371   2.572   6.168  15.339  1.2617 -0.7837  0.6810
 5652TIP3    H238372   2.536   6.152  15.193 -0.5697  0.2278  0.9853
 5653TIP3   OH238373   0.338   2.081   0.860  0.1183 -0.4397  1.0730
 5653TIP3    H138374   0.418   2.073   0.912  0.1272 -0.1513  1.1009
 5653TIP3    H238375   0.306   2.169   0.877  1.6759  0.7587 -1.6446
 5654TIP3   OH238376   3.581   5.471   4.211  0.3460  0.0948  0.0450
 5654TIP3    H138377   3.610   5.475   4.302  1.6121 -0.7260 -0.3009
 5654TIP3    H238378   3.550   5.382   4.200 -0.1756  0.3072 -0.2289
 5655TIP3   OH238379   4.437   0.959  11.739 -0.2111  0.1505  0.2050
 5655TIP3    H138380   4.471   0.932  11.654  1.2316  1.0277  0.4585
 5655TIP3    H238381   4.346   0.982  11.723  0.0567  0.3525 -1.1231
 5656TIP3   OH238382   3.419   1.217   4.536 -0.2896  0.0722  0.1194
 5656TIP3    H138383   3.442   1.212   4.444 -1.4626  1.2695 -0.2631
 5656TIP3    H238384   3.335   1.262   4.538  0.3232  1.2586  1.8594
 5657TIP3   OH238385   0.609   6.687  11.543  0.3926  0.0457 -0.7110
 5657TIP3    H138386   0.520   6.656  11.531  0.0413  0.7414 -0.0196
 5657TIP3    H238387   0.600   6.781  11.559  1.3540  0.3609 -1.9111
 5658TIP3   OH238388   5.505   1.993  11.877  0.1830 -0.1251  0.4431
 5658TIP3    H138389   5.481   1.919  11.932  0.1337  0.8834  1.8216
 5658TIP3    H238390   5.510   1.956  11.789  3.5529 -2.5800  1.4499
 5659TIP3   OH238391   6.086   3.302  15.818 -0.1272  0.1845 -0.4195
 5659TIP3    H138392   6.034   3.288  15.897 -0.5264  0.1086 -0.6966
 5659TIP3    H238393   6.176   3.282  15.846 -0.0808  1.3231  0.3318
 5660TIP3   OH238394   3.296   0.930   2.185 -0.2327  0.6867  0.2727
 5660TIP3    H138395   3.324   0.842   2.161 -1.3613  0.5630 -0.7249
 5660TIP3    H238396   3.353   0.955   2.257  0.7147 -0.4991 -0.0327
 5661TIP3   OH238397   5.433   3.714  16.689  0.1689 -0.0701 -0.2297
 5661TIP3    H138398   5.349   3.726  16.735  0.4496 -2.1204  0.8874
 5661TIP3    H238399   5.492   3.678  16.755  1.4968 -0.1305 -1.4144
 5662TIP3   OH238400   2.308   1.276   0.094 -0.4858 -0.4592 -0.3011
 5662TIP3    H138401   2.213   1.266   0.080 -0.3728  1.4563 -3.4982
 5662TIP3    H238402   2.348   1.226   0.023  0.9974 -1.8597  1.4459
 5663TIP3   OH238403   2.590   5.092  12.066  0.3065  0.3469  0.6564
 5663TIP3    H138404   2.581   5.052  12.153 -0.0263 -2.3593 -0.5330
 5663TIP3    H238405   2.560   5.025  12.005  3.7536  0.7888 -1.8281
 5664TIP3   OH238406   3.588   2.081   0.429  0.4222  0.0668  0.9699
 5664TIP3    H138407   3.520   2.064   0.494  0.3670  0.4905  1.0274
 5664TIP3    H238408   3.589   2.003   0.374 -1.0865  0.6386  0.0933
 5665TIP3   OH238409   4.122   6.246   2.341  0.2412  0.3734  0.1380
 5665TIP3    H138410   4.162   6.219   2.424 -1.2464 -2.2178  0.1225
 5665TIP3    H238411   4.145   6.176   2.279  0.9905  2.0607 -1.5853
 5666TIP3   OH238412   0.178   5.896  14.054 -0.1224  0.0756  0.2226
 5666TIP3    H138413   0.093   5.935  14.074  0.3519  0.8807  0.7292
 5666TIP3    H238414   0.190   5.910  13.960  0.2742  1.6655  0.4844
 5667TIP3   OH238415   6.209   0.663  15.577  0.6055  0.3556 -0.1413
 5667TIP3    H138416   6.222   0.639  15.485 -0.4046 -0.6554 -0.0436
 5667TIP3    H238417   6.297   0.684  15.609  0.9691  0.7259 -1.3305
 5668TIP3   OH238418   2.413   3.348  15.274 -0.3415  1.0440 -0.2976
 5668TIP3    H138419   2.381   3.388  15.355  0.1750  1.5869 -0.3518
 5668TIP3    H238420   2.509   3.351  15.282 -0.2670  1.8906 -1.2892
 5669TIP3   OH238421   4.457   4.092  12.467  0.3296 -0.8160  0.8007
 5669TIP3    H138422   4.398   4.147  12.415  1.3401 -1.1214 -0.7207
 5669TIP3    H238423   4.499   4.154  12.528  1.2262  0.0935 -0.6795
 5670TIP3   OH238424   1.877   2.223   2.976  0.3296  0.5214 -0.6900
 5670TIP3    H138425   1.848   2.220   2.885  1.6944  1.4732 -1.1909
 5670TIP3    H238426   1.912   2.135   2.993  0.0176  0.3230 -1.0418
 5671TIP3   OH238427   2.339   0.520  13.117  0.0287  0.4508  0.3714
 5671TIP3    H138428   2.296   0.434  13.113 -0.8793  0.8447  1.3041
 5671TIP3    H238429   2.276   0.576  13.162  1.3443  1.1627  1.3732
 5672TIP3   OH238430   4.093   0.332  11.107  0.3252  0.5582 -0.5063
 5672TIP3    H138431   4.144   0.260  11.141 -0.4029  0.0076 -0.5536
 5672TIP3    H238432   4.081   0.391  11.181  1.1993  0.7969 -0.5504
 5673TIP3   OH238433   4.916   3.880   2.699 -0.4035 -0.2341  0.6509
 5673TIP3    H138434   4.894   3.836   2.782  0.3664 -2.1411 -0.1141
 5673TIP3    H238435   4.884   3.820   2.631 -0.3493  0.9535 -0.4508
 5674TIP3   OH238436   0.369   3.156  12.026  0.2511 -0.1903 -0.0088
 5674TIP3    H138437   0.294   3.186  12.079 -0.3035 -1.9375  0.2580
 5674TIP3    H238438   0.414   3.093  12.082 -0.1486 -1.8222 -1.4482
 5675TIP3   OH238439   1.747   5.508  15.033 -0.1367  0.5394 -0.6516
 5675TIP3    H138440   1.712   5.511  14.944 -0.3744 -0.0291 -0.5840
 5675TIP3    H238441   1.793   5.591  15.045  0.4599  0.3456 -1.5361
 5676TIP3   OH238442   2.353   5.852  11.641  0.1155 -0.1172 -0.5753
 5676TIP3    H138443   2.263   5.881  11.628 -0.2877 -0.7052  0.7247
 5676TIP3    H238444   2.399   5.930  11.671 -0.8215 -0.5529  2.2916
 5677TIP3   OH238445   5.485   2.709   1.875 -0.0347 -0.4031 -0.1254
 5677TIP3    H138446   5.412   2.730   1.932  0.0027  0.8653 -0.5122
 5677TIP3    H238447   5.447   2.655   1.805 -0.3634 -0.7185  0.2940
 5678TIP3   OH238448   2.961   4.171  11.074 -0.6794  0.0507  0.0052
 5678TIP3    H138449   2.927   4.159  10.986 -0.0311 -0.8231 -0.1308
 5678TIP3    H238450   3.041   4.119  11.077 -0.6086  0.1921  1.0601
 5679TIP3   OH238451   0.644   6.451  11.213 -0.4921  0.1449 -0.3534
 5679TIP3    H138452   0.670   6.415  11.298 -0.4998  0.1488 -0.3489
 5679TIP3    H238453   0.682   6.539  11.212 -1.6102  0.6500  0.2046
 5680TIP3   OH238454   2.050   0.501   0.856  0.5108  0.3100 -0.5570
 5680TIP3    H138455   2.008   0.454   0.784  1.3501 -0.9934 -0.2393
 5680TIP3    H238456   2.021   0.454   0.935 -0.1883  1.5525 -0.0528
 5681TIP3   OH238457   0.431   0.811   2.868 -0.0376  0.6661  0.4220
 5681TIP3    H138458   0.414   0.883   2.928  1.0672  1.0026  0.3484
 5681TIP3    H238459   0.347   0.795   2.825 -0.1288  2.4224 -0.1209
 5682TIP3   OH238460   3.470   0.945  10.996 -0.5860  0.3898 -0.3366
 5682TIP3    H138461   3.444   0.856  11.021 -1.0922  0.2294 -1.3903
 5682TIP3    H238462   3.451   0.998  11.074  0.1571 -0.4787  0.4719
 5683TIP3   OH238463   4.558   1.518   1.414 -0.0172  0.4050  0.1260
 5683TIP3    H138464   4.640   1.544   1.455 -0.6372  1.2200  0.9017
 5683TIP3    H238465   4.557   1.566   1.331  0.5013  0.0076 -0.1178
 5684TIP3   OH238466   5.526   2.426  11.395  0.7380 -0.4116 -0.0937
 5684TIP3    H138467   5.592   2.373  11.351  0.8523 -0.1596 -0.2308
 5684TIP3    H238468   5.569   2.510  11.409  0.4924 -0.2924 -0.0596
 5685TIP3   OH238469   4.561   0.181   4.353  0.3033 -0.1743 -0.1257
 5685TIP3    H138470   4.535   0.121   4.424  2.2122 -0.3088  0.5064
 5685TIP3    H238471   4.630   0.235   4.392 -1.3845  2.5373 -0.6448
 5686TIP3   OH238472   1.195   1.643   4.648 -0.3669  0.0191 -0.4318
 5686TIP3    H138473   1.287   1.624   4.665 -0.7325 -0.9693  0.5176
 5686TIP3    H238474   1.148   1.604   4.721 -1.5528  0.5371 -0.8854
 5687TIP3   OH238475   4.062   2.376   1.484  0.4221  0.4551  0.1246
 5687TIP3    H138476   3.983   2.426   1.464 -0.3425 -0.4830  0.7203
 5687TIP3    H238477   4.065   2.373   1.580  0.1840 -1.0210  0.1097
 5688TIP3   OH238478   5.308   2.195  12.647 -0.0957 -0.3426 -0.0967
 5688TIP3    H138479   5.215   2.179  12.629 -0.2487  0.0383  0.3408
 5688TIP3    H238480   5.309   2.276  12.698  0.5221 -0.0390 -0.5787
 5689TIP3   OH238481   2.997   2.046   5.047  0.1161 -0.2505  0.3082
 5689TIP3    H138482   3.012   2.133   5.011  2.1462 -0.7191 -0.0712
 5689TIP3    H238483   2.994   2.059   5.141  3.6897 -0.0871  0.5271
 5690TIP3   OH238484   3.207   5.286  14.445  0.1672 -0.3169  0.2406
 5690TIP3    H138485   3.137   5.223  14.467 -1.9809  1.6889 -0.4906
 5690TIP3    H238486   3.161   5.365  14.418  2.7278  2.1218  2.4252
 5691TIP3   OH238487   2.528   2.698   3.225 -0.2893  0.2901  0.3565
 5691TIP3    H138488   2.601   2.639   3.245 -0.3719  0.5526  1.5245
 5691TIP3    H238489   2.522   2.698   3.130  2.0191  1.2032  0.1472
 5692TIP3   OH238490   3.349   2.517  11.369  0.6954 -0.6371 -0.0913
 5692TIP3    H138491   3.329   2.531  11.461  2.1028 -1.4393  0.3664
 5692TIP3    H238492   3.369   2.604  11.335 -2.4427  0.0860 -0.3665
 5693TIP3   OH238493   5.594   3.758   3.290  0.3749 -0.1802 -0.0026
 5693TIP3    H138494   5.580   3.800   3.205 -1.1605 -1.4927 -0.4477
 5693TIP3    H238495   5.630   3.672   3.269  2.4364  0.4108  0.8439
 5694TIP3   OH238496   6.788   0.766   4.222  0.4228  0.0792  0.7341
 5694TIP3    H138497   6.788   0.746   4.129  0.4227  3.0254  0.0099
 5694TIP3    H238498   6.754   0.687   4.264 -1.4458 -0.6448 -1.9274
 5695TIP3   OH238499   4.665   0.076   1.766 -0.1580  0.4470 -0.4057
 5695TIP3    H138500   4.615   0.025   1.702 -1.4549  2.2557 -0.9236
 5695TIP3    H238501   4.718   0.136   1.714  0.4328  0.4574  0.1943
 5696TIP3   OH238502   0.078   4.267   1.558  0.4207  0.3927  0.1523
 5696TIP3    H138503  -0.003   4.258   1.609  1.1815 -0.8724  1.1949
 5696TIP3    H238504   0.053   4.239   1.470  0.1554 -2.0085  0.9227
 5697TIP3   OH238505   6.152   1.994   0.871  0.6140 -0.0582 -0.2240
 5697TIP3    H138506   6.201   1.939   0.933  0.8374 -0.2543 -0.5717
 5697TIP3    H238507   6.185   2.082   0.886 -0.5745  0.1994  1.1677
 5698TIP3   OH238508   5.136   6.168  12.516  0.3397  0.1010  0.2831
 5698TIP3    H138509   5.221   6.166  12.560  0.7263  0.3576 -0.4294
 5698TIP3    H238510   5.125   6.260  12.489  0.6189 -0.2466 -1.0917
 5699TIP3   OH238511   3.629   1.842  10.355  0.1681 -0.3007  0.0309
 5699TIP3    H138512   3.653   1.833  10.263  0.1438 -0.6296  0.0546
 5699TIP3    H238513   3.536   1.862  10.354  0.2419  0.0406 -0.0281
 5700TIP3   OH238514   5.356   1.749   0.840  0.5750 -0.2757 -0.2913
 5700TIP3    H138515   5.406   1.679   0.882  1.2046 -0.1922 -0.8899
 5700TIP3    H238516   5.337   1.811   0.911  0.2680 -0.8981  0.1842
 5701TIP3   OH238517   4.904   1.087  11.293  0.2051  0.0198 -0.2592
 5701TIP3    H138518   4.902   1.138  11.375 -0.3555 -1.9433  1.0186
 5701TIP3    H238519   4.997   1.068  11.279  0.1414 -1.9133  1.4820
 5702TIP3   OH238520   1.743   2.592  11.266  0.3999  0.0264 -0.1733
 5702TIP3    H138521   1.808   2.522  11.266  0.9317  0.5056  0.4040
 5702TIP3    H238522   1.664   2.552  11.230  0.7155 -0.8461  0.0916
 5703TIP3   OH238523   2.169   1.846  12.610  0.3690 -0.4400  0.0828
 5703TIP3    H138524   2.246   1.796  12.637  0.6970  0.5886  1.1171
 5703TIP3    H238525   2.132   1.879  12.692 -0.8036 -0.3644 -0.4526
 5704TIP3   OH238526   2.096   6.495  14.180 -0.0561 -0.0649  0.1767
 5704TIP3    H138527   2.151   6.572  14.194  0.6237 -0.4676 -0.2084
 5704TIP3    H238528   2.042   6.489  14.259  2.4432 -1.2803  1.9343
 5705TIP3   OH238529   3.590   0.242   0.666 -0.0216 -0.1637 -0.7141
 5705TIP3    H138530   3.536   0.318   0.645  0.9895  1.5031  2.1204
 5705TIP3    H238531   3.541   0.195   0.733  1.3720  0.7293  1.0341
 5706TIP3   OH238532   2.919   1.232  14.702 -0.2762 -0.3990  0.4071
 5706TIP3    H138533   2.904   1.326  14.714  0.2556 -0.1834 -0.5492
 5706TIP3    H238534   2.860   1.191  14.766 -0.9258  0.5626  0.4629
 5707TIP3   OH238535   1.248   3.713  12.605  0.0447 -0.3409  0.1475
 5707TIP3    H138536   1.206   3.743  12.686 -1.3127 -3.2148  0.6113
 5707TIP3    H238537   1.340   3.702  12.629 -0.2590 -0.7628  1.1923
 5708TIP3   OH238538   3.770   3.698  12.920  0.1982  0.0161  0.4962
 5708TIP3    H138539   3.700   3.761  12.902  0.0115  0.3802  2.3764
 5708TIP3    H238540   3.725   3.620  12.953  0.5494 -0.5551 -0.3202
 5709TIP3   OH238541   2.808   6.879  16.190  0.0276  0.0151  0.0122
 5709TIP3    H138542   2.759   6.862  16.270 -0.3727  1.3693  0.0770
 5709TIP3    H238543   2.895   6.844  16.206  0.2242  1.0788  1.4005
 5710TIP3   OH238544   5.509   0.694   0.989  0.3351 -0.0355 -0.3137
 5710TIP3    H138545   5.482   0.659   1.074 -0.0535 -1.1491 -0.8802
 5710TIP3    H238546   5.545   0.780   1.009  2.3802 -1.1916  1.2659
 5711TIP3   OH238547   5.753   3.263   9.611 -0.2039  0.1611 -0.6234
 5711TIP3    H138548   5.817   3.219   9.555  0.7375  0.6066  0.0721
 5711TIP3    H238549   5.691   3.194   9.636 -0.2749 -0.1714 -1.6825
 5712TIP3   OH238550   4.736   5.639   1.240  0.8581 -0.2074 -0.4552
 5712TIP3    H138551   4.773   5.568   1.293 -1.0699 -1.5495 -0.7945
 5712TIP3    H238552   4.764   5.620   1.151 -0.8628 -1.4761 -0.7811
 5713TIP3   OH238553   6.866   0.530  15.157  0.0137 -0.1674  0.1720
 5713TIP3    H138554   6.803   0.496  15.220 -2.5310  0.8003 -1.6718
 5713TIP3    H238555   6.865   0.465  15.086 -0.7682  0.9663 -0.9139
 5714TIP3   OH238556   1.915   2.924  13.623 -0.4734  0.2201  0.2662
 5714TIP3    H138557   1.852   2.951  13.689 -0.0758 -3.7897  2.5577
 5714TIP3    H238558   1.867   2.862  13.568 -0.0133  1.4404 -1.6007
 5715TIP3   OH238559   5.394   1.730  13.193  0.7387  0.1081 -0.6734
 5715TIP3    H138560   5.413   1.768  13.107 -1.2506  1.1039 -0.7240
 5715TIP3    H238561   5.371   1.639  13.174 -0.5384  0.5448 -1.3433
 5716TIP3   OH238562   5.239   5.958   2.265  0.0194  0.2214 -0.8601
 5716TIP3    H138563   5.165   5.925   2.213 -0.5822  0.5146 -0.2011
 5716TIP3    H238564   5.316   5.914   2.228 -0.6154 -0.9578 -0.8016
 5717TIP3   OH238565   2.238   6.194  16.642  0.0090  0.1370  0.0844
 5717TIP3    H138566   2.190   6.112  16.654 -0.1699  0.1917 -0.2501
 5717TIP3    H238567   2.208   6.250  16.713 -1.2934  0.5751 -0.7653
 5718TIP3   OH238568   2.603   3.068  11.951  0.3179 -0.5907  0.5513
 5718TIP3    H138569   2.694   3.097  11.958  0.9628 -1.9651 -1.3849
 5718TIP3    H238570   2.606   2.973  11.964 -0.3204 -1.1373 -2.4917
 5719TIP3   OH238571   2.324   3.745   2.749 -0.2433  0.3304 -0.1754
 5719TIP3    H138572   2.352   3.804   2.679 -1.1223  0.8593 -0.0967
 5719TIP3    H238573   2.364   3.781   2.829 -2.1961  1.9240  0.1700
 5720TIP3   OH238574   6.365   4.006  15.171 -0.0491  0.3567  0.1795
 5720TIP3    H138575   6.384   3.916  15.143 -0.1137  0.3424  0.1829
 5720TIP3    H238576   6.335   3.998  15.261 -1.5912  0.2065 -0.3139
 5721TIP3   OH238577   6.624   1.240  14.350  0.6938 -0.7938 -0.2636
 5721TIP3    H138578   6.639   1.146  14.338 -1.2914 -1.3911  1.4084
 5721TIP3    H238579   6.591   1.248  14.440 -1.3444  1.2002 -1.0912
 5722TIP3   OH238580   4.855   3.123   1.491 -0.0223 -0.3258  0.2021
 5722TIP3    H138581   4.925   3.182   1.463  0.4872 -1.0231 -0.0201
 5722TIP3    H238582   4.829   3.156   1.577  0.1730  0.2915  0.0314
 5723TIP3   OH238583   2.209   3.680  13.901 -0.8025  0.0036 -0.8490
 5723TIP3    H138584   2.120   3.690  13.934 -0.8408 -0.2451 -0.8771
 5723TIP3    H238585   2.204   3.606  13.841 -0.2015 -1.2133  0.5333
 5724TIP3   OH238586   6.865   0.180   0.486 -0.0849  0.3411 -0.1407
 5724TIP3    H138587   6.855   0.234   0.407 -0.2121  0.3894 -0.0911
 5724TIP3    H238588   6.859   0.090   0.453 -2.1706  0.3621  0.0699
 5725TIP3   OH238589   1.201   0.348  12.173 -0.5142 -0.4058  0.4786
 5725TIP3    H138590   1.261   0.277  12.149 -0.9186 -0.2418 -1.0964
 5725TIP3    H238591   1.167   0.321  12.259  1.0849 -0.9502  0.9837
 5726TIP3   OH238592   1.805   4.926   5.819  0.7481  0.1779 -0.4143
 5726TIP3    H138593   1.787   4.928   5.913  1.0483 -0.4387 -0.3387
 5726TIP3    H238594   1.883   4.871   5.811 -0.1194 -0.9888 -1.1376
 5727TIP3   OH238595   6.128   4.730  13.773 -0.0933  0.0659 -0.4397
 5727TIP3    H138596   6.193   4.760  13.710 -1.2082  0.4857 -1.4232
 5727TIP3    H238597   6.143   4.784  13.851  0.2486  0.6624 -0.9142
 5728TIP3   OH238598   2.653   5.665  12.281  0.4982  0.2350 -0.5070
 5728TIP3    H138599   2.703   5.663  12.199  3.0106  0.8832  0.9184
 5728TIP3    H238600   2.708   5.619  12.344 -0.6956  1.0298  1.2018
 5729TIP3   OH238601   5.258   2.798  10.929  0.4214  0.4015  0.1900
 5729TIP3    H138602   5.259   2.852  11.007 -2.5303  0.3246  0.3880
 5729TIP3    H238603   5.199   2.726  10.950  1.0617 -0.6801 -1.4658
 5730TIP3   OH238604   2.297   1.685   5.323 -0.0900 -0.4541  0.3825
 5730TIP3    H138605   2.346   1.715   5.246  1.0392 -1.8994  0.4980
 5730TIP3    H238606   2.360   1.632   5.372 -1.1049 -0.4188  1.7766
 5731TIP3   OH238607   2.997   6.693  14.687 -1.0350 -0.0302  0.0472
 5731TIP3    H138608   2.905   6.703  14.711 -1.0721 -0.0706 -0.0752
 5731TIP3    H238609   3.042   6.671  14.769 -1.0120  0.7443  0.2430
 5732TIP3   OH238610   1.459   6.358  11.008  0.0026  0.1073  0.8586
 5732TIP3    H138611   1.469   6.299  11.083 -1.7961  0.2374  1.2581
 5732TIP3    H238612   1.417   6.304  10.941  0.9197  0.1998  0.1964
 5733TIP3   OH238613   4.294   3.357  13.777 -0.3535 -0.6017 -0.2596
 5733TIP3    H138614   4.256   3.327  13.860 -0.3239  0.6631  0.2297
 5733TIP3    H238615   4.331   3.277  13.738 -0.8997 -1.3271  0.6477
 5734TIP3   OH238616   5.094   4.464  12.606  0.5111 -0.2784 -0.1062
 5734TIP3    H138617   5.122   4.440  12.517  1.2110  0.0157  0.0307
 5734TIP3    H238618   5.033   4.537  12.593  1.6269  0.6516 -0.2844
 5735TIP3   OH238619   0.420   0.087  13.480  0.4064 -0.8320  0.0684
 5735TIP3    H138620   0.428   0.174  13.440 -2.0010 -0.6112 -0.0501
 5735TIP3    H238621   0.510   0.054  13.482  1.3803  1.5949  0.0120
 5736TIP3   OH238622   5.401   0.092   2.494 -0.1450 -0.3252  0.4167
 5736TIP3    H138623   5.457   0.073   2.570 -0.2033 -1.0231  0.2932
 5736TIP3    H238624   5.450   0.060   2.419 -1.0411 -1.7146  0.3855
 5737TIP3   OH238625   5.849   1.755   4.785 -0.8748  0.4570 -0.0542
 5737TIP3    H138626   5.891   1.782   4.703 -1.0166  1.0127  0.0495
 5737TIP3    H238627   5.921   1.746   4.847 -0.9880  2.8737  0.5296
 5738TIP3   OH238628   3.046   6.103   4.039  0.0293  0.3290 -0.1799
 5738TIP3    H138629   3.137   6.086   4.063  0.4747 -0.1626 -2.0274
 5738TIP3    H238630   3.008   6.016   4.027 -0.5878  0.5371  0.2118
 5739TIP3   OH238631   0.908   1.293  14.247 -0.3817 -0.1970  0.3019
 5739TIP3    H138632   0.839   1.358  14.235 -1.5918 -1.3551  0.7855
 5739TIP3    H238633   0.905   1.240  14.167  1.3466  0.9553 -0.5997
 5740TIP3   OH238634   4.853   3.484  11.410 -0.0237  0.2656  0.0591
 5740TIP3    H138635   4.833   3.576  11.429  0.4599  0.4098 -0.1104
 5740TIP3    H238636   4.901   3.487  11.327 -1.9129 -0.3263 -1.1348
 5741TIP3   OH238637   4.353   4.116   2.434 -0.5096  0.5030  0.1404
 5741TIP3    H138638   4.357   4.158   2.348 -1.2169  0.3798  0.0427
 5741TIP3    H238639   4.294   4.042   2.421  0.5670 -0.4192  0.3598
 5742TIP3   OH238640   1.487   0.721  13.844 -0.2002  0.2623  0.1338
 5742TIP3    H138641   1.423   0.769  13.898 -1.4007 -0.6166 -0.4612
 5742TIP3    H238642   1.436   0.651  13.804  1.2624 -0.7618  0.0095
 5743TIP3   OH238643   3.632   3.417   6.545 -0.2670  0.5478  0.1384
 5743TIP3    H138644   3.711   3.407   6.493  0.8978  4.2944  0.8417
 5743TIP3    H238645   3.573   3.468   6.490 -0.8099  0.6864  0.8284
 5744TIP3   OH238646   5.666   2.574  14.546 -0.3094  0.2146  0.3661
 5744TIP3    H138647   5.624   2.629  14.480 -2.3603  1.4160  2.5365
 5744TIP3    H238648   5.714   2.635  14.602  0.3874 -0.6347  0.7268
 5745TIP3   OH238649   4.207   4.364   5.930  0.8452  0.0625 -0.0870
 5745TIP3    H138650   4.161   4.368   6.015 -1.6258 -1.4742 -1.2480
 5745TIP3    H238651   4.198   4.273   5.902  0.1891  0.8564 -2.7123
 5746TIP3   OH238652   3.432   3.939  10.773 -0.0521  0.2146  0.4449
 5746TIP3    H138653   3.462   3.857  10.812 -1.0429 -0.2802  0.1905
 5746TIP3    H238654   3.480   4.007  10.820  0.6501 -0.5044  0.7748
 5747TIP3   OH238655   0.232   1.198   2.424  0.1909  0.5965  0.1757
 5747TIP3    H138656   0.257   1.116   2.466  2.1616  1.2863  0.4444
 5747TIP3    H238657   0.189   1.248   2.494  1.8079  1.0069  0.9338
 5748TIP3   OH238658   1.265   1.084   4.043 -0.2633  0.4855 -0.4655
 5748TIP3    H138659   1.305   0.997   4.049  1.8553  1.4172 -0.2244
 5748TIP3    H238660   1.222   1.096   4.128 -0.1360 -0.1358 -0.3078
 5749TIP3   OH238661   1.262   5.695  16.361  0.0030 -0.0875  0.2198
 5749TIP3    H138662   1.317   5.641  16.418  0.9909  0.9107  0.2462
 5749TIP3    H238663   1.299   5.783  16.368 -0.7739  0.3427 -0.8256
 5750TIP3   OH238664   0.311   2.302  11.694  0.4579  0.2933  0.2019
 5750TIP3    H138665   0.358   2.219  11.698 -1.1842 -0.6695  0.4272
 5750TIP3    H238666   0.359   2.359  11.754 -0.4409 -1.6330  2.9863
 5751TIP3   OH238667   3.308   1.408  15.101  0.7209  0.6841  0.5950
 5751TIP3    H138668   3.316   1.373  15.190  0.0602  0.2151  0.4811
 5751TIP3    H238669   3.238   1.473  15.107  0.6420  0.6161  0.4105
 5752TIP3   OH238670   3.883   4.770   1.408  0.1274  0.1231  0.3399
 5752TIP3    H138671   3.920   4.697   1.458  1.1577  1.1254  1.0833
 5752TIP3    H238672   3.798   4.737   1.377  1.2793 -1.9790 -0.7711
 5753TIP3   OH238673   2.842   3.559   3.174 -0.0606 -0.3829 -0.0149
 5753TIP3    H138674   2.933   3.590   3.179 -0.0047 -0.1902 -1.6399
 5753TIP3    H238675   2.811   3.589   3.089 -2.1940  0.8882  1.1458
 5754TIP3   OH238676   3.498   4.234  12.996  0.2028 -0.7845  0.4255
 5754TIP3    H138677   3.482   4.177  12.921 -0.6611 -0.3418  0.2634
 5754TIP3    H238678   3.593   4.249  12.995  0.2464 -1.0637 -0.3698
 5755TIP3   OH238679   6.202   0.841  16.215 -0.4365  0.4572  0.1994
 5755TIP3    H138680   6.184   0.763  16.267  0.8413 -0.4142 -0.6107
 5755TIP3    H238681   6.138   0.905  16.246 -3.6806 -1.7851 -1.2060
 5756TIP3   OH238682   0.952   3.982   1.464 -0.2565  0.0950  0.1025
 5756TIP3    H138683   0.963   3.981   1.369 -2.7488  0.3062 -0.2741
 5756TIP3    H238684   0.948   4.075   1.487 -0.5471  0.0450  0.2677
 5757TIP3   OH238685   4.140   2.196  15.313 -0.3165 -0.0767  0.0710
 5757TIP3    H138686   4.100   2.168  15.230 -0.6321  0.1406  0.1457
 5757TIP3    H238687   4.233   2.206  15.292 -0.2899 -0.6251 -0.0973
 5758TIP3   OH238688   6.867   3.189   2.177  0.1420 -0.4094 -0.1861
 5758TIP3    H138689   6.874   3.240   2.097 -1.3127  1.0115  0.5506
 5758TIP3    H238690   6.957   3.158   2.193  1.1221  2.0428 -0.5871
 5759TIP3   OH238691   0.827   2.034   0.129  0.0088  0.2217  0.0749
 5759TIP3    H138692   0.922   2.032   0.134  0.1847  1.7939 -1.4728
 5759TIP3    H238693   0.805   1.970   0.060 -0.1714 -0.9057  1.1452
 5760TIP3   OH238694   3.578   6.359  11.693 -0.2022  0.0637 -0.0579
 5760TIP3    H138695   3.567   6.265  11.703 -1.0905  0.1815  0.1332
 5760TIP3    H238696   3.519   6.383  11.622  1.0310  0.2817 -1.0581
 5761TIP3   OH238697   3.805   4.701  16.579  0.0293 -0.3890  0.4526
 5761TIP3    H138698   3.737   4.694  16.511  1.1890 -1.4130 -0.6584
 5761TIP3    H238699   3.769   4.654  16.654  0.3837 -3.0213 -0.8964
 5762TIP3   OH238700   3.997   6.863  10.670 -0.2595 -0.3352 -0.3000
 5762TIP3    H138701   3.960   6.815  10.596 -2.9952  0.0708  0.7187
 5762TIP3    H238702   3.995   6.955  10.642  2.0987 -0.4196 -1.0334
 5763TIP3   OH238703   1.150   2.945   4.664 -0.4408  0.5518 -0.2808
 5763TIP3    H138704   1.170   2.852   4.669  1.2468  0.8329 -1.1251
 5763TIP3    H238705   1.065   2.954   4.708 -0.5946 -1.3537 -0.1154
 5764TIP3   OH238706   0.842   6.868  12.864 -0.2400 -0.3270  0.0315
 5764TIP3    H138707   0.884   6.783  12.861  0.0506 -0.1682 -0.8419
 5764TIP3    H238708   0.827   6.891  12.772 -1.7770 -0.1525  0.2840
 5765TIP3   OH238709   5.724   3.955   2.106 -0.6193  0.1851  0.3625
 5765TIP3    H138710   5.691   3.871   2.076 -1.4010  0.9792 -1.1260
 5765TIP3    H238711   5.810   3.964   2.064 -1.0875  0.6627 -0.5238
 5766TIP3   OH238712   5.853   5.589   2.708 -0.1640  0.0404  0.1405
 5766TIP3    H138713   5.899   5.589   2.624  0.0078  0.0833  0.2332
 5766TIP3    H238714   5.766   5.623   2.688 -0.5467 -1.0989 -0.2461
 5767TIP3   OH238715   2.214   4.873  12.175 -0.4268  0.1397 -0.2010
 5767TIP3    H138716   2.231   4.788  12.134 -0.8147  0.6102 -1.3784
 5767TIP3    H238717   2.299   4.902  12.208 -0.3201 -0.7663  0.3738
 5768TIP3   OH238718   6.614   1.314  12.134 -0.6112 -0.0488  0.0290
 5768TIP3    H138719   6.633   1.279  12.046 -2.3211  2.3940 -1.4429
 5768TIP3    H238720   6.603   1.236  12.188  0.2484 -1.6775 -1.9789
 5769TIP3   OH238721   1.505   2.193  13.752  0.0974  0.1904 -0.2954
 5769TIP3    H138722   1.432   2.212  13.810 -0.4594 -3.5982  0.4719
 5769TIP3    H238723   1.581   2.231  13.797 -0.7779  0.1978  1.2478
 5770TIP3   OH238724   3.256   3.829  14.649 -0.1566  0.0108 -0.5737
 5770TIP3    H138725   3.162   3.849  14.644  0.4774  3.2439 -2.4744
 5770TIP3    H238726   3.275   3.783  14.568  0.3279  2.1818 -1.7882
 5771TIP3   OH238727   1.021   3.678   2.255 -0.7543 -0.1508  0.3538
 5771TIP3    H138728   0.998   3.603   2.200 -0.4228  0.1230 -0.1707
 5771TIP3    H238729   1.098   3.649   2.304  0.2360  0.2801 -0.8589
 5772TIP3   OH238730   4.840   5.518  12.767  0.5605 -0.8509 -0.7229
 5772TIP3    H138731   4.883   5.505  12.682  1.7699 -2.5672  0.0726
 5772TIP3    H238732   4.875   5.600  12.800 -0.3187  0.0943 -2.0858
 5773TIP3   OH238733   3.363   4.752   2.298 -0.3399  0.0616 -0.3406
 5773TIP3    H138734   3.325   4.690   2.236 -0.4398  0.5788 -0.7960
 5773TIP3    H238735   3.297   4.760   2.367 -1.1365  1.0491 -1.1838
 5774TIP3   OH238736   0.798   2.820   0.166 -0.1104  0.4328  0.2814
 5774TIP3    H138737   0.810   2.861   0.080  0.6033  1.6214  0.9242
 5774TIP3    H238738   0.877   2.841   0.214 -1.7176  2.4304  2.2727
 5775TIP3   OH238739   6.576   3.182   9.699 -0.5305 -0.2537 -0.2337
 5775TIP3    H138740   6.636   3.189   9.773  1.1300  0.0010 -1.5492
 5775TIP3    H238741   6.504   3.241   9.722  1.0098  1.5600  0.2276
 5776TIP3   OH238742   5.572   1.099  15.475 -0.0258  0.1338  0.3807
 5776TIP3    H138743   5.569   1.150  15.395  1.2618 -1.1017 -0.5064
 5776TIP3    H238744   5.644   1.137  15.525  0.1703 -0.0566  0.2469
 5777TIP3   OH238745   3.683   3.879  10.574  0.6137  0.1965 -0.4222
 5777TIP3    H138746   3.587   3.880  10.584  0.4913  0.0274 -1.4802
 5777TIP3    H238747   3.716   3.908  10.659 -0.3994  1.2712 -0.3762
 5778TIP3   OH238748   6.655   1.302  13.441  0.2865 -0.2019  0.1101
 5778TIP3    H138749   6.610   1.380  13.474 -1.4494 -0.7359 -0.8258
 5778TIP3    H238750   6.686   1.328  13.354 -0.5240 -0.6028 -0.3105
 5779TIP3   OH238751   2.630   3.878   2.211 -0.4924 -0.0859 -0.1992
 5779TIP3    H138752   2.640   3.784   2.224 -0.6676  0.0048  0.6637
 5779TIP3    H238753   2.540   3.890   2.182 -1.6775  0.0861  3.0966
 5780TIP3   OH238754   1.428   2.082  13.283  0.2353  0.8086  0.3724
 5780TIP3    H138755   1.363   2.058  13.216  1.2204  1.0688 -0.7041
 5780TIP3    H238756   1.474   2.000  13.302 -0.3078  0.6459  1.0666
 5781TIP3   OH238757   3.487   2.952  16.128  0.0614 -0.1333  0.1423
 5781TIP3    H138758   3.402   2.911  16.116 -0.4427 -0.4002  3.6477
 5781TIP3    H238759   3.547   2.880  16.149  0.0385  0.3988  2.3301
 5782TIP3   OH238760   6.189   1.331  13.317  0.6313 -0.2328 -0.0423
 5782TIP3    H138761   6.247   1.254  13.312 -0.2116 -0.8828  0.0427
 5782TIP3    H238762   6.106   1.301  13.281  0.1486  0.5126  0.4189
 5783TIP3   OH238763   4.429   5.553   3.785 -0.0823  0.1094  0.1218
 5783TIP3    H138764   4.357   5.493   3.765  0.7045 -0.7151 -0.2930
 5783TIP3    H238765   4.442   5.544   3.880 -0.4991  0.2446  0.1953
 5784TIP3   OH238766   4.586   5.909   5.925  0.1443  0.6025  0.1101
 5784TIP3    H138767   4.676   5.920   5.893  0.1913  0.9466  0.3503
 5784TIP3    H238768   4.559   5.997   5.952 -0.6824  0.7221 -1.0337
 5785TIP3   OH238769   0.522   1.140  14.086 -0.3071 -0.7946 -0.0231
 5785TIP3    H138770   0.604   1.104  14.120 -0.2606 -1.5634 -0.8939
 5785TIP3    H238771   0.527   1.234  14.104  1.6643 -0.4922 -1.7984
 5786TIP3   OH238772   5.194   0.014  16.094  0.3176  0.1616  0.3183
 5786TIP3    H138773   5.209   0.104  16.066  2.0153 -0.3230 -0.4394
 5786TIP3    H238774   5.099   0.008  16.106  0.0876  1.7999 -0.4743
 5787TIP3   OH238775   4.117   0.357  10.261  0.4142  0.2835 -0.6521
 5787TIP3    H138776   4.064   0.408  10.200  0.9544  2.8545  0.8440
 5787TIP3    H238777   4.059   0.288  10.292 -0.1471 -0.5282 -3.3038
 5788TIP3   OH238778   2.005   4.322  14.905 -0.1309 -0.6682 -0.2516
 5788TIP3    H138779   1.990   4.306  14.998  1.5416  0.7107  0.3189
 5788TIP3    H238780   2.101   4.324  14.896 -0.2526  0.5385 -1.7367
 5789TIP3   OH238781   6.138   4.220   2.331  0.4601  0.2757 -0.5193
 5789TIP3    H138782   6.198   4.168   2.278  1.3188  1.5022 -0.7924
 5789TIP3    H238783   6.053   4.178   2.319  1.2072 -1.3725 -0.2911
 5790TIP3   OH238784   4.182   3.806   4.244  0.3178 -0.0356 -0.0313
 5790TIP3    H138785   4.260   3.825   4.296  1.4962 -0.9432 -1.3794
 5790TIP3    H238786   4.216   3.771   4.161 -1.4392  1.7216 -1.6135
 5791TIP3   OH238787   5.641   5.259  13.897 -0.6307 -0.0077 -0.8603
 5791TIP3    H138788   5.698   5.253  13.821  0.3134  1.8423 -0.3501
 5791TIP3    H238789   5.700   5.273  13.971 -1.5889 -0.8110  0.1010
 5792TIP3   OH238790   3.623   2.732  15.757  0.0115 -0.1448  0.0650
 5792TIP3    H138791   3.540   2.778  15.766  1.3207  2.1775  1.0435
 5792TIP3    H238792   3.600   2.640  15.767 -2.7265  0.1997 -1.8811
 5793TIP3   OH238793   2.647   4.774   5.856  0.9645  0.9700  0.2105
 5793TIP3    H138794   2.726   4.819   5.886  1.1735  1.5607 -1.1598
 5793TIP3    H238795   2.598   4.756   5.936  2.6686  0.2018  1.1322
 5794TIP3   OH238796   3.825   6.701  14.090 -0.3114 -0.2821 -0.1582
 5794TIP3    H138797   3.873   6.769  14.138 -1.5195  2.1648 -2.1891
 5794TIP3    H238798   3.881   6.683  14.013 -0.1371 -1.4269  0.2200
 5795TIP3   OH238799   1.564   3.219  16.131  0.0639  0.4473  0.2348
 5795TIP3    H138800   1.614   3.162  16.072 -0.5702  1.7185 -1.6105
 5795TIP3    H238801   1.527   3.159  16.196  1.0177 -0.9801 -0.4766
 5796TIP3   OH238802   3.176   0.824   5.538  0.3111  0.5062  0.3007
 5796TIP3    H138803   3.242   0.894   5.532  0.9876 -0.1811 -0.4168
 5796TIP3    H238804   3.206   0.769   5.610  0.4971  0.2164  0.0012
 5797TIP3   OH238805   2.579   1.855   5.448  0.0771  0.2548 -0.0119
 5797TIP3    H138806   2.654   1.842   5.506 -1.2010 -2.3526  1.2435
 5797TIP3    H238807   2.602   1.809   5.368  1.4074  2.9709 -1.3241
 5798TIP3   OH238808   6.324   4.748  15.213 -0.5940 -0.5973  0.2808
 5798TIP3    H138809   6.355   4.839  15.216 -1.3949 -0.3391  0.9622
 5798TIP3    H238810   6.404   4.696  15.219 -0.1307  0.0553 -0.0350
 5799TIP3   OH238811   0.629   1.598   3.837  0.0007 -0.0624  0.3329
 5799TIP3    H138812   0.633   1.575   3.744 -1.3842  0.4042  0.1263
 5799TIP3    H238813   0.588   1.685   3.838 -2.3235 -1.0791  1.4758
 5800TIP3   OH238814   1.536   6.079   1.873  0.5563  0.7956  0.4890
 5800TIP3    H138815   1.479   6.011   1.910 -1.0469  1.8199 -0.0098
 5800TIP3    H238816   1.496   6.161   1.900  1.0596  1.5589 -0.9728
 5801TIP3   OH238817   1.951   3.910  15.624 -0.0399 -0.4883 -0.5082
 5801TIP3    H138818   1.898   3.987  15.646  0.4619 -0.6572  1.5544
 5801TIP3    H238819   1.936   3.896  15.531 -2.6108  0.2460 -0.2921
 5802TIP3   OH238820   5.622   1.128  12.605  0.3603  0.0460  0.2892
 5802TIP3    H138821   5.553   1.068  12.633 -1.5953  2.4108  0.7838
 5802TIP3    H238822   5.663   1.158  12.686 -1.5632  2.5807  0.4350
 5803TIP3   OH238823   5.484   5.468   3.591 -0.0547 -0.2220 -0.4316
 5803TIP3    H138824   5.443   5.537   3.644  2.1750  0.5868  0.3672
 5803TIP3    H238825   5.517   5.514   3.514 -0.7805 -0.8889 -1.1569
 5804TIP3   OH238826   4.334   3.605  12.360  0.5705 -0.3431  1.1323
 5804TIP3    H138827   4.383   3.562  12.430  0.7712 -2.7087 -0.3173
 5804TIP3    H238828   4.371   3.693  12.354  1.3763 -0.5034  3.1434
 5805TIP3   OH238829   3.927   2.433  13.373  0.2277 -0.1635 -0.0570
 5805TIP3    H138830   3.848   2.409  13.421  0.1061 -0.9547 -0.6317
 5805TIP3    H238831   3.948   2.355  13.321  0.8835  0.3484 -0.5744
 5806TIP3   OH238832   3.893   3.902  14.155  0.1791 -0.1218 -0.3269
 5806TIP3    H138833   3.933   3.872  14.074  0.8688 -0.4347  0.1242
 5806TIP3    H238834   3.955   3.965  14.191 -0.0448 -0.1080  0.0407
 5807TIP3   OH238835   6.528   1.159   5.708  0.5988 -0.0275  0.0295
 5807TIP3    H138836   6.516   1.080   5.761  2.0064 -0.5822 -0.4373
 5807TIP3    H238837   6.591   1.211   5.757  0.5957  0.2472 -0.2601
 5808TIP3   OH238838   5.504   3.385  16.048 -0.3811 -0.0148 -0.4493
 5808TIP3    H138839   5.477   3.457  16.105  0.2342 -0.9684  1.1027
 5808TIP3    H238840   5.594   3.408  16.022  0.5509 -1.0279  1.5703
 5809TIP3   OH238841   4.870   1.818   4.649 -0.3069  0.0789 -0.5123
 5809TIP3    H138842   4.881   1.729   4.617 -0.4950 -0.0479 -0.2338
 5809TIP3    H238843   4.949   1.835   4.701 -0.9332 -0.4808  0.6862
 5810TIP3   OH238844   0.558   1.783   0.075 -0.0973 -0.5713 -0.5414
 5810TIP3    H138845   0.475   1.793   0.029 -0.5386 -1.2166  0.0853
 5810TIP3    H238846   0.573   1.689   0.078  0.9014 -0.4363 -1.0535
 5811TIP3   OH238847   0.837   3.812  13.467  0.4781 -0.5110  0.2220
 5811TIP3    H138848   0.793   3.800  13.383  2.8854 -0.3073 -1.1576
 5811TIP3    H238849   0.834   3.726  13.508  2.7731 -1.8006 -1.9824
 5812TIP3   OH238850   3.191   5.074  16.574 -0.4154 -0.3580 -0.4584
 5812TIP3    H138851   3.132   5.146  16.555 -0.6312 -0.1423  0.8862
 5812TIP3    H238852   3.160   5.040  16.659  0.3968 -1.2716 -0.5106
 5813TIP3   OH238853   0.428   4.272   1.602 -0.4168 -0.0108 -0.1874
 5813TIP3    H138854   0.490   4.202   1.585 -0.2294  0.3599 -1.0772
 5813TIP3    H238855   0.387   4.290   1.517 -1.4821  0.0025  0.3116
 5814TIP3   OH238856   6.038   3.189  11.952  0.1335  0.2553 -0.1991
 5814TIP3    H138857   6.080   3.267  11.915  0.9784 -0.7988 -1.5741
 5814TIP3    H238858   5.971   3.223  12.010  2.1458  2.0342  1.2303
 5815TIP3   OH238859   6.258   3.163  11.575  0.5596  0.0728  0.5538
 5815TIP3    H138860   6.304   3.181  11.657  0.7885  2.4829 -0.0309
 5815TIP3    H238861   6.307   3.091  11.535  2.9166  1.5092  0.6891
 5816TIP3   OH238862   2.207   0.366  13.489 -0.1325 -0.2302  0.0632
 5816TIP3    H138863   2.200   0.294  13.425  0.8018  0.8206 -1.2904
 5816TIP3    H238864   2.148   0.433  13.456  0.3528  0.3250  0.3162
 5817TIP3   OH238865   2.193   1.405  13.087  0.2221  0.1199  0.3241
 5817TIP3    H138866   2.175   1.429  13.178 -0.8829  0.1131  0.1284
 5817TIP3    H238867   2.287   1.416  13.077  0.5255 -0.8819  1.7617
 5818TIP3   OH238868   6.370   5.060  12.112 -0.3412 -0.2643 -0.3255
 5818TIP3    H138869   6.365   4.976  12.158 -1.1217 -0.0069  0.0639
 5818TIP3    H238870   6.454   5.056  12.066  0.4814 -0.5276  1.1344
 5819TIP3   OH238871   6.801   6.534  12.207 -0.7056  0.0841  0.2848
 5819TIP3    H138872   6.765   6.458  12.253 -1.4200 -0.6459 -1.3993
 5819TIP3    H238873   6.732   6.600  12.211  0.5971  1.4845  3.4140
 5820TIP3   OH238874   3.890   2.698   0.207 -0.1878  0.3917  0.0921
 5820TIP3    H138875   3.935   2.623   0.167 -0.2321  0.3515  0.1177
 5820TIP3    H238876   3.948   2.772   0.190 -0.3633  0.4372 -0.3386
 5821TIP3   OH238877   4.784   1.246   4.041 -0.4868 -0.2528  0.2141
 5821TIP3    H138878   4.774   1.340   4.025 -0.6897 -0.2703  0.2440
 5821TIP3    H238879   4.698   1.209   4.024 -0.8961 -0.1800  2.0018
 5822TIP3   OH238880   6.037   3.671  13.595  0.1509  0.2493 -0.2695
 5822TIP3    H138881   6.076   3.758  13.584 -0.0904  0.5394  0.9730
 5822TIP3    H238882   5.981   3.680  13.673 -0.0999 -0.9443 -0.2959
 5823TIP3   OH238883   5.476   6.285   2.496  0.5980  0.5296  0.0780
 5823TIP3    H138884   5.571   6.282   2.490  0.6049  1.3915 -0.4344
 5823TIP3    H238885   5.458   6.360   2.552  0.2021  2.0266 -1.9218
 5824TIP3   OH238886   4.422   3.371  15.581 -0.3943 -0.3272  0.2638
 5824TIP3    H138887   4.417   3.291  15.633  2.2118 -0.2222  0.8442
 5824TIP3    H238888   4.371   3.352  15.502 -2.4643 -1.3519  1.7631
 5825TIP3   OH238889   1.385   0.504  13.447 -0.3476  0.0921 -0.6425
 5825TIP3    H138890   1.477   0.523  13.427 -1.0430  2.8736 -1.7745
 5825TIP3    H238891   1.344   0.494  13.362 -1.2780 -0.1626 -0.1740
 5826TIP3   OH238892   5.374   3.480  14.958  0.2407  0.2860 -0.0833
 5826TIP3    H138893   5.426   3.552  14.996 -0.2725  1.1309 -0.9411
 5826TIP3    H238894   5.398   3.403  15.010  1.4322  0.9054  0.3271
 5827TIP3   OH238895   0.655   1.512   5.181  0.2484 -0.5255  0.2103
 5827TIP3    H138896   0.581   1.504   5.241 -0.1844 -2.4702 -0.5193
 5827TIP3    H238897   0.621   1.482   5.097  1.2168  0.8644 -0.7373
 5828TIP3   OH238898   4.889   3.911  12.315  0.8828 -0.4444 -0.2002
 5828TIP3    H138899   4.944   3.921  12.393  1.6749 -0.0699 -0.7867
 5828TIP3    H238900   4.867   4.001  12.290  1.9464 -0.4649 -1.3009
 5829TIP3   OH238901   0.266   3.497  12.127 -0.0450 -0.1689  0.2044
 5829TIP3    H138902   0.191   3.556  12.116  0.6699  0.6684 -0.2584
 5829TIP3    H238903   0.329   3.525  12.061  0.5965 -1.0032  0.4487
 5830TIP3   OH238904   2.140   1.816   0.541  0.5122  0.5092  0.0688
 5830TIP3    H138905   2.146   1.846   0.631 -1.1958  0.3418  0.2699
 5830TIP3    H238906   2.190   1.735   0.539 -0.3978 -0.1161  1.1874
 5831TIP3   OH238907   5.599   4.537  14.245 -0.1187 -0.1558 -0.0910
 5831TIP3    H138908   5.654   4.586  14.184  0.3596 -1.0166 -0.3630
 5831TIP3    H238909   5.641   4.452  14.252  0.2172  0.1315  1.9632
 5832TIP3   OH238910   0.723   4.618   0.181 -0.4387  0.0363  0.6212
 5832TIP3    H138911   0.790   4.606   0.249  0.2179  0.3799  0.0566
 5832TIP3    H238912   0.642   4.589   0.221 -0.0004 -0.0878  1.4365
 5833TIP3   OH238913   1.136   2.657   3.913 -0.3235  0.0599  0.0998
 5833TIP3    H138914   1.048   2.691   3.900  0.1679  1.9010  1.2906
 5833TIP3    H238915   1.142   2.640   4.007  0.4940 -0.3731 -0.0119
 5834TIP3   OH238916   1.121   4.258   6.502  0.7674 -0.0561 -0.1618
 5834TIP3    H138917   1.103   4.302   6.420  0.7491  1.9084  0.8360
 5834TIP3    H238918   1.076   4.174   6.495 -4.2736  2.2423 -0.0348
 5835TIP3   OH238919   1.321   0.425   3.009 -0.0232  0.5049  0.0932
 5835TIP3    H138920   1.228   0.410   2.997  0.1444 -0.0715 -0.5654
 5835TIP3    H238921   1.335   0.417   3.103 -0.7127  1.0695  0.2506
 5836TIP3   OH238922   4.183   5.023  12.813 -0.2510 -0.1738 -0.2975
 5836TIP3    H138923   4.136   5.099  12.779  2.1995  1.6723  0.1554
 5836TIP3    H238924   4.152   4.949  12.760 -2.0843  1.2566 -1.3356
 5837TIP3   OH238925   5.649   0.650  12.744 -0.4327 -0.1830 -0.3862
 5837TIP3    H138926   5.731   0.683  12.781 -0.7047  1.3092 -1.0802
 5837TIP3    H238927   5.587   0.652  12.817 -0.7067  1.8282 -0.6208
 5838TIP3   OH238928   0.110   0.792   4.865 -0.2204 -0.4612 -0.5820
 5838TIP3    H138929   0.063   0.806   4.947 -0.9138  2.1221 -1.3273
 5838TIP3    H238930   0.047   0.816   4.797  0.5962 -1.7892 -1.8717
 5839TIP3   OH238931   3.101   0.655  12.535 -0.4412  0.1023  0.2148
 5839TIP3    H138932   3.129   0.618  12.619 -0.7089  1.2850  0.8524
 5839TIP3    H238933   3.080   0.579  12.481 -0.2464 -0.6856  1.2090
 5840TIP3   OH238934   3.203   5.004   4.521  0.3528 -0.2011  0.0630
 5840TIP3    H138935   3.138   5.073   4.510 -0.8542 -1.3986 -0.6214
 5840TIP3    H238936   3.164   4.944   4.584  1.1932 -0.5035  0.3130
 5841TIP3   OH238937   4.500   5.866  11.389  0.5696 -0.0395  0.1713
 5841TIP3    H138938   4.510   5.799  11.322 -0.2565 -0.2824  0.2790
 5841TIP3    H238939   4.587   5.905  11.398  1.6254 -2.5379  1.6129
 5842TIP3   OH238940   3.668   5.295  13.240 -0.0728  0.0050 -0.4036
 5842TIP3    H138941   3.629   5.256  13.162 -1.3749  1.2908 -0.4404
 5842TIP3    H238942   3.677   5.388  13.218 -1.0126  0.4989  1.1656
 5843TIP3   OH238943   3.310   6.141   9.860  0.0654  0.0447  0.0035
 5843TIP3    H138944   3.265   6.188   9.929  0.1849 -0.2660  0.2983
 5843TIP3    H238945   3.397   6.122   9.896  0.8593  1.6465 -0.9752
 5844TIP3   OH238946   5.320   4.060  15.417  0.3357 -0.1459 -0.4941
 5844TIP3    H138947   5.354   4.110  15.343  0.8336 -1.3337 -1.0923
 5844TIP3    H238948   5.245   4.013  15.382  0.0084 -0.0047  0.0032
 5845TIP3   OH238949   6.416   4.616  11.339  0.3036 -0.0797 -0.1544
 5845TIP3    H138950   6.476   4.664  11.282 -0.4875  0.1417 -0.8192
 5845TIP3    H238951   6.472   4.580  11.407  1.2591 -0.2953 -1.0282
 5846TIP3   OH238952   3.833   4.635  15.809 -0.2445 -0.0403 -0.7659
 5846TIP3    H138953   3.824   4.706  15.873  0.4356 -0.0549 -0.6468
 5846TIP3    H238954   3.928   4.619  15.804 -0.2027  0.5217 -2.3776
 5847TIP3   OH238955   1.072   1.983   0.715  0.4701  0.4481 -0.0298
 5847TIP3    H138956   1.072   1.915   0.648  3.4000 -1.4141  1.6540
 5847TIP3    H238957   1.103   2.061   0.669 -0.7709  0.1391 -1.5008
 5848TIP3   OH238958   6.613   2.840   0.077 -0.1548  0.2202  0.4489
 5848TIP3    H138959   6.705   2.851   0.052  0.2804  0.1470  1.8955
 5848TIP3    H238960   6.576   2.928   0.072  0.1757  0.3622  0.5089
 5849TIP3   OH238961   5.747   6.082  13.876 -0.2722 -0.4400  0.2774
 5849TIP3    H138962   5.772   6.168  13.841  1.0681 -1.2276 -0.8323
 5849TIP3    H238963   5.654   6.091  13.897 -0.0851  1.3854  0.5624
 5850TIP3   OH238964   4.335   6.603   2.615  0.0902 -0.6468 -0.2747
 5850TIP3    H138965   4.401   6.568   2.555  1.6382  3.1533 -1.0752
 5850TIP3    H238966   4.384   6.621   2.696 -0.4562  0.1303 -0.1012
 5851TIP3   OH238967   4.332   4.120   4.426  0.4918  0.1831 -0.5845
 5851TIP3    H138968   4.291   4.131   4.340  0.5874 -1.6017 -0.8982
 5851TIP3    H238969   4.387   4.042   4.417 -1.0072 -1.2259  1.6351
 5852TIP3   OH238970   1.491   2.093   3.286 -0.1816 -0.3913  0.1423
 5852TIP3    H138971   1.514   2.021   3.345  0.4507  1.1502  1.8803
 5852TIP3    H238972   1.572   2.143   3.278 -0.6520  0.2265 -0.8883
 5853TIP3   OH238973   5.995   5.201  16.099  0.5584 -0.2239  0.1270
 5853TIP3    H138974   6.078   5.199  16.050  0.2451 -1.2366 -0.4013
 5853TIP3    H238975   5.958   5.114  16.085 -0.6649  0.2682  0.2355
 5854TIP3   OH238976   0.328   6.009  13.555  0.4472  0.5220 -0.0057
 5854TIP3    H138977   0.395   6.016  13.623  0.1419  2.0389  0.1800
 5854TIP3    H238978   0.292   6.097  13.548  0.7045  0.4836 -2.3946
 5855TIP3   OH238979   4.788   1.514   4.078 -0.0069 -0.5653  0.3484
 5855TIP3    H138980   4.880   1.522   4.104  0.3990  1.4396 -1.4603
 5855TIP3    H238981   4.741   1.504   4.160  1.7715 -1.2155  1.3486
 5856TIP3   OH238982   0.829   4.424  10.733 -0.1374  0.2108  0.1514
 5856TIP3    H138983   0.871   4.509  10.723  0.2794 -0.0880 -0.7350
 5856TIP3    H238984   0.849   4.377  10.652 -2.0516  0.0027 -0.2563
 5857TIP3   OH238985   3.567   4.672  16.405 -0.2214  0.2234 -0.4098
 5857TIP3    H138986   3.508   4.597  16.408 -0.2823  0.2902  0.4915
 5857TIP3    H238987   3.515   4.745  16.440  0.3249  0.3227  0.2240
 5858TIP3   OH238988   2.888   0.934  11.207  0.4500  0.7581 -0.3250
 5858TIP3    H138989   2.919   0.875  11.276  0.0296  0.5195 -0.3340
 5858TIP3    H238990   2.930   0.902  11.127 -0.0440  0.2462 -0.3903
 5859TIP3   OH238991   6.284   4.069  14.899 -0.0366 -0.0973 -0.6516
 5859TIP3    H138992   6.361   4.039  14.948  0.1643  0.7576 -0.4242
 5859TIP3    H238993   6.226   4.104  14.966  0.6144  1.9027 -1.0601
 5860TIP3   OH238994   1.941   6.648   0.380 -0.0242 -0.2243  0.4155
 5860TIP3    H138995   1.855   6.633   0.418 -0.6241  1.1252 -0.3595
 5860TIP3    H238996   1.930   6.724   0.323  1.9297  0.6835  1.1548
 5861TIP3   OH238997   3.891   1.766  13.894  0.0022 -0.1615 -1.1720
 5861TIP3    H138998   3.972   1.801  13.931 -0.6058  0.7746 -0.6906
 5861TIP3    H238999   3.919   1.714  13.819  1.2301 -1.6729  0.2671
 5862TIP3   OH239000   5.993   5.506  10.983 -0.1563 -0.6310  0.0780
 5862TIP3    H139001   6.044   5.501  11.064  1.2810 -1.0859 -0.8172
 5862TIP3    H239002   6.040   5.568  10.928 -2.1918  1.2000  0.2704
 5863TIP3   OH239003   2.657   1.626  15.358  0.0050 -0.1557  0.2138
 5863TIP3    H139004   2.702   1.645  15.440  0.0058 -0.9203  0.3965
 5863TIP3    H239005   2.613   1.708  15.336 -0.5455 -0.1302  1.3309
 5864TIP3   OH239006   3.549   2.656  12.694  0.1421 -0.3286 -0.5958
 5864TIP3    H139007   3.582   2.613  12.615  0.7071  0.7333 -0.9566
 5864TIP3    H239008   3.615   2.721  12.716 -1.2549  1.2444 -0.8131
 5865TIP3   OH239009   5.371   6.124  12.285 -0.2044 -0.4139  0.4299
 5865TIP3    H139010   5.449   6.178  12.279 -0.0636 -0.7229 -0.8261
 5865TIP3    H239011   5.298   6.183  12.266 -0.2642 -0.1645  1.4220
 5866TIP3   OH239012   2.654   4.325  16.116  0.1252  0.0309 -0.5960
 5866TIP3    H139013   2.584   4.339  16.053 -0.2938  0.2032 -0.1010
 5866TIP3    H239014   2.610   4.319  16.201  0.7684  1.0438 -0.1571
 5867TIP3   OH239015   0.739   3.155  14.475 -0.1759  0.0963 -0.0113
 5867TIP3    H139016   0.713   3.068  14.505 -1.3554  0.4197 -0.0378
 5867TIP3    H239017   0.778   3.196  14.553 -1.1788  0.1336  0.4948
 5868TIP3   OH239018   4.343   3.793  10.248  0.5006  0.5391  0.0954
 5868TIP3    H139019   4.281   3.812  10.178 -0.5348  2.4283  1.4329
 5868TIP3    H239020   4.347   3.697  10.252 -3.2379  0.2706  0.6524
 5869TIP3   OH239021   0.253   2.912   2.277 -0.1118  0.5160 -0.4913
 5869TIP3    H139022   0.173   2.891   2.327 -0.8432  1.4630 -1.2147
 5869TIP3    H239023   0.289   2.828   2.251 -1.3505  0.0798 -0.8559
 5870TIP3   OH239024   2.066   4.872   5.393  0.4450 -0.2264  0.2208
 5870TIP3    H139025   2.064   4.855   5.487  0.9221  1.8226  0.6483
 5870TIP3    H239026   1.988   4.827   5.359  0.4894 -1.3351  1.5059
 5871TIP3   OH239027   0.581   4.098  13.363  0.1238 -0.0907  0.4467
 5871TIP3    H139028   0.578   4.033  13.292  1.0362  0.5910 -0.2457
 5871TIP3    H239029   0.492   4.132  13.367 -0.4002 -1.4616  0.9090
 5872TIP3   OH239030   3.769   0.315  11.280 -0.7437  0.1626  1.0384
 5872TIP3    H139031   3.747   0.351  11.194 -2.2621  0.0040  1.3279
 5872TIP3    H239032   3.829   0.243  11.262 -0.7203  0.3966  0.1504
 5873TIP3   OH239033   3.011   3.751  12.015  0.3778  0.1252  0.1681
 5873TIP3    H139034   2.930   3.700  12.022 -1.4904  2.5147 -2.3063
 5873TIP3    H239035   3.007   3.812  12.088 -0.1037  0.2992 -0.0010
 5874TIP3   OH239036   1.080   6.486  10.873  0.0076 -0.0812 -0.3602
 5874TIP3    H139037   1.022   6.443  10.937 -1.1696  2.1243  0.1454
 5874TIP3    H239038   1.139   6.416  10.845 -0.8681 -1.6772  1.4683
 5875TIP3   OH239039   4.470   5.092   3.653 -0.2410  0.0249 -0.2250
 5875TIP3    H139040   4.515   5.013   3.622 -0.4103 -0.1462 -0.0447
 5875TIP3    H239041   4.486   5.157   3.585  1.6701  0.4789  0.5902
 5876TIP3   OH239042   4.369   0.467   3.147 -0.7755  0.2020 -0.4230
 5876TIP3    H139043   4.281   0.434   3.168 -0.7359  1.2289  1.6855
 5876TIP3    H239044   4.404   0.495   3.232  0.8714  1.5328 -1.4889
 5877TIP3   OH239045   0.045   6.583  13.580  0.0206  0.0154 -0.3919
 5877TIP3    H139046   0.030   6.506  13.525 -0.3454 -0.1344 -0.0852
 5877TIP3    H239047  -0.042   6.615  13.602  0.1735  0.8171 -0.9271
 5878TIP3   OH239048   0.847   5.766   4.258 -0.0884  0.3124 -0.3431
 5878TIP3    H139049   0.766   5.716   4.266  0.4275 -1.0836 -2.7325
 5878TIP3    H239050   0.917   5.701   4.268  0.6037  0.4477 -3.3103
 5879TIP3   OH239051   2.356   6.439   1.431  0.3564  0.2368 -0.3571
 5879TIP3    H139052   2.330   6.494   1.357 -1.2415  0.8529  0.5837
 5879TIP3    H239053   2.284   6.449   1.493  1.4237 -0.6331  1.0770
 5880TIP3   OH239054   1.473   3.653   5.186  0.1986  0.0834 -0.3508
 5880TIP3    H139055   1.409   3.582   5.192 -0.4743  0.5929 -1.3970
 5880TIP3    H239056   1.525   3.645   5.267 -0.4842 -0.9939 -0.0033
 5881TIP3   OH239057   1.105   4.583  14.948 -0.9081 -0.1539 -0.4378
 5881TIP3    H139058   1.064   4.520  15.007 -0.4069  1.4008  1.6710
 5881TIP3    H239059   1.166   4.631  15.003  0.2162  0.8156 -2.4471
 5882TIP3   OH239060   5.748   0.484  15.161 -0.3644  0.1931 -0.7958
 5882TIP3    H139061   5.673   0.542  15.176 -0.2894 -0.0586  0.7684
 5882TIP3    H239062   5.724   0.433  15.084 -1.1594  1.1271 -1.1932
 5883TIP3   OH239063   4.693   2.671  15.095  0.6232  0.5342  0.7452
 5883TIP3    H139064   4.778   2.627  15.102  0.7108  0.1373 -1.9958
 5883TIP3    H239065   4.636   2.607  15.053 -0.7527  1.2206  1.4988
 5884TIP3   OH239066   0.988   5.407  14.048  0.5704 -0.2248 -0.7438
 5884TIP3    H139067   0.932   5.473  14.009  2.0002  2.4185  1.3353
 5884TIP3    H239068   0.966   5.408  14.141  3.0625 -0.0802 -0.0911
 5885TIP3   OH239069   4.269   1.952  12.510 -0.0227 -0.0940  0.0938
 5885TIP3    H139070   4.259   1.871  12.460 -0.0524 -0.8177  1.2199
 5885TIP3    H239071   4.250   1.926  12.601  0.2228  1.1209  0.5114
 5886TIP3   OH239072   0.602   4.779  15.334  0.6209  0.1490  0.2282
 5886TIP3    H139073   0.569   4.716  15.399 -2.7159  0.0953 -1.2729
 5886TIP3    H239074   0.583   4.865  15.372  0.7009  0.1535  0.2565
 5887TIP3   OH239075   5.296   6.533  13.319  0.0384  0.4929 -0.1804
 5887TIP3    H139076   5.322   6.445  13.345 -2.0150 -0.4359 -1.0458
 5887TIP3    H239077   5.372   6.569  13.275  0.7548 -1.0275 -0.2321
 5888TIP3   OH239078   2.616   0.664  12.034 -0.2975 -0.0237  0.4859
 5888TIP3    H139079   2.633   0.656  11.940  0.5349 -1.1172  0.7120
 5888TIP3    H239080   2.523   0.648  12.043 -0.0159 -2.1277  0.0506
 5889TIP3   OH239081   3.071   1.515  13.745 -0.5644  0.4284 -0.4095
 5889TIP3    H139082   3.147   1.485  13.695 -0.7816 -1.8287  0.5042
 5889TIP3    H239083   2.999   1.460  13.714 -1.1021  0.2806  1.0378
 5890TIP3   OH239084   0.281   6.046   2.895  0.1572 -0.3142 -0.0033
 5890TIP3    H139085   0.356   6.039   2.953  0.4397 -0.4437 -0.3760
 5890TIP3    H239086   0.293   6.130   2.851  0.3205 -0.5293 -0.3789
 5891TIP3   OH239087   3.745   6.267  12.031 -0.2403  0.4219  0.6748
 5891TIP3    H139088   3.661   6.223  12.018 -0.3703  0.6987  0.5500
 5891TIP3    H239089   3.723   6.345  12.082 -0.0305  0.3974  0.8026
 5892TIP3   OH239090   4.277   4.726  13.712  0.4315  0.4763 -0.6904
 5892TIP3    H139091   4.277   4.631  13.697 -0.4908  0.3733 -0.0942
 5892TIP3    H239092   4.314   4.763  13.632 -1.5176 -0.2299 -1.9772
 5893TIP3   OH239093   2.267   4.803  11.866 -0.8505  0.2552 -0.0748
 5893TIP3    H139094   2.320   4.802  11.787  1.7503 -0.2665  1.5419
 5893TIP3    H239095   2.248   4.895  11.881 -0.8077  0.4150 -0.9510
 5894TIP3   OH239096   5.363   2.505   2.265  0.1083  0.1270  0.3083
 5894TIP3    H139097   5.342   2.412   2.275 -0.1906  0.1662  0.0762
 5894TIP3    H239098   5.353   2.541   2.353 -1.2834  0.2325  0.1345
 5895TIP3   OH239099   1.204   4.340   3.715 -0.3740 -0.1510  0.1498
 5895TIP3    H139100   1.276   4.278   3.708 -1.4329 -1.6512  1.7991
 5895TIP3    H239101   1.160   4.335   3.630 -0.1927 -1.3522  0.1095
 5896TIP3   OH239102   2.653   2.407  16.635 -0.4341  0.5262  0.0032
 5896TIP3    H139103   2.736   2.408  16.587  0.7152  0.2468  1.8843
 5896TIP3    H239104   2.629   2.314  16.639  0.5178  0.3118  1.5987
 5897TIP3   OH239105   4.911   5.720   3.904  0.0409 -0.6386 -0.3966
 5897TIP3    H139106   4.881   5.643   3.856  0.1383 -0.8279 -0.1540
 5897TIP3    H239107   4.926   5.689   3.993  1.2343 -0.6161 -0.5742
 5898TIP3   OH239108   2.636   6.689   3.815  0.6686  0.2189  0.0125
 5898TIP3    H139109   2.594   6.713   3.732  0.5690  0.1316  0.0377
 5898TIP3    H239110   2.713   6.746   3.820 -0.3043  1.5337  0.7426
 5899TIP3   OH239111   5.372   0.623  13.673 -0.2584 -0.0125 -0.4552
 5899TIP3    H139112   5.299   0.635  13.734  1.4793 -1.1024  2.0335
 5899TIP3    H239113   5.406   0.536  13.693  2.8856  1.1646 -0.0338
 5900TIP3   OH239114   5.600   2.666   4.265 -0.0113 -0.4590  0.0565
 5900TIP3    H139115   5.559   2.639   4.347 -2.4236  2.2631 -0.0598
 5900TIP3    H239116   5.609   2.761   4.273  1.0751 -0.2960 -2.2486
 5901TIP3   OH239117   3.656   3.021  15.912  0.1693 -1.0458  0.7889
 5901TIP3    H139118   3.601   2.995  15.985 -2.0250 -0.2938 -0.4830
 5901TIP3    H239119   3.637   2.957  15.843  0.8618 -0.7474  0.3089
 5902TIP3   OH239120   0.395   4.445  14.014 -0.0360 -0.4645  0.3130
 5902TIP3    H139121   0.445   4.462  13.935  3.7835 -0.3408  2.5247
 5902TIP3    H239122   0.357   4.530  14.037  0.0988 -0.1559 -0.5664
 5903TIP3   OH239123   4.265   1.487  12.269 -0.3169  0.1465 -0.2890
 5903TIP3    H139124   4.315   1.483  12.187 -0.2801 -0.2728 -0.2451
 5903TIP3    H239125   4.288   1.407  12.316 -3.5308 -1.8045 -1.6987
 5904TIP3   OH239126   6.063   5.548  14.394 -0.4849  0.8577  0.6199
 5904TIP3    H139127   6.023   5.635  14.404  0.4869  1.3863  0.1726
 5904TIP3    H239128   6.052   5.527  14.301 -0.7608  0.4735  0.7374
 5905TIP3   OH239129   2.165   0.818   3.809  0.5100  0.1168  0.3936
 5905TIP3    H139130   2.224   0.746   3.829 -1.8604 -2.0048  0.3010
 5905TIP3    H239131   2.140   0.854   3.894 -0.4951 -1.1234  0.6504
 5906TIP3   OH239132   2.091   3.125   2.317 -0.2106 -0.7560  0.2809
 5906TIP3    H139133   2.148   3.186   2.363 -1.2952  1.1056 -0.7336
 5906TIP3    H239134   2.137   3.105   2.236  0.1963 -1.4277  0.6626
 5907TIP3   OH239135   0.619   1.166   2.260  0.4627  0.3433 -0.2744
 5907TIP3    H139136   0.599   1.260   2.254  1.6015  0.5434 -1.3669
 5907TIP3    H239137   0.661   1.155   2.345 -2.8544  0.1351  1.5184
 5908TIP3   OH239138   1.859   1.095  15.486  0.2778  0.1390 -0.4673
 5908TIP3    H139139   1.775   1.075  15.444  0.2947  0.6786 -0.7642
 5908TIP3    H239140   1.924   1.059  15.426  0.2484 -1.6756  0.4999
 5909TIP3   OH239141   0.750   6.213  15.923 -0.1010 -0.0829 -0.0748
 5909TIP3    H139142   0.843   6.238  15.927  0.0025 -0.4281 -0.2331
 5909TIP3    H239143   0.749   6.122  15.952 -0.0452 -0.8951 -2.4377
 5910TIP3   OH239144   5.323   0.987  15.494 -0.1207  0.2988 -0.0161
 5910TIP3    H139145   5.393   1.051  15.479 -0.7475  0.5198 -2.4553
 5910TIP3    H239146   5.247   1.040  15.518 -0.1832  0.3093 -0.2384
 5911TIP3   OH239147   1.217   3.097  13.830  0.4353 -0.4334  0.0994
 5911TIP3    H139148   1.126   3.111  13.855  0.3763  0.4328 -0.5703
 5911TIP3    H239149   1.213   3.040  13.754  0.4356 -0.1097 -0.1430
 5912TIP3   OH239150   0.112   6.686   5.068  0.1172  0.3389 -0.1230
 5912TIP3    H139151   0.134   6.645   5.152 -1.4942 -0.7507 -0.1783
 5912TIP3    H239152   0.094   6.612   5.010 -0.2421  1.1108 -1.0184
 5913TIP3   OH239153   0.807   1.955   0.816  0.0750  0.2803 -0.0042
 5913TIP3    H139154   0.753   1.987   0.743 -0.8559  0.0942  0.5775
 5913TIP3    H239155   0.897   1.971   0.789 -0.2782  0.6989 -0.9667
 5914TIP3   OH239156   6.753   4.898  10.109 -0.2515  0.0519  0.1885
 5914TIP3    H139157   6.788   4.930  10.026 -0.0360 -1.9650 -0.5562
 5914TIP3    H239158   6.658   4.899  10.096 -0.2064 -0.6077 -0.2376
 5915TIP3   OH239159   6.292   1.552   4.828  0.2973 -0.4252 -1.0223
 5915TIP3    H139160   6.297   1.461   4.801  1.1228  0.1904 -3.0969
 5915TIP3    H239161   6.382   1.575   4.853  0.0939 -0.1558 -0.5047
 5916TIP3   OH239162   4.792   1.393   3.400  0.3293  0.2724 -0.2249
 5916TIP3    H139163   4.746   1.428   3.476  0.9569  1.3654 -0.3234
 5916TIP3    H239164   4.800   1.299   3.417 -1.0295  0.2256  0.2518
 5917TIP3   OH239165   5.386   4.476  12.889 -0.1195  0.1497  0.1836
 5917TIP3    H139166   5.467   4.486  12.840  0.4631 -0.4746  0.9892
 5917TIP3    H239167   5.376   4.560  12.935  0.7015 -0.1722  0.9835
 5918TIP3   OH239168   1.525   6.265  16.686  0.0996 -0.4432 -0.6495
 5918TIP3    H139169   1.520   6.262  16.782  1.9789 -2.0612 -0.5374
 5918TIP3    H239170   1.571   6.347  16.667  2.0239 -1.3036  0.0359
 5919TIP3   OH239171   0.220   5.365  13.044 -0.1911  0.9098  0.2119
 5919TIP3    H139172   0.128   5.340  13.046 -0.4858  1.9948  0.7279
 5919TIP3    H239173   0.259   5.319  13.119 -0.1076 -0.2420 -0.5130
 5920TIP3   OH239174   4.827   0.235  10.335 -0.1632 -0.3679 -0.0862
 5920TIP3    H139175   4.734   0.243  10.316 -0.3566  0.0172  0.9262
 5920TIP3    H239176   4.832   0.175  10.410  0.0915  1.9517  1.9025
 5921TIP3   OH239177   6.044   2.445  13.249 -0.6914 -0.5797  0.2370
 5921TIP3    H139178   5.985   2.381  13.289 -1.1749  0.4543  1.2456
 5921TIP3    H239179   5.986   2.505  13.202 -0.5445  0.6962  1.5912
 5922TIP3   OH239180   0.459   1.409  15.719 -0.0062  0.4877 -0.1714
 5922TIP3    H139181   0.530   1.346  15.709  0.2872  0.7211  0.3793
 5922TIP3    H239182   0.424   1.421  15.631  0.5676  0.2828 -0.4279
 5923TIP3   OH239183   1.986   2.077   4.802 -0.5347  0.0245 -0.1483
 5923TIP3    H139184   2.034   2.159   4.789  1.9152 -1.2871  0.1415
 5923TIP3    H239185   1.989   2.061   4.896  1.0359 -1.4724 -0.3941
 5924TIP3   OH239186   2.625   2.171   0.068  0.0092 -0.0634 -0.4680
 5924TIP3    H139187   2.563   2.120   0.120 -1.2194 -0.1910 -1.9530
 5924TIP3    H239188   2.633   2.254   0.114 -2.0099  0.2991 -0.6563
 5925TIP3   OH239189   0.538   3.167   2.771  0.0372 -0.1573  0.0006
 5925TIP3    H139190   0.584   3.151   2.853 -0.1708  1.6002  0.4943
 5925TIP3    H239191   0.606   3.161   2.704  0.5581  0.1628  0.4871
 5926TIP3   OH239192   1.706   2.468   0.703 -0.2855  0.5373 -0.2679
 5926TIP3    H139193   1.734   2.413   0.630 -0.3194  0.9824 -0.6237
 5926TIP3    H239194   1.780   2.527   0.719 -0.2223  0.3438  0.1543
 5927TIP3   OH239195   2.236   3.907  15.269 -0.5472  0.5021 -0.1166
 5927TIP3    H139196   2.279   3.958  15.200 -2.1059 -0.1582 -1.6682
 5927TIP3    H239197   2.148   3.944  15.274 -1.3053 -1.1741 -0.3907
 5928TIP3   OH239198   2.383   6.662  10.109  0.2247 -0.1114  0.6960
 5928TIP3    H139199   2.475   6.647  10.131 -0.0435 -1.3701  1.0633
 5928TIP3    H239200   2.385   6.733  10.045  1.3682  0.6109  1.4907
 5929TIP3   OH239201   0.851   1.457   1.748 -0.0408 -0.9355  0.4175
 5929TIP3    H139202   0.920   1.396   1.772  0.0318 -0.9051  0.2850
 5929TIP3    H239203   0.829   1.502   1.830  0.9568 -0.0591  0.2264
 5930TIP3   OH239204   2.779   1.340   4.518 -0.6030  0.1022  0.4815
 5930TIP3    H139205   2.767   1.339   4.613  1.2462  0.6237  0.7447
 5930TIP3    H239206   2.693   1.313   4.483 -0.7720 -1.9741  2.3065
 5931TIP3   OH239207   6.803   5.334  16.107 -0.0421  0.2797 -0.0667
 5931TIP3    H139208   6.882   5.327  16.161  0.8415  2.4653 -0.9578
 5931TIP3    H239209   6.831   5.385  16.030 -1.9877 -0.1247 -1.0995
 5932TIP3   OH239210   4.835   5.037   5.232 -0.3882 -0.3990 -0.1956
 5932TIP3    H139211   4.829   5.109   5.169 -0.0672 -1.0687 -1.0007
 5932TIP3    H239212   4.744   5.012   5.248 -0.4488 -0.6002 -0.8352
 5933TIP3   OH239213   5.545   3.769   1.096  0.3937  0.1855  0.0076
 5933TIP3    H139214   5.635   3.801   1.102 -0.3738  2.7481 -1.0078
 5933TIP3    H239215   5.493   3.832   1.147 -0.9549 -0.7846 -0.0924
 5934TIP3   OH239216   4.431   4.802   1.742  0.0829 -0.0332  0.0105
 5934TIP3    H139217   4.469   4.798   1.830 -0.0536 -1.2323  0.0310
 5934TIP3    H239218   4.500   4.838   1.687  0.5337 -0.2503  0.4268
 5935TIP3   OH239219   0.190   1.802  11.649  0.2202  0.6409  0.2751
 5935TIP3    H139220   0.169   1.711  11.628  0.8705  0.8839 -1.6343
 5935TIP3    H239221   0.202   1.803  11.744  0.7201 -1.3794  0.2740
 5936TIP3   OH239222   4.557   5.688  12.008  0.3548 -0.3110  0.1924
 5936TIP3    H139223   4.514   5.729  11.932 -1.6732  0.3818  1.6287
 5936TIP3    H239224   4.484   5.660  12.064  1.8016 -0.8488  1.8731
 5937TIP3   OH239225   3.997   3.751   1.282  0.4125 -0.2426 -0.0845
 5937TIP3    H139226   4.071   3.733   1.340 -0.1249 -1.2147  0.3348
 5937TIP3    H239227   4.037   3.784   1.202  1.3186 -0.8740  0.0836
 5938TIP3   OH239228   4.072   6.466  14.879  0.2020  0.3709 -0.1487
 5938TIP3    H139229   4.012   6.529  14.838  0.0296 -0.1076 -0.6537
 5938TIP3    H239230   4.069   6.487  14.972 -0.7124  0.4038 -0.1694
 5939TIP3   OH239231   3.619   5.647  12.135 -0.0335 -0.0336  0.1866
 5939TIP3    H139232   3.531   5.675  12.112  0.5534  1.2025 -0.5994
 5939TIP3    H239233   3.676   5.719  12.109  1.5981 -2.0513 -2.3044
 5940TIP3   OH239234   6.144   4.447   2.958 -0.2368  0.3576  0.1755
 5940TIP3    H139235   6.212   4.494   3.007 -1.6385  1.7648  0.8637
 5940TIP3    H239236   6.101   4.392   3.024  0.3148 -0.6719 -0.2959
 5941TIP3   OH239237   1.929   3.238  13.910 -0.4777  0.2388 -0.0360
 5941TIP3    H139238   1.978   3.320  13.900 -0.6089  0.2122 -0.9520
 5941TIP3    H239239   1.871   3.254  13.984  0.1128  0.6656  0.3468
 5942TIP3   OH239240   6.698   2.448   1.961 -0.7071  0.3548 -0.0370
 5942TIP3    H139241   6.718   2.523   1.906  0.2148 -0.3755 -0.7219
 5942TIP3    H239242   6.693   2.374   1.900  1.0843 -0.6095  0.8964
 5943TIP3   OH239243   3.719   1.447   2.658 -0.1180 -0.2249 -0.0991
 5943TIP3    H139244   3.802   1.465   2.703 -0.4996  1.9454 -0.1304
 5943TIP3    H239245   3.710   1.352   2.659  2.1525 -0.4805  0.2958
 5944TIP3   OH239246   2.165   2.124  11.548  0.4703 -0.0289  0.5771
 5944TIP3    H139247   2.193   2.078  11.626 -0.4495 -1.8743 -0.1419
 5944TIP3    H239248   2.086   2.170  11.574 -0.0263 -0.9134  0.6567
 5945TIP3   OH239249   1.685   2.638  15.405 -0.4087 -0.2422  0.3013
 5945TIP3    H139250   1.743   2.586  15.461 -1.9032 -0.4220  1.7599
 5945TIP3    H239251   1.725   2.725  15.404  0.7792 -0.7688 -0.1345
 5946TIP3   OH239252   5.010   0.203   2.124  0.1019  0.0237 -0.1544
 5946TIP3    H139253   4.929   0.165   2.158  0.3688 -0.4804 -0.0696
 5946TIP3    H239254   5.026   0.279   2.180  0.0784 -0.3045  0.3079
 5947TIP3   OH239255   1.769   1.549  15.867  0.2684  0.4043  0.4762
 5947TIP3    H139256   1.695   1.523  15.922 -0.4464  1.6036  0.1114
 5947TIP3    H239257   1.765   1.644  15.864  0.4182  0.3890 -1.4615
 5948TIP3   OH239258   6.424   6.661   2.056 -0.0125  0.2517 -0.5401
 5948TIP3    H139259   6.462   6.609   1.985 -0.0845  1.0311 -1.1745
 5948TIP3    H239260   6.330   6.653   2.044 -0.1862 -2.5207  1.6483
 5949TIP3   OH239261   0.513   6.058  12.340  0.0778 -0.3542  0.2089
 5949TIP3    H139262   0.484   6.039  12.429 -0.1475 -1.2042 -0.0348
 5949TIP3    H239263   0.500   6.152  12.330 -1.6902 -0.5358  0.4456
 5950TIP3   OH239264   6.445   6.515  15.463 -0.0036  0.3932  0.0997
 5950TIP3    H139265   6.378   6.577  15.491 -1.2894 -0.5403 -0.7957
 5950TIP3    H239266   6.516   6.570  15.430 -0.5968  1.4036  0.4582
 5951TIP3   OH239267   2.728   3.321   2.870 -0.1493 -0.0585 -0.5280
 5951TIP3    H139268   2.780   3.241   2.883 -0.9605 -0.7280 -1.3057
 5951TIP3    H239269   2.793   3.387   2.843  0.4228 -0.6536 -0.6491
 5952TIP3   OH239270   3.519   6.483  11.369  0.1328  0.4910 -0.4380
 5952TIP3    H139271   3.446   6.491  11.308  1.0223  0.1940 -1.5869
 5952TIP3    H239272   3.478   6.474  11.455 -1.1598  0.7132 -1.0086
 5953TIP3   OH239273   2.098   6.824   1.806 -0.3482 -0.1951 -0.2815
 5953TIP3    H139274   2.173   6.882   1.812  0.1707 -0.7666 -1.0193
 5953TIP3    H239275   2.125   6.756   1.744 -1.1814 -0.8481  0.0479
 5954TIP3   OH239276   5.900   3.636  15.820 -0.4039 -0.1208 -0.3396
 5954TIP3    H139277   5.843   3.617  15.894  0.7310 -0.8043  0.3822
 5954TIP3    H239278   5.962   3.701  15.853 -1.1724  1.1719 -1.3346
 5955TIP3   OH239279   5.556   3.801   0.839 -0.2089 -0.0945 -0.0720
 5955TIP3    H139280   5.615   3.876   0.845 -0.2930  0.4012 -3.7262
 5955TIP3    H239281   5.532   3.783   0.930  4.8059  0.2084  1.6482
 5956TIP3   OH239282   2.339   6.255  15.807  0.4773  0.3286  0.0502
 5956TIP3    H139283   2.357   6.278  15.898  1.0929  1.6233 -0.3771
 5956TIP3    H239284   2.344   6.338  15.759 -1.4344 -0.0813 -0.9399
 5957TIP3   OH239285   0.619   2.316   0.853  0.4645 -0.0763 -1.0523
 5957TIP3    H139286   0.617   2.318   0.757 -0.9587  0.5819 -1.0276
 5957TIP3    H239287   0.617   2.223   0.874 -0.5641 -0.2074 -1.6605
 5958TIP3   OH239288   4.567   0.680   2.566  0.1024 -0.1558 -0.4477
 5958TIP3    H139289   4.505   0.716   2.629 -1.2173 -0.9941 -1.2001
 5958TIP3    H239290   4.653   0.696   2.605 -0.6604 -1.1259  1.8486
 5959TIP3   OH239291   5.374   1.243   5.829 -0.4943 -0.0433 -0.6073
 5959TIP3    H139292   5.347   1.332   5.849  0.3630 -0.0257  0.5791
 5959TIP3    H239293   5.320   1.188   5.886  0.2982 -0.1490  0.0611
 5960TIP3   OH239294   0.102   6.032   3.918 -0.3708  0.0615 -0.3203
 5960TIP3    H139295   0.052   6.074   3.848  0.8932  0.8748 -0.7610
 5960TIP3    H239296   0.148   6.104   3.961 -1.6915 -0.3031  1.8719
 5961TIP3   OH239297   4.569   0.515  11.936  0.1116  0.2138 -0.5158
 5961TIP3    H139298   4.507   0.561  11.880  0.5405 -0.7409 -1.8379
 5961TIP3    H239299   4.518   0.488  12.013 -1.2015 -0.7995 -1.6943
 5962TIP3   OH239300   4.871   3.426  15.482 -0.2165 -0.2305 -0.1474
 5962TIP3    H139301   4.839   3.515  15.466  1.3569  0.3084 -0.4472
 5962TIP3    H239302   4.906   3.397  15.398 -0.9636 -1.2660 -0.1264
 5963TIP3   OH239303   0.885   4.345   4.735 -0.5959  0.3199  0.3864
 5963TIP3    H139304   0.814   4.379   4.789 -1.3258 -1.6392  0.7304
 5963TIP3    H239305   0.880   4.250   4.745  2.0556  0.0972  0.3876
 5964TIP3   OH239306   5.205   6.666  15.129  0.0088  0.6152  0.0676
 5964TIP3    H139307   5.267   6.647  15.199 -0.0234 -0.1952 -0.1130
 5964TIP3    H239308   5.192   6.582  15.086  1.0276  1.3121 -1.7312
 5965TIP3   OH239309   1.291   6.281  10.785  0.2295 -0.2163  0.1906
 5965TIP3    H139310   1.345   6.302  10.709  0.1189  0.2991  0.2492
 5965TIP3    H239311   1.239   6.205  10.758  0.7460 -0.5104  0.0238
 5966TIP3   OH239312   6.851   2.412   1.600  0.5966  0.2503  0.4942
 5966TIP3    H139313   6.877   2.323   1.622  1.4706  0.6190  1.0159
 5966TIP3    H239314   6.918   2.468   1.640 -0.3697  1.1909  0.8678
 5967TIP3   OH239315   2.248   5.838  14.865  0.7670  0.1411  0.6056
 5967TIP3    H139316   2.261   5.756  14.913  0.8358 -1.2483 -1.6104
 5967TIP3    H239317   2.155   5.859  14.878  0.7469 -0.2963  1.2036
 5968TIP3   OH239318   5.854   6.023   2.787 -0.4340  0.4631 -0.3042
 5968TIP3    H139319   5.818   5.938   2.811 -0.4681  0.2993 -0.9207
 5968TIP3    H239320   5.948   6.015   2.803 -0.2394 -0.1571 -1.6687
 5969TIP3   OH239321   5.019   1.453  14.200 -0.2121  0.4381 -0.4859
 5969TIP3    H139322   4.931   1.456  14.239 -0.4022 -0.3478 -0.8359
 5969TIP3    H239323   5.007   1.491  14.112 -0.5027 -0.8887 -1.0498
 5970TIP3   OH239324   2.736   0.214   2.146  0.3497  0.1731  0.6888
 5970TIP3    H139325   2.642   0.229   2.138  0.6810  1.5056 -1.5665
 5970TIP3    H239326   2.754   0.144   2.083  0.7291 -0.9969  2.0357
 5971TIP3   OH239327   4.107   2.618   5.417 -0.0811  0.0272 -0.3072
 5971TIP3    H139328   4.147   2.667   5.488  0.7157 -0.5417 -0.3456
 5971TIP3    H239329   4.018   2.653   5.410  0.0463  0.5359  0.5277
 5972TIP3   OH239330   0.485   0.202   0.438 -0.3422 -0.0548  0.0431
 5972TIP3    H139331   0.543   0.162   0.374 -0.3423  1.1475 -0.7448
 5972TIP3    H239332   0.398   0.166   0.419 -0.6299  1.3594 -1.6551
 5973TIP3   OH239333   4.535   5.948   2.634  0.0456  0.0100 -0.0952
 5973TIP3    H139334   4.458   5.902   2.602 -0.7136  1.5009 -0.5467
 5973TIP3    H239335   4.541   5.924   2.727  0.0988 -1.4871 -0.4642
 5974TIP3   OH239336   4.282   3.483   3.967 -0.4506  0.0763 -0.4469
 5974TIP3    H139337   4.294   3.412   3.904  0.8551  0.5683 -0.7933
 5974TIP3    H239338   4.202   3.460   4.014  0.4792 -2.2094  0.1869
 5975TIP3   OH239339   3.791   5.990   5.069 -0.2881 -0.0960  0.1723
 5975TIP3    H139340   3.826   5.901   5.075 -1.0694 -0.3354  1.7384
 5975TIP3    H239341   3.711   5.981   5.017  0.8164  0.1082 -1.6322
 5976TIP3   OH239342   4.681   3.730   2.159  0.0531 -0.3651  0.1060
 5976TIP3    H139343   4.650   3.645   2.129  1.9820 -0.3782 -2.1275
 5976TIP3    H239344   4.646   3.792   2.095 -0.7546  0.4724  1.3194
 5977TIP3   OH239345   5.335   5.549   1.065 -0.4133 -0.3852  0.0845
 5977TIP3    H139346   5.365   5.634   1.099  1.0214 -0.4658 -0.9275
 5977TIP3    H239347   5.240   5.560   1.056 -0.2550  1.1349 -0.0699
 5978TIP3   OH239348   1.420   0.659  12.933 -0.1461  0.3509  0.0051
 5978TIP3    H139349   1.326   0.658  12.911  0.0195 -0.3147 -0.7156
 5978TIP3    H239350   1.444   0.567  12.939  0.1547  0.5218  1.6410
 5979TIP3   OH239351   2.400   1.275   4.728  0.0569 -0.1796  0.2768
 5979TIP3    H139352   2.416   1.234   4.643  1.3959 -2.4214  1.5093
 5979TIP3    H239353   2.487   1.305   4.756  0.0565 -1.4318  1.7504
 5980TIP3   OH239354   2.855   5.170  10.032  0.0040  0.5575 -0.0602
 5980TIP3    H139355   2.945   5.154  10.062  0.7221  2.0695 -1.3310
 5980TIP3    H239356   2.843   5.108   9.960 -0.5397 -0.7088  1.0801
 5981TIP3   OH239357   3.971   0.725  10.692 -0.0126 -0.4500  0.0836
 5981TIP3    H139358   3.930   0.692  10.612 -1.4483 -2.2078  1.4499
 5981TIP3    H239359   3.914   0.695  10.762  1.3418  0.8066  1.8125
 5982TIP3   OH239360   1.439   5.864  12.164 -0.0255 -0.5830  0.5130
 5982TIP3    H139361   1.396   5.829  12.242  0.3888 -0.0479  0.9932
 5982TIP3    H239362   1.379   5.931  12.132  0.9636  1.0561  1.9090
 5983TIP3   OH239363   0.781   5.622  14.977 -0.1215 -0.2504 -0.3749
 5983TIP3    H139364   0.798   5.557  15.045  0.6364  0.4078  0.0800
 5983TIP3    H239365   0.741   5.695  15.023  1.4242  0.6648 -0.4127
 5984TIP3   OH239366   0.485   3.320   4.888 -0.3665 -0.7991  0.1422
 5984TIP3    H139367   0.484   3.239   4.837  1.1454  0.0576 -1.3658
 5984TIP3    H239368   0.561   3.310   4.946  0.5918 -0.0143 -0.9253
 5985TIP3   OH239369   4.345   5.550   3.437 -0.5875 -0.9389  0.1663
 5985TIP3    H139370   4.273   5.585   3.489  0.7664  1.8332  0.3577
 5985TIP3    H239371   4.310   5.545   3.348 -1.3664 -0.8316  0.4549
 5986TIP3   OH239372   3.310   2.946   0.525 -0.3473 -0.2921  0.3634
 5986TIP3    H139373   3.368   2.973   0.596 -1.0957  0.2996  0.7680
 5986TIP3    H239374   3.238   3.009   0.528  0.8930  1.4120 -2.6351
 5987TIP3   OH239375   3.534   4.419  13.855  0.2892 -0.0250 -0.0535
 5987TIP3    H139376   3.560   4.478  13.784  1.5334 -0.4712  0.0071
 5987TIP3    H239377   3.553   4.332  13.822 -0.8051 -0.3556  0.1587
 5988TIP3   OH239378   5.416   2.225  13.107  0.5126  0.8032 -0.1720
 5988TIP3    H139379   5.505   2.224  13.072  0.4989  1.1000 -0.2167
 5988TIP3    H239380   5.390   2.317  13.105  0.7052  0.9120  1.0975
 5989TIP3   OH239381   5.763   4.973   4.837 -0.2423  0.7641 -0.4499
 5989TIP3    H139382   5.694   5.021   4.793  0.8861  3.5392  0.5748
 5989TIP3    H239383   5.821   5.040   4.872  2.8262 -1.3698 -0.9434
 5990TIP3   OH239384   6.026   6.221   1.384  0.3866 -0.0486  0.2253
 5990TIP3    H139385   6.003   6.187   1.298  0.0897  0.2324  0.1947
 5990TIP3    H239386   6.044   6.314   1.369  2.3466 -0.3928  0.0826
 5991TIP3   OH239387   1.875   4.948   0.762 -0.0015 -0.0944 -0.0306
 5991TIP3    H139388   1.905   4.893   0.835 -0.3496  0.7973  0.8034
 5991TIP3    H239389   1.792   4.984   0.792 -0.5111 -0.2854 -1.1773
 5992TIP3   OH239390   3.502   5.906  10.542  0.4448  0.0751  0.0351
 5992TIP3    H139391   3.408   5.910  10.528 -0.2224  1.5198  3.7191
 5992TIP3    H239392   3.531   5.997  10.537  1.9042 -0.4240 -1.9208
 5993TIP3   OH239393   0.433   3.472  12.835 -0.1547  0.6754  0.5310
 5993TIP3    H139394   0.488   3.513  12.769 -1.4210  0.4145 -0.7268
 5993TIP3    H239395   0.414   3.385  12.800 -0.6131  0.4186  1.3738
 5994TIP3   OH239396   1.618   6.250  11.568 -0.0187  0.1861  0.4422
 5994TIP3    H139397   1.683   6.320  11.560  0.1588  0.0020  0.2396
 5994TIP3    H239398   1.570   6.270  11.648 -1.0750  1.4533 -0.4735
 5995TIP3   OH239399   0.586   0.402   2.802  0.9041 -0.0874  0.4106
 5995TIP3    H139400   0.622   0.474   2.854  0.6411 -0.3465  0.9640
 5995TIP3    H239401   0.569   0.440   2.716  1.9042  0.1983  0.3267
 5996TIP3   OH239402   4.677   6.882  13.237  0.0258 -0.8472 -0.3006
 5996TIP3    H139403   4.679   6.879  13.332 -0.8596  2.6814 -0.0427
 5996TIP3    H239404   4.632   6.802  13.211 -0.7552 -1.3322  2.3115
 5997TIP3   OH239405   1.879   0.978   5.502 -0.2176 -0.1878  0.0962
 5997TIP3    H139406   1.824   0.970   5.579  0.3337 -3.6808  0.2584
 5997TIP3    H239407   1.828   0.940   5.431  0.4868  0.0932 -0.5865
 5998TIP3   OH239408   0.919   6.670   3.833 -0.6631  0.6367  0.6149
 5998TIP3    H139409   0.866   6.636   3.905 -0.1732 -1.9308 -0.1417
 5998TIP3    H239410   1.000   6.620   3.837  0.7531  2.7459  0.2235
 5999TIP3   OH239411   2.778   3.175  12.545  0.0844  0.4566 -0.0149
 5999TIP3    H139412   2.844   3.191  12.477 -0.0476  1.6541  0.1006
 5999TIP3    H239413   2.759   3.263  12.580 -1.7568  0.1771 -0.2270
 6000TIP3   OH239414   6.587   0.277   1.348 -0.5381 -0.3631 -0.4823
 6000TIP3    H139415   6.579   0.224   1.269 -0.0724 -1.0654 -0.0639
 6000TIP3    H239416   6.604   0.214   1.418 -2.3455  0.0922  0.4346
 6001TIP3   OH239417   2.190   0.817  12.970  0.4210 -0.6274 -0.3187
 6001TIP3    H139418   2.166   0.909  12.982 -2.1995 -1.2989  0.2006
 6001TIP3    H239419   2.285   0.815  12.983  0.3371  1.7593  1.1947
 6002TIP3   OH239420   0.246   3.901  12.639 -0.0195 -0.5717  0.6466
 6002TIP3    H139421   0.287   3.844  12.705  0.0176 -2.1569 -0.6884
 6002TIP3    H239422   0.156   3.911  12.670 -0.2577 -2.0486  0.5049
 6003TIP3   OH239423   0.856   2.284  14.793  0.1011  0.0159 -0.6106
 6003TIP3    H139424   0.766   2.307  14.771 -0.1397 -0.1119  0.1918
 6003TIP3    H239425   0.864   2.192  14.768 -0.6197 -0.5533  1.0908
 6004TIP3   OH239426   6.367   4.854   3.307  0.0298 -0.9593 -0.4335
 6004TIP3    H139427   6.403   4.860   3.395 -0.8124 -1.3225 -0.0521
 6004TIP3    H239428   6.442   4.836   3.251  0.8278  0.9125 -0.0255
 6005TIP3   OH239429   3.750   3.822  15.312 -0.1688  0.4463 -0.2695
 6005TIP3    H139430   3.825   3.882  15.313 -1.5510  2.2661 -0.7085
 6005TIP3    H239431   3.738   3.801  15.219 -0.1261  0.0307 -0.1845
 6006TIP3   OH239432   1.104   0.172  10.634 -0.0015 -0.0894  0.0484
 6006TIP3    H139433   1.128   0.192  10.544  0.0198  0.1392  0.1039
 6006TIP3    H239434   1.060   0.251  10.665 -2.0469 -0.9514 -0.4756
 6007TIP3   OH239435   6.004   0.921  10.598  0.5350 -0.2513  0.4189
 6007TIP3    H139436   5.974   0.885  10.514 -0.4357 -0.4260  0.8267
 6007TIP3    H239437   6.092   0.952  10.580  0.3409 -0.2752 -0.6749
 6008TIP3   OH239438   3.540   6.640   1.585  0.1189 -0.5260  0.2282
 6008TIP3    H139439   3.630   6.637   1.551 -0.6965 -1.5354 -2.0060
 6008TIP3    H239440   3.509   6.550   1.579 -1.2355 -0.0978  0.4184
 6009TIP3   OH239441   1.292   1.334  16.616 -0.0676  0.3715  0.0922
 6009TIP3    H139442   1.365   1.334  16.553  0.1905 -1.3592  0.3304
 6009TIP3    H239443   1.224   1.385  16.574  1.3305  2.2128 -0.0668
 6010TIP3   OH239444   2.508   6.735  12.236 -0.3437  0.8513  0.1820
 6010TIP3    H139445   2.471   6.797  12.173 -0.6216  1.0326  0.5235
 6010TIP3    H239446   2.586   6.779  12.270  0.8133  0.0482 -1.3044
 6011TIP3   OH239447   5.684   4.363   6.451 -0.4188 -0.2050 -0.2435
 6011TIP3    H139448   5.758   4.418   6.477 -1.3400 -0.1576  2.6101
 6011TIP3    H239449   5.721   4.275   6.446 -0.2426 -0.3166  1.9972
 6012TIP3   OH239450   5.543   0.416  11.666 -0.6119  0.1000  0.0248
 6012TIP3    H139451   5.455   0.434  11.633 -0.8838 -0.0322  0.6679
 6012TIP3    H239452   5.600   0.476  11.617 -0.8494 -0.8909 -1.5142
 6013TIP3   OH239453   0.942   4.401  13.510 -0.1688  0.4684  0.8040
 6013TIP3    H139454   1.030   4.435  13.502  0.1953 -0.4484  0.7956
 6013TIP3    H239455   0.889   4.477  13.533  0.1883  1.5104 -1.5204
 6014TIP3   OH239456   3.362   6.827   3.362 -0.1711 -0.5085  0.5802
 6014TIP3    H139457   3.305   6.777   3.421 -1.1011 -0.4687 -0.2497
 6014TIP3    H239458   3.333   6.800   3.275 -1.3782  2.1790  0.0651
 6015TIP3   OH239459   2.758   5.624   5.196 -0.2019  0.1730  0.1367
 6015TIP3    H139460   2.729   5.582   5.115 -0.1625  0.4934 -0.0456
 6015TIP3    H239461   2.851   5.643   5.181 -0.0822 -0.1738  0.4311
 6016TIP3   OH239462   1.344   2.045   1.998  0.1227  0.8482  0.1045
 6016TIP3    H139463   1.385   2.105   1.937  3.2123  1.0326  2.1259
 6016TIP3    H239464   1.349   2.089   2.083  0.6939 -1.4157  1.3245
 6017TIP3   OH239465   1.509   2.541   2.611 -0.6817 -0.2753 -0.2867
 6017TIP3    H139466   1.423   2.522   2.649 -1.1906 -1.7836 -2.0513
 6017TIP3    H239467   1.490   2.597   2.536  0.0558  0.5115  0.0868
 6018TIP3   OH239468   1.277   2.894   3.895 -0.8514  0.2299  0.1856
 6018TIP3    H139469   1.248   2.803   3.893  1.6703 -0.6704 -1.8149
 6018TIP3    H239470   1.319   2.904   3.980 -0.9489 -0.5588  0.3379
 6019TIP3   OH239471   5.834   3.629  13.390  0.0232  0.4376 -0.2555
 6019TIP3    H139472   5.912   3.666  13.431  1.2029 -1.7075 -0.4167
 6019TIP3    H239473   5.761   3.661  13.442  1.1988  0.7267  1.2603
 6020TIP3   OH239474   5.042   5.611   4.623  1.2071 -0.0035  0.1641
 6020TIP3    H139475   5.066   5.533   4.673  2.0500  1.2023  1.7249
 6020TIP3    H239476   5.050   5.683   4.686  2.4107  1.6009 -1.7127
 6021TIP3   OH239477   0.002   4.606   5.055 -0.3221 -0.0559 -0.4927
 6021TIP3    H139478  -0.051   4.528   5.036  0.6009 -1.0368  0.7501
 6021TIP3    H239479  -0.062   4.673   5.080 -1.0278 -1.3813  1.5620
 6022TIP3   OH239480   6.712   6.646   0.060  0.0699 -0.4095 -0.1604
 6022TIP3    H139481   6.670   6.607   0.137  0.1802  0.9696  0.6382
 6022TIP3    H239482   6.689   6.739   0.065  0.0909 -0.2987 -1.8005
 6023TIP3   OH239483   3.831   2.167   0.625 -0.3489 -0.3176 -0.3357
 6023TIP3    H139484   3.804   2.093   0.570  0.6844 -2.4554  1.8227
 6023TIP3    H239485   3.768   2.168   0.696  0.4291 -0.0182  0.3715
 6024TIP3   OH239486   5.123   1.419  14.570  0.2459 -0.1192 -0.3418
 6024TIP3    H139487   5.070   1.471  14.631  1.5846  0.9452 -0.0352
 6024TIP3    H239488   5.063   1.353  14.536 -0.8890  0.1371  1.0788
 6025TIP3   OH239489   4.474   3.104  14.561 -0.3196 -0.6182  0.0482
 6025TIP3    H139490   4.528   3.096  14.640  0.2635  1.8329 -0.0489
 6025TIP3    H239491   4.496   3.027  14.509 -0.4480 -2.1139  2.0792
 6026TIP3   OH239492   3.560   3.331   3.206 -0.2052  0.5604  0.1614
 6026TIP3    H139493   3.612   3.291   3.137  0.2849  0.4802  0.5656
 6026TIP3    H239494   3.477   3.282   3.205 -0.4800  1.0258 -0.8195
 6027TIP3   OH239495   3.312   0.355   0.371  0.3962  0.1573 -0.1796
 6027TIP3    H139496   3.399   0.318   0.357  0.7658  1.7967 -2.9580
 6027TIP3    H239497   3.255   0.305   0.312  0.0415  1.0194 -0.5826
 6028TIP3   OH239498   5.103   4.973   5.252  0.2902 -0.6326 -0.1898
 6028TIP3    H139499   5.099   4.887   5.294  0.1598 -0.6566 -0.2511
 6028TIP3    H239500   5.012   4.993   5.230  0.2444 -0.2159  0.3593
 6029TIP3   OH239501   6.047   2.610   0.796 -0.0848  0.5372  0.2746
 6029TIP3    H139502   5.961   2.629   0.760 -0.9294 -0.1866  1.8010
 6029TIP3    H239503   6.034   2.610   0.891  1.0752 -1.7379  0.5157
 6030TIP3   OH239504   5.640   3.654   2.551 -0.6749 -0.4621 -0.0813
 6030TIP3    H139505   5.573   3.633   2.617 -0.4573 -0.0584  0.2688
 6030TIP3    H239506   5.599   3.631   2.468 -1.3569  0.0300  0.1089
 6031TIP3   OH239507   2.834   2.934   0.045 -0.1313  0.0845  0.4873
 6031TIP3    H139508   2.879   2.943  -0.040  1.1443 -0.1135  1.1054
 6031TIP3    H239509   2.879   2.860   0.087 -0.2931  0.6024  1.6031
 6032TIP3   OH239510   3.169   2.246   1.560  0.0982 -0.1392  0.1524
 6032TIP3    H139511   3.264   2.247   1.555  0.1316  0.3268  0.8049
 6032TIP3    H239512   3.142   2.324   1.510  0.1075  0.2709  0.7759
 6033TIP3   OH239513   0.850   2.210   4.511 -0.0109  0.4269  0.4101
 6033TIP3    H139514   0.768   2.164   4.493  0.8302 -0.6002 -0.9104
 6033TIP3    H239515   0.880   2.175   4.594 -0.9316  0.8633  0.9418
 6034TIP3   OH239516   2.334   1.226   2.121  0.4358  0.7853  0.2631
 6034TIP3    H139517   2.332   1.304   2.178  3.6625  0.6991  0.6899
 6034TIP3    H239518   2.376   1.257   2.040 -1.2228  0.1742 -0.8685
 6035TIP3   OH239519   3.247   0.369  15.215 -0.4473  0.0270 -0.2444
 6035TIP3    H139520   3.155   0.341  15.206 -1.4478  2.3342  1.6677
 6035TIP3    H239521   3.259   0.432  15.145 -0.6806  0.4835  0.1182
 6036TIP3   OH239522   2.313   0.087  16.420  0.0573 -0.0101 -0.0093
 6036TIP3    H139523   2.224   0.052  16.418  0.9387 -2.3895 -0.9450
 6036TIP3    H239524   2.362   0.027  16.476  0.9952  1.5893  0.9787
 6037TIP3   OH239525   6.378   5.201   0.517 -0.5776  0.1542 -0.5071
 6037TIP3    H139526   6.296   5.208   0.567 -1.2528  1.8048 -1.7593
 6037TIP3    H239527   6.361   5.131   0.454  0.0992 -1.5871  1.1479
 6038TIP3   OH239528   4.503   4.033   0.183 -0.1325 -0.1001 -0.6523
 6038TIP3    H139529   4.562   4.001   0.114  0.2688 -0.2574 -0.2453
 6038TIP3    H239530   4.416   4.032   0.143  0.3052  1.4235 -1.6988
 6039TIP3   OH239531   0.834   3.730  12.566 -0.0878 -0.4582  0.0330
 6039TIP3    H139532   0.896   3.753  12.497 -0.8228 -0.0164 -0.4891
 6039TIP3    H239533   0.772   3.671  12.523 -0.6663 -0.0213  0.2651
 6040TIP3   OH239534   5.012   5.110   3.218 -0.3162 -0.4097 -0.1107
 6040TIP3    H139535   5.097   5.125   3.261 -0.4589 -2.2908  0.9390
 6040TIP3    H239536   5.031   5.049   3.148 -0.4862  0.8691 -1.3167
 6041TIP3   OH239537   0.012   6.108   4.367 -0.8862  0.3112 -0.1859
 6041TIP3    H139538   0.025   6.044   4.297  0.7397  0.3504  0.0434
 6041TIP3    H239539  -0.075   6.089   4.401 -0.4028 -1.8747 -0.0435
 6042TIP3   OH239540   5.596   6.886   0.826 -0.5370  0.0001  0.5536
 6042TIP3    H139541   5.650   6.962   0.851  0.8561 -0.8444  0.2355
 6042TIP3    H239542   5.589   6.836   0.907 -1.5324  0.4894  0.7845
 6043TIP3   OH239543   1.013   3.371   1.125 -0.0493 -0.3804 -0.0770
 6043TIP3    H139544   1.088   3.426   1.102 -0.1792 -0.1925 -0.0561
 6043TIP3    H239545   1.042   3.321   1.201 -0.0495 -0.0865  0.1179
 6044TIP3   OH239546   6.433   1.752  12.955 -0.0564 -0.3109 -0.6357
 6044TIP3    H139547   6.434   1.737  12.861 -0.9561  0.9137 -0.8590
 6044TIP3    H239548   6.379   1.680  12.990 -0.5525 -0.2060 -1.1657
 6045TIP3   OH239549   6.852   5.185   4.072 -0.1763  0.2389  0.2761
 6045TIP3    H139550   6.858   5.249   4.143  0.1866  0.6512 -0.1164
 6045TIP3    H239551   6.856   5.238   3.992  0.9896 -0.3278 -0.0669
 6046TIP3   OH239552   1.838   1.392  12.029  0.4026 -0.8707 -0.5070
 6046TIP3    H139553   1.802   1.463  12.082 -0.2233 -1.0398 -0.6993
 6046TIP3    H239554   1.856   1.432  11.944  0.5476 -0.8132 -0.4483
 6047TIP3   OH239555   4.173   0.409   4.787 -0.3834  0.4846 -0.2951
 6047TIP3    H139556   4.204   0.423   4.877  1.1220  2.4654 -1.0555
 6047TIP3    H239557   4.106   0.341   4.795  1.9936 -1.7839  1.8733
 6048TIP3   OH239558   5.681   2.024   4.047  0.5714 -0.2593 -0.2575
 6048TIP3    H139559   5.769   2.041   4.079  0.1302 -1.9666  2.0657
 6048TIP3    H239560   5.677   1.929   4.036 -1.5269 -0.4692  1.6425
 6049TIP3   OH239561   0.529   4.172  13.760  0.4813  0.0249  0.8036
 6049TIP3    H139562   0.573   4.244  13.805  1.2570  0.6830 -0.9181
 6049TIP3    H239563   0.600   4.115  13.730  0.1377  0.5071 -1.0394
 6050TIP3   OH239564   0.853   6.245   5.269  0.0765 -0.7562  0.5903
 6050TIP3    H139565   0.783   6.232   5.334 -1.2745 -0.8970 -0.8248
 6050TIP3    H239566   0.831   6.183   5.199  1.4513 -0.5467 -0.0456
 6051TIP3   OH239567   3.937   0.784   0.441  0.2352  0.2292  0.5558
 6051TIP3    H139568   3.852   0.811   0.477 -0.1786  0.8404 -0.8170
 6051TIP3    H239569   3.987   0.866   0.433  0.1089  0.1946 -0.7524
 6052TIP3   OH239570   1.575   3.016   4.835 -0.0435  0.1352  0.4913
 6052TIP3    H139571   1.561   3.074   4.760  1.4950  1.4656  1.1675
 6052TIP3    H239572   1.570   2.927   4.799 -0.6984  0.7139 -0.9060
 6053TIP3   OH239573   2.850   4.480  12.812  0.7302 -0.5391 -0.2697
 6053TIP3    H139574   2.904   4.550  12.776  0.3979 -0.0164  0.2492
 6053TIP3    H239575   2.913   4.419  12.852  1.0333 -0.6604 -0.9150
 6054TIP3   OH239576   5.542   6.482  13.735 -0.0765 -0.0125  0.5553
 6054TIP3    H139577   5.635   6.492  13.754 -0.7505  3.7124  2.8900
 6054TIP3    H239578   5.507   6.433  13.810 -0.3559  0.7604  0.9339
 6055TIP3   OH239579   0.814   5.879   2.912  0.0242 -0.4682  0.1311
 6055TIP3    H139580   0.879   5.929   2.862 -0.9283 -0.2465 -0.9337
 6055TIP3    H239581   0.779   5.816   2.849 -1.9439  0.5113  0.1935
 6056TIP3   OH239582   6.016   0.892  15.669 -0.0711  0.2501  0.2673
 6056TIP3    H139583   5.922   0.906  15.684 -0.3889 -1.0726 -0.2905
 6056TIP3    H239584   6.031   0.801  15.696  0.9577  0.3084 -0.0593
 6057TIP3   OH239585   5.447   6.367  11.640 -0.5470 -0.0985 -0.8532
 6057TIP3    H139586   5.449   6.286  11.590 -0.5990  0.0247 -1.0540
 6057TIP3    H239587   5.357   6.399  11.630 -0.9728 -0.7786  0.4419
 6058TIP3   OH239588   1.722   3.785  12.994 -0.5065 -0.2167 -0.0347
 6058TIP3    H139589   1.768   3.868  13.008  0.7685 -1.1819  2.0695
 6058TIP3    H239590   1.636   3.798  13.035 -0.2074 -0.0135  0.5376
 6059TIP3   OH239591   0.892   1.017   4.961  0.2507  0.1015 -0.4604
 6059TIP3    H139592   0.801   0.998   4.938  0.1683  1.8112 -1.8052
 6059TIP3    H239593   0.912   0.958   5.033 -0.9386 -2.4785 -2.1116
 6060TIP3   OH239594   6.634   5.632  12.184 -0.8520 -0.0719 -0.2988
 6060TIP3    H139595   6.696   5.652  12.254 -2.5901  2.0544  0.7701
 6060TIP3    H239596   6.688   5.603  12.111  1.3772  1.4953  0.6238
 6061TIP3   OH239597   1.756   3.684  14.948 -0.6631 -0.2431  0.2345
 6061TIP3    H139598   1.752   3.621  15.020  1.8575 -0.0195  0.6318
 6061TIP3    H239599   1.676   3.667  14.897 -1.2610 -2.0705  1.6831
 6062TIP3   OH239600   6.273   1.771  15.076  0.0992 -0.2974  0.1498
 6062TIP3    H139601   6.246   1.683  15.050 -0.2707 -0.6543  1.6657
 6062TIP3    H239602   6.363   1.779  15.044  0.4716 -1.5966  0.8054
 6063TIP3   OH239603   0.196   6.748  13.983  0.3001  0.0894  0.3849
 6063TIP3    H139604   0.215   6.701  13.902 -1.2352  0.4182 -0.2051
 6063TIP3    H239605   0.110   6.716  14.010 -0.2731  1.7007  0.5865
 6064TIP3   OH239606   2.968   0.344  13.934 -0.4617  0.9472 -0.1844
 6064TIP3    H139607   3.051   0.340  13.982 -0.8619  0.6378  0.5059
 6064TIP3    H239608   2.933   0.431  13.954 -0.0220  1.3183 -0.9786
 6065TIP3   OH239609   5.240   1.685  12.148  0.2706  0.2852  0.0606
 6065TIP3    H139610   5.169   1.621  12.144 -0.1275  0.7721 -1.0412
 6065TIP3    H239611   5.227   1.731  12.231 -0.1582 -0.2396  0.2866
 6066TIP3   OH239612   4.711   0.066  15.577  0.3547  0.1495 -0.8550
 6066TIP3    H139613   4.644   0.102  15.518  0.3044 -0.2055 -1.0113
 6066TIP3    H239614   4.717  -0.026  15.554  0.4125  0.0316 -0.3777
 6067TIP3   OH239615   5.486   2.337   0.213  0.1364  0.1599  0.0200
 6067TIP3    H139616   5.534   2.257   0.236  3.2086  1.6855 -0.4898
 6067TIP3    H239617   5.453   2.370   0.296  0.3234 -0.7667  0.4771
 6068TIP3   OH239618   5.470   1.084   5.635 -0.2653  0.1085 -0.3769
 6068TIP3    H139619   5.451   1.153   5.698 -0.7716  0.2655 -0.6995
 6068TIP3    H239620   5.527   1.126   5.570  0.6953 -0.1918  0.2426
 6069TIP3   OH239621   5.427   4.064   2.120  0.0923  0.3482  0.4068
 6069TIP3    H139622   5.425   4.102   2.208  2.2375 -1.2672  1.2518
 6069TIP3    H239623   5.370   3.987   2.126  1.5624 -0.7518  0.9727
 6070TIP3   OH239624   4.353   3.535  15.235 -0.4735  0.1831  0.2368
 6070TIP3    H139625   4.382   3.622  15.208 -0.2538 -0.5720 -2.2075
 6070TIP3    H239626   4.265   3.527  15.198 -0.2013 -0.8868 -0.2042
 6071TIP3   OH239627   0.150   4.920  15.693 -0.1058 -0.3385  0.5199
 6071TIP3    H139628   0.235   4.877  15.704 -0.1062 -0.7028 -0.7230
 6071TIP3    H239629   0.101   4.862  15.634 -1.2046 -0.1090  1.1758
 6072TIP3   OH239630   3.389   3.080  12.325 -0.2118  0.3721 -0.1047
 6072TIP3    H139631   3.305   3.054  12.289 -0.8843  1.5770  0.5369
 6072TIP3    H239632   3.367   3.124  12.407  1.1187 -0.1833  0.5833
 6073TIP3   OH239633   2.780   0.111  11.577 -0.7963  0.1601  0.3598
 6073TIP3    H139634   2.730   0.119  11.495 -0.0223  2.3885  0.0445
 6073TIP3    H239635   2.720   0.142  11.644 -0.5825  0.7516  0.2804
 6074TIP3   OH239636   5.568   6.390  11.138 -0.1476 -0.0518  0.2001
 6074TIP3    H139637   5.545   6.326  11.205  1.9303  0.3276  1.3410
 6074TIP3    H239638   5.654   6.363  11.106  0.5067  1.7786  0.2596
 6075TIP3   OH239639   2.045   5.165   5.279 -0.4659 -0.6847 -0.4094
 6075TIP3    H139640   2.028   5.226   5.351 -2.4098 -2.0643  0.3936
 6075TIP3    H239641   2.043   5.079   5.319  2.0743 -1.3532 -1.5522
 6076TIP3   OH239642   6.380   1.213   2.745  0.3752  0.5405  0.1251
 6076TIP3    H139643   6.411   1.151   2.811  1.3945 -0.7003 -1.4665
 6076TIP3    H239644   6.285   1.207   2.748  0.4394 -0.1629  0.8532
 6077TIP3   OH239645   1.419   5.336  11.466 -0.3092 -0.0965 -0.5717
 6077TIP3    H139646   1.433   5.425  11.499 -0.3569  0.2157 -1.3814
 6077TIP3    H239647   1.505   5.308  11.436 -0.4764  0.0432 -1.1962
 6078TIP3   OH239648   6.535   2.812   3.389 -0.2373  0.2305  0.4902
 6078TIP3    H139649   6.486   2.886   3.425 -2.5397  0.2599 -2.3745
 6078TIP3    H239650   6.481   2.736   3.409 -0.6827  0.0509 -1.2195
 6079TIP3   OH239651   3.956   3.564  16.062  0.0141 -0.4571  0.1611
 6079TIP3    H139652   3.977   3.553  15.969 -0.0794 -0.3284  0.1229
 6079TIP3    H239653   3.937   3.476  16.093  0.9683 -0.6241  0.2876
 6080TIP3   OH239654   1.149   0.204   1.686 -0.4347  0.5654 -0.0179
 6080TIP3    H139655   1.096   0.172   1.613 -2.6442 -0.7359  1.9930
 6080TIP3    H239656   1.085   0.236   1.749  1.1253 -0.8128  2.4474
 6081TIP3   OH239657   1.405   5.763  14.306 -0.3271 -0.0096 -0.0846
 6081TIP3    H139658   1.406   5.812  14.224 -0.7211 -0.1969 -0.2037
 6081TIP3    H239659   1.420   5.829  14.373 -0.5799  0.2299 -0.2615
 6082TIP3   OH239660   5.931   5.630  14.690  0.0285 -0.5662  0.1739
 6082TIP3    H139661   5.850   5.585  14.711 -0.7698  0.6920 -0.0915
 6082TIP3    H239662   5.915   5.721  14.715  0.7491  0.0335 -1.3821
 6083TIP3   OH239663   1.774   2.976   1.281  0.2846 -0.4375 -0.0425
 6083TIP3    H139664   1.758   2.886   1.252  0.9067 -0.4858 -0.2626
 6083TIP3    H239665   1.860   2.998   1.244  0.3512  0.0806  0.4024
 6084TIP3   OH239666   5.315   1.794  12.423  0.9886 -0.1957 -0.1837
 6084TIP3    H139667   5.327   1.865  12.485  0.3082 -0.2541  0.0215
 6084TIP3    H239668   5.392   1.738  12.435  2.4111  1.3419 -1.5175
 6085TIP3   OH239669   0.263   6.418   5.609 -0.8873  0.4160  0.1114
 6085TIP3    H139670   0.357   6.401   5.621 -0.9534  0.0366  0.1064
 6085TIP3    H239671   0.233   6.453   5.693 -0.8282  0.1526  0.2409
 6086TIP3   OH239672   6.120   4.822  14.500  0.4069 -0.5945 -0.2206
 6086TIP3    H139673   6.148   4.803  14.589  0.1104  1.0628  0.2576
 6086TIP3    H239674   6.030   4.853  14.508  0.6315  0.3235 -0.9842
 6087TIP3   OH239675   0.990   3.230   4.579  0.3379 -0.2957 -0.4097
 6087TIP3    H139676   0.911   3.284   4.579 -0.0044 -0.7838 -0.9948
 6087TIP3    H239677   0.968   3.155   4.523  1.3112 -0.2782 -0.8419
 6088TIP3   OH239678   3.761   4.417   0.292  0.3686 -1.0490  0.0981
 6088TIP3    H139679   3.849   4.385   0.275 -0.1022 -2.7305  0.6807
 6088TIP3    H239680   3.723   4.354   0.353 -0.5574  0.7293  1.4832
 6089TIP3   OH239681   5.150   3.738  13.023 -0.1346  0.1138 -0.0453
 6089TIP3    H139682   5.069   3.767  12.983  0.5043  0.4986 -1.1082
 6089TIP3    H239683   5.201   3.819  13.035 -0.6284  0.1482  2.3802
 6090TIP3   OH239684   1.895   5.199  15.100 -0.2921 -0.2541  0.1690
 6090TIP3    H139685   1.802   5.198  15.076 -0.6396  1.9096  1.1807
 6090TIP3    H239686   1.941   5.195  15.016 -1.3785  1.6962 -0.5818
 6091TIP3   OH239687   1.285   5.902  15.917 -0.5133 -0.0949  0.1911
 6091TIP3    H139688   1.191   5.890  15.905 -0.6606  1.1222 -0.0151
 6091TIP3    H239689   1.310   5.834  15.979 -1.4206 -0.7894 -0.1761
 6092TIP3   OH239690   4.170   0.899  15.951 -0.2916  0.2258 -0.5059
 6092TIP3    H139691   4.237   0.942  15.898  0.6597  0.8949  1.1781
 6092TIP3    H239692   4.193   0.806  15.947  0.8392  0.4611  0.1597
 6093TIP3   OH239693   6.728   2.809   5.011 -0.0155  0.1676  0.0770
 6093TIP3    H139694   6.677   2.769   4.940 -0.3176  0.0219  0.3767
 6093TIP3    H239695   6.719   2.748   5.084 -0.3986  0.7378  0.5055
 6094TIP3   OH239696   0.330   0.847  15.384  0.1290 -0.7733  0.1170
 6094TIP3    H139697   0.391   0.905  15.431  0.0270  1.8812 -2.6776
 6094TIP3    H239698   0.377   0.764  15.376  1.0642 -0.5772  2.7498
 6095TIP3   OH239699   0.059   4.187   4.183 -0.1628  0.4684  0.1527
 6095TIP3    H139700   0.008   4.113   4.151  2.1990 -0.6081 -1.3894
 6095TIP3    H239701   0.114   4.151   4.253 -2.2917  1.9007  2.7429
 6096TIP3   OH239702   4.599   5.532  14.292  0.7366  0.6974 -0.3909
 6096TIP3    H139703   4.531   5.557  14.230  1.3042  2.3746 -0.4064
 6096TIP3    H239704   4.669   5.496  14.238  0.0674 -0.6410 -0.4119
 6097TIP3   OH239705   3.529   6.612  16.212 -0.1245 -0.3788 -0.0372
 6097TIP3    H139706   3.487   6.617  16.298  2.0585  1.1340  1.0612
 6097TIP3    H239707   3.614   6.572  16.230 -0.1872 -1.3787 -1.7770
 6098TIP3   OH239708   6.661   0.312  11.683  0.2480  0.0487 -0.4643
 6098TIP3    H139709   6.721   0.378  11.717  1.2176  1.1754 -3.9581
 6098TIP3    H239710   6.582   0.361  11.660  0.8578  0.0541 -2.7975
 6099TIP3   OH239711   0.281   1.122   5.172 -0.2175 -0.4471 -0.4204
 6099TIP3    H139712   0.311   1.153   5.087  2.2501 -0.0874  0.4835
 6099TIP3    H239713   0.250   1.200   5.217  1.1592 -0.1151 -0.0032
 6100TIP3   OH239714   5.397   4.509  13.796 -0.0190 -0.3899  0.4199
 6100TIP3    H139715   5.471   4.481  13.850 -0.3838  1.9018  2.2678
 6100TIP3    H239716   5.437   4.547  13.718  0.6460 -1.1280  0.3928
 6101TIP3   OH239717   4.479   5.356   5.024  0.3499  0.4886 -0.0562
 6101TIP3    H139718   4.383   5.348   5.024  0.2339  1.3450 -2.1300
 6101TIP3    H239719   4.499   5.396   5.108 -0.8433 -1.9383  1.5121
 6102TIP3   OH239720   3.576   1.856   0.195 -0.1608 -0.0523 -1.0015
 6102TIP3    H139721   3.519   1.779   0.195 -0.6265  0.2831 -0.7050
 6102TIP3    H239722   3.596   1.871   0.103  2.7647 -2.5527 -0.9050
 6103TIP3   OH239723   3.244   1.875   2.724 -0.1283 -0.0025 -0.1155
 6103TIP3    H139724   3.172   1.927   2.758  0.6145  0.0566  1.4639
 6103TIP3    H239725   3.203   1.794   2.693 -0.7875 -0.3629  1.6077
 6104TIP3   OH239726   5.177   3.885  11.651  0.1374 -0.0806  0.2157
 6104TIP3    H139727   5.174   3.955  11.586 -1.4167 -0.1075  0.2314
 6104TIP3    H239728   5.127   3.918  11.725  0.0962 -0.8913  0.5570
 6105TIP3   OH239729   2.678   6.377   2.346  0.1068  0.3086  0.4038
 6105TIP3    H139730   2.696   6.429   2.424  1.5603 -1.6949  1.4592
 6105TIP3    H239731   2.672   6.287   2.377 -1.0202 -0.3593 -1.5702
 6106TIP3   OH239732   4.266   2.963  11.976  0.6667  0.4097 -0.3642
 6106TIP3    H139733   4.258   3.055  11.951  0.0065  0.8665  1.3718
 6106TIP3    H239734   4.330   2.963  12.047 -0.9754 -0.1129  1.1895
 6107TIP3   OH239735   1.780   2.173   1.277  0.2912 -0.5608 -0.2213
 6107TIP3    H139736   1.874   2.159   1.262  0.5220 -0.4029  0.9987
 6107TIP3    H239737   1.771   2.268   1.285  0.1271 -0.6187  0.2848
 6108TIP3   OH239738   1.286   5.891  11.333  0.0947  1.0558  0.1881
 6108TIP3    H139739   1.190   5.888  11.329  0.1263 -0.4584 -0.1916
 6108TIP3    H239740   1.306   5.892  11.427 -0.3043 -0.2225  0.3140
 6109TIP3   OH239741   6.572   4.348   1.976 -0.1871 -0.1138  0.0416
 6109TIP3    H139742   6.532   4.339   2.062 -0.8120  1.1635 -0.0887
 6109TIP3    H239743   6.620   4.266   1.963 -0.5165 -0.5422  1.3666
 6110TIP3   OH239744   3.242   4.037  13.810  0.2126 -0.3385  0.2639
 6110TIP3    H139745   3.177   3.967  13.806  0.0334 -0.2266  1.1186
 6110TIP3    H239746   3.314   4.005  13.756 -0.5477 -0.4583 -0.7015
 6111TIP3   OH239747   5.328   4.616   2.489 -0.3046  0.0956 -0.5912
 6111TIP3    H139748   5.365   4.557   2.554 -0.0920 -1.0396 -1.6971
 6111TIP3    H239749   5.324   4.701   2.532 -0.4895 -0.6927  0.9981
 6112TIP3   OH239750   5.444   3.592   4.197  0.1823  0.1209 -0.2822
 6112TIP3    H139751   5.479   3.622   4.281  0.2886  0.7338 -0.5368
 6112TIP3    H239752   5.416   3.672   4.153 -1.7420 -0.3483 -0.0210
 6113TIP3   OH239753   3.454   3.963  11.147 -0.1165  0.4684  0.0677
 6113TIP3    H139754   3.487   3.873  11.155 -0.6819  0.0721 -1.7275
 6113TIP3    H239755   3.531   4.015  11.125  0.2496  0.4815  1.3077
 6114TIP3   OH239756   1.209   2.696  13.481 -0.2967  0.2186  0.2669
 6114TIP3    H139757   1.265   2.622  13.457 -0.0962  0.6077 -0.4801
 6114TIP3    H239758   1.154   2.711  13.405 -0.7718  0.4423  0.6481
 6115TIP3   OH239759   6.378   5.407   0.213  0.3389 -0.7104  0.6543
 6115TIP3    H139760   6.378   5.312   0.207 -2.6000 -0.7498 -0.2122
 6115TIP3    H239761   6.320   5.427   0.287 -0.6223  0.3692 -0.3369
 6116TIP3   OH239762   5.950   0.440  10.224  0.0260 -0.0971 -0.3322
 6116TIP3    H139763   6.038   0.405  10.235 -0.3571 -1.1010 -0.2911
 6116TIP3    H239764   5.953   0.527  10.263  0.4567 -0.9577  1.7010
 6117TIP3   OH239765   2.275   4.961  12.958 -0.0410  0.2661 -0.4290
 6117TIP3    H139766   2.214   4.940  12.888  1.2432 -1.6723 -1.0694
 6117TIP3    H239767   2.346   5.009  12.915  0.6690 -0.7776 -0.4537
 6118TIP3   OH239768   1.771   3.748  16.487  0.2522  0.0268  0.1631
 6118TIP3    H139769   1.693   3.725  16.538 -0.4637  0.8773 -0.5332
 6118TIP3    H239770   1.823   3.802  16.546 -0.3338  0.5853  0.1754
 6119TIP3   OH239771   3.784   2.770   3.502 -0.2303 -0.1534  0.1957
 6119TIP3    H139772   3.737   2.698   3.544 -0.2973  0.0982  0.5659
 6119TIP3    H239773   3.819   2.821   3.575  0.8641 -0.4890 -0.0840
 6120TIP3   OH239774   3.900   6.545   4.952  0.2350  0.0138  0.0353
 6120TIP3    H139775   3.889   6.583   5.039  1.2765 -0.4976  0.4073
 6120TIP3    H239776   3.956   6.607   4.905  1.8826 -0.9651  0.6227
 6121TIP3   OH239777   2.043   6.394   5.369  0.1115 -0.4722 -0.1419
 6121TIP3    H139778   2.061   6.436   5.284  0.8280  0.3666  0.4048
 6121TIP3    H239779   1.957   6.426   5.394 -0.8699 -2.0324 -1.3043
 6122TIP3   OH239780   2.078   4.280   5.493  0.0076  0.3063 -0.2080
 6122TIP3    H139781   2.154   4.231   5.464  0.3320 -0.0068  1.1110
 6122TIP3    H239782   2.012   4.214   5.513  0.5393  0.3354  1.8387
 6123TIP3   OH239783   0.966   5.363   3.257  0.6286  0.1834  0.3285
 6123TIP3    H139784   1.046   5.381   3.306  0.3146  1.1419  0.5205
 6123TIP3    H239785   0.970   5.423   3.183  0.7147 -0.6984 -0.3978
 6124TIP3   OH239786   6.838   5.939  11.260  0.1140 -0.3433 -0.3869
 6124TIP3    H139787   6.785   5.892  11.195 -0.8923 -0.7530  0.7061
 6124TIP3    H239788   6.818   5.896  11.343  0.1158  1.2298  0.4600
 6125TIP3   OH239789   4.285   4.255  11.919 -0.0301  0.1275  0.0929
 6125TIP3    H139790   4.266   4.348  11.934  0.8448  0.4614 -0.7607
 6125TIP3    H239791   4.375   4.254  11.886 -0.2413 -0.9636 -0.5000
 6126TIP3   OH239792   4.461   0.859   2.748 -0.1847 -0.1557  0.5879
 6126TIP3    H139793   4.480   0.808   2.827 -0.4256  0.6648  1.1862
 6126TIP3    H239794   4.409   0.933   2.779 -0.5129  0.0387 -0.3824
 6127TIP3   OH239795   0.034   0.154   1.205 -0.9855 -0.3847  0.4999
 6127TIP3    H139796  -0.026   0.130   1.134 -0.2207 -0.7116 -0.0482
 6127TIP3    H239797   0.006   0.241   1.231  0.1951  0.7662 -1.8340
 6128TIP3   OH239798   4.006   4.842   2.308 -0.0989  0.0341 -0.3250
 6128TIP3    H139799   3.920   4.803   2.325 -0.1516 -0.3623 -1.3782
 6128TIP3    H239800   3.988   4.934   2.292 -0.1408  0.2501  0.8517
 6129TIP3   OH239801   1.801   1.516  10.757  0.1076  0.5378  0.1036
 6129TIP3    H139802   1.831   1.491  10.669 -0.2067  1.5106 -0.2973
 6129TIP3    H239803   1.813   1.437  10.810 -0.1843 -0.2280 -0.9342
 6130TIP3   OH239804   0.663   3.475   2.796 -0.0223 -0.3149 -0.2150
 6130TIP3    H139805   0.745   3.523   2.807  0.2818 -0.6827 -0.7732
 6130TIP3    H239806   0.684   3.386   2.823 -0.0147 -0.5897 -1.0900
 6131TIP3   OH239807   4.985   6.889  11.784 -0.0262  0.5333  0.6305
 6131TIP3    H139808   5.048   6.821  11.806 -1.0450 -0.2644  1.1692
 6131TIP3    H239809   4.982   6.889  11.688 -0.7566 -0.9176  0.6219
 6132TIP3   OH239810   2.049   1.480  10.347  0.4213 -0.0185 -0.9250
 6132TIP3    H139811   2.115   1.431  10.298  0.1969 -0.2500 -1.0036
 6132TIP3    H239812   2.098   1.530  10.411  0.6649 -0.2640 -0.9175
 6133TIP3   OH239813   5.539   4.656  15.240 -0.3860 -0.3672 -0.4429
 6133TIP3    H139814   5.540   4.586  15.304  0.9580  0.4161  0.4578
 6133TIP3    H239815   5.450   4.657  15.206 -0.3372 -2.7726 -0.8244
 6134TIP3   OH239816   0.296   4.546  13.764  0.6402 -0.0635  0.9278
 6134TIP3    H139817   0.388   4.570  13.776  0.7524  0.7199 -1.1441
 6134TIP3    H239818   0.264   4.604  13.694 -0.2135 -3.1397 -1.4699
 6135TIP3   OH239819   2.159   4.179   2.094 -0.5173 -0.7218  0.0356
 6135TIP3    H139820   2.120   4.187   2.181  0.8853 -1.0907  0.7294
 6135TIP3    H239821   2.095   4.129   2.044 -0.8831 -1.4339  1.1734
 6136TIP3   OH239822   4.799   2.623   1.262 -0.7807  0.4369 -0.3464
 6136TIP3    H139823   4.875   2.565   1.251 -1.2730 -0.0271 -1.5658
 6136TIP3    H239824   4.828   2.690   1.323 -0.0598 -0.8803  0.8195
 6137TIP3   OH239825   5.605   3.951  16.490 -0.4258  0.0693 -0.3576
 6137TIP3    H139826   5.587   3.955  16.396 -1.7407 -1.9279 -0.2372
 6137TIP3    H239827   5.576   3.864  16.517  3.1425 -0.8271  1.2826
 6138TIP3   OH239828   1.041   1.291   1.569 -0.2878  0.1513 -0.0362
 6138TIP3    H139829   1.119   1.319   1.618 -0.9893  0.4156  0.9473
 6138TIP3    H239830   1.020   1.366   1.513 -0.0316  0.2036 -0.0643
 6139TIP3   OH239831   6.855   3.434   5.482 -0.3494 -0.4500  0.2238
 6139TIP3    H139832   6.877   3.405   5.570  0.8600 -0.8109 -0.1782
 6139TIP3    H239833   6.939   3.454   5.441 -0.9172  0.1162 -0.7136
 6140TIP3   OH239834   3.679   0.964   4.805 -0.2187 -0.0572 -0.1439
 6140TIP3    H139835   3.753   0.925   4.758 -0.3268  0.3644 -0.6759
 6140TIP3    H239836   3.718   0.998   4.886  0.7400  2.4856 -1.5479
 6141TIP3   OH239837   6.670   2.134  15.382  0.1320 -0.3421 -0.0211
 6141TIP3    H139838   6.621   2.200  15.430  2.1723  0.7517  0.6509
 6141TIP3    H239839   6.734   2.101  15.444  1.4333 -0.4290 -1.3623
 6142TIP3   OH239840   5.397   5.016   5.697 -0.3309  0.4418 -0.5558
 6142TIP3    H139841   5.301   5.023   5.695 -0.4133  0.0847  0.9714
 6142TIP3    H239842   5.424   5.071   5.770  0.4469 -1.0207  0.3162
 6143TIP3   OH239843   6.461   0.405   4.001 -0.0550 -0.3837 -0.1030
 6143TIP3    H139844   6.541   0.434   3.958 -0.2283 -1.8282 -1.5049
 6143TIP3    H239845   6.490   0.359   4.079  0.3100  1.4427  0.8977
 6144TIP3   OH239846   0.692   6.882  13.406  0.1422  0.8089 -0.2574
 6144TIP3    H139847   0.713   6.789  13.405 -3.3719 -0.1341 -0.6212
 6144TIP3    H239848   0.696   6.908  13.314 -0.0886  0.6755 -0.3064
 6145TIP3   OH239849   3.102   2.923   4.023  0.5374 -0.1893 -0.0803
 6145TIP3    H139850   3.184   2.915   4.073  1.0103 -0.3358 -0.8586
 6145TIP3    H239851   3.052   2.990   4.070  0.4824 -1.0973  1.2287
 6146TIP3   OH239852   6.578   3.471  14.430  0.9641 -0.1768 -0.1410
 6146TIP3    H139853   6.609   3.394  14.384  0.7088 -0.9549  0.9385
 6146TIP3    H239854   6.620   3.466  14.516 -0.7836 -0.3480  0.7524
 6147TIP3   OH239855   4.841   6.400  14.646  0.6020  0.3866 -0.1658
 6147TIP3    H139856   4.933   6.388  14.672  0.6868  1.0909 -0.0956
 6147TIP3    H239857   4.833   6.352  14.564  0.7325 -0.6132  0.3860
 6148TIP3   OH239858   1.857   2.482  16.166  0.2583  0.3105 -0.0249
 6148TIP3    H139859   1.838   2.573  16.142  1.8276  0.2602 -1.7215
 6148TIP3    H239860   1.820   2.430  16.094 -2.7033 -0.6798  2.0305
 6149TIP3   OH239861   4.397   2.634   0.454  0.4389 -0.3192  0.0439
 6149TIP3    H139862   4.359   2.623   0.541  2.3709 -0.4182  0.9399
 6149TIP3    H239863   4.403   2.545   0.419  0.2702 -0.3516  0.0978
 6150TIP3   OH239864   4.235   6.009   1.849  0.1368 -0.3437  0.1247
 6150TIP3    H139865   4.205   5.924   1.880  1.0001  0.0543  2.2444
 6150TIP3    H239866   4.185   6.025   1.770 -4.0108 -0.4373  2.4695
 6151TIP3   OH239867   0.498   2.979  16.187 -0.0725  0.3287  0.6567
 6151TIP3    H139868   0.511   2.919  16.112  1.6018  0.1701  1.0308
 6151TIP3    H239869   0.540   2.934  16.260 -1.5905  0.5430  1.6818
 6152TIP3   OH239870   5.517   1.674  14.954 -0.1427  0.2901  0.5551
 6152TIP3    H139871   5.468   1.755  14.942 -1.3826 -0.4959  0.0406
 6152TIP3    H239872   5.606   1.695  14.927 -0.4960  1.4236  0.2294
 6153TIP3   OH239873   0.922   1.048  12.749 -0.1515  0.3291  0.3274
 6153TIP3    H139874   0.832   1.049  12.719  0.3680  0.3260 -1.3579
 6153TIP3    H239875   0.923   1.106  12.825 -1.4386  0.8523 -0.0322
 6154TIP3   OH239876   2.501   5.881   5.623 -0.7345 -0.6177  0.1201
 6154TIP3    H139877   2.495   5.954   5.562  0.6894 -1.0981 -0.6455
 6154TIP3    H239878   2.589   5.888   5.661 -0.8835 -1.4432  0.6579
 6155TIP3   OH239879   6.073   1.463   2.287 -0.1674 -0.2324  0.6056
 6155TIP3    H139880   6.099   1.414   2.365  1.1524  0.5182  0.6554
 6155TIP3    H239881   6.044   1.548   2.320  0.0377 -0.0464  0.3154
 6156TIP3   OH239882   4.426   5.736   4.224 -0.7233 -0.6947 -0.0440
 6156TIP3    H139883   4.465   5.760   4.309 -0.0858 -0.0433 -0.5027
 6156TIP3    H239884   4.478   5.661   4.195 -0.2881 -0.3050 -0.2998
 6157TIP3   OH239885   4.292   1.944  14.144  0.3993 -0.0621 -0.3637
 6157TIP3    H139886   4.290   1.848  14.140  0.8662 -0.1821  1.3834
 6157TIP3    H239887   4.213   1.967  14.194 -0.1289  0.5373 -1.4381
 6158TIP3   OH239888   1.944   5.293   4.304  0.0050 -0.1956 -0.3110
 6158TIP3    H139889   1.928   5.214   4.356  0.7957  0.0456  0.3162
 6158TIP3    H239890   1.912   5.271   4.216  1.4321 -1.7086 -0.4992
 6159TIP3   OH239891   6.639   6.851   4.078  0.2639  0.0247 -0.4222
 6159TIP3    H139892   6.630   6.758   4.056 -0.1340 -0.0508  0.0287
 6159TIP3    H239893   6.548   6.883   4.082  0.4211  0.6373 -1.4079
 6160TIP3   OH239894   3.309   5.382   2.773  0.0855 -0.1420  0.7023
 6160TIP3    H139895   3.324   5.420   2.860  0.6354  1.0817  0.1000
 6160TIP3    H239896   3.214   5.373   2.767 -0.1976  2.2772  0.4656
 6161TIP3   OH239897   2.038   3.386   0.894 -0.4774  0.0821 -0.2096
 6161TIP3    H139898   1.981   3.422   0.825 -0.3289 -0.8759 -0.8528
 6161TIP3    H239899   2.119   3.365   0.849  0.4979  1.6172  0.7397
 6162TIP3   OH239900   2.494   3.383  13.085  0.1258 -0.3004 -0.5201
 6162TIP3    H139901   2.495   3.358  12.993 -2.0895  0.4808 -0.8120
 6162TIP3    H239902   2.405   3.412  13.101  0.4370 -0.4636  1.9026
 6163TIP3   OH239903   2.395   3.190   3.836 -0.5382 -0.2401 -0.2084
 6163TIP3    H139904   2.474   3.164   3.883 -0.3314  0.8577  0.0778
 6163TIP3    H239905   2.337   3.114   3.842  0.6351 -1.2092 -0.7719
 6164TIP3   OH239906   1.761   3.337  14.117  0.0926  0.1530  0.5061
 6164TIP3    H139907   1.693   3.368  14.058  0.1237  2.5038  1.5659
 6164TIP3    H239908   1.722   3.343  14.205  1.8092  2.3273  1.2149
 6165TIP3   OH239909   4.936   1.437   1.379 -1.0896 -0.3762  0.6975
 6165TIP3    H139910   5.003   1.484   1.428  1.1596 -1.9541 -0.6737
 6165TIP3    H239911   4.884   1.392   1.445 -0.2047  0.1299  1.7641
 6166TIP3   OH239912   2.948   2.639  16.087  0.1459 -0.0335  0.2102
 6166TIP3    H139913   2.965   2.582  16.161  0.4823  0.5830  0.6159
 6166TIP3    H239914   2.865   2.608  16.051  0.9119 -1.5595 -0.3363
 6167TIP3   OH239915   3.081   3.629   6.480  0.2408 -0.1036  0.9141
 6167TIP3    H139916   3.008   3.662   6.428  1.5931 -0.4374 -1.3045
 6167TIP3    H239917   3.066   3.664   6.568 -3.8970 -2.0896  1.2626
 6168TIP3   OH239918   6.494   1.269  15.343  0.4715  0.5406  0.3157
 6168TIP3    H139919   6.413   1.318  15.356 -0.1275 -0.3164 -0.0643
 6168TIP3    H239920   6.545   1.324  15.283 -0.0666  0.8321  0.1138
 6169TIP3   OH239921   0.687   5.177   3.419 -0.5984 -0.3197  0.0958
 6169TIP3    H139922   0.772   5.171   3.375 -0.7629 -0.4105 -0.2207
 6169TIP3    H239923   0.687   5.105   3.482 -1.6934 -2.4388 -2.1459
 6170TIP3   OH239924   6.127   1.293  11.148 -0.3198  0.1747 -0.1162
 6170TIP3    H139925   6.214   1.258  11.167 -0.7104 -0.1914  1.0526
 6170TIP3    H239926   6.136   1.387  11.165 -0.0474  0.2078 -0.4225
 6171TIP3   OH239927   5.262   6.354  16.510  0.4834 -0.6006  0.0358
 6171TIP3    H139928   5.339   6.411  16.510  0.2671 -0.3040  0.6378
 6171TIP3    H239929   5.209   6.384  16.584 -1.5011  0.9515 -1.8722
 6172TIP3   OH239930   4.616   3.620   1.003 -0.1452  0.8973  0.7682
 6172TIP3    H139931   4.539   3.643   0.950  0.2181  0.2053 -0.0852
 6172TIP3    H239932   4.673   3.573   0.942  1.7222  2.8415  0.9216
 6173TIP3   OH239933   5.910   1.878  14.989 -0.6401 -0.1818  0.0471
 6173TIP3    H139934   5.870   1.920  14.913 -1.3832  0.9592  1.0464
 6173TIP3    H239935   5.894   1.784  14.975 -1.5938  0.0775 -0.7512
 6174TIP3   OH239936   5.111   0.534  14.879  0.1776  0.0726 -0.4809
 6174TIP3    H139937   5.146   0.449  14.904  2.2951  1.0246  0.0390
 6174TIP3    H239938   5.106   0.583  14.961 -0.3129  0.6900 -0.8676
 6175TIP3   OH239939   6.428   4.550  10.556  0.3460  0.5888  0.5553
 6175TIP3    H139940   6.521   4.548  10.535  0.3025 -2.7459  0.2214
 6175TIP3    H239941   6.420   4.497  10.636 -1.0785  2.4731  1.7456
 6176TIP3   OH239942   3.250   2.070  14.930  0.4254 -0.7291  0.0162
 6176TIP3    H139943   3.246   2.165  14.924 -0.3456 -0.8291 -1.4289
 6176TIP3    H239944   3.344   2.050  14.933  0.5849  0.0851  0.8812
 6177TIP3   OH239945   6.046   4.668  12.367  0.2090 -0.3014 -0.2988
 6177TIP3    H139946   5.962   4.713  12.359 -0.4320 -1.2641  0.7075
 6177TIP3    H239947   6.051   4.641  12.459  0.4640 -2.3969 -0.8660
 6178TIP3   OH239948   3.591   2.185   4.040 -0.1367  0.4108 -0.0384
 6178TIP3    H139949   3.670   2.146   4.076 -1.1760 -0.1430  1.7745
 6178TIP3    H239950   3.528   2.183   4.112 -1.9853  0.3260 -1.5624
 6179TIP3   OH239951   5.888   0.624   5.376 -0.3140  0.0182  0.2624
 6179TIP3    H139952   5.918   0.696   5.320 -1.5054 -0.8010 -1.5460
 6179TIP3    H239953   5.870   0.552   5.315  1.3697 -2.0481  2.0468
 6180TIP3   OH239954   1.975   3.974  16.511 -0.1880  0.2029 -0.5711
 6180TIP3    H139955   2.025   3.920  16.449  1.2236  0.0423  0.6407
 6180TIP3    H239956   1.985   3.929  16.595  2.5147  3.1646  0.8880
 6181TIP3   OH239957   2.942   6.530   0.598 -0.2422  0.0833 -0.1568
 6181TIP3    H139958   2.852   6.531   0.632 -0.0733 -2.2098  0.5036
 6181TIP3    H239959   2.960   6.622   0.575 -1.7780  1.0819  2.2455
 6182TIP3   OH239960   5.132   4.104   2.801  0.5518  0.3241 -0.2355
 6182TIP3    H139961   5.125   4.125   2.708  0.3951  0.5841 -0.1638
 6182TIP3    H239962   5.148   4.009   2.803  0.3157  0.2783 -0.5176
 6183TIP3   OH239963   1.752   5.578   3.586 -0.1196  0.0013 -0.2533
 6183TIP3    H139964   1.765   5.483   3.593 -0.1889  0.0454  0.6870
 6183TIP3    H239965   1.749   5.595   3.492 -0.6749 -1.0078 -0.4384
 6184TIP3   OH239966   1.619   3.227  11.902  0.1397 -0.4758  0.3178
 6184TIP3    H139967   1.703   3.231  11.946  0.4958 -3.5786  0.1794
 6184TIP3    H239968   1.639   3.239  11.809  0.9030 -3.3089  0.0044
 6185TIP3   OH239969   2.331   0.902   2.319 -0.2314  0.5247  0.2768
 6185TIP3    H139970   2.242   0.868   2.320 -0.6437  1.5559  0.1928
 6185TIP3    H239971   2.386   0.828   2.346 -0.8461 -0.8596 -1.9436
 6186TIP3   OH239972   0.711   1.986  16.236  0.5422  0.9348  0.3728
 6186TIP3    H139973   0.748   1.930  16.304 -1.4813 -0.8851  0.1082
 6186TIP3    H239974   0.754   1.958  16.156  1.2449  1.4491  0.5630
 6187TIP3   OH239975   5.427   2.597  12.170 -0.4904  0.2949 -0.0003
 6187TIP3    H139976   5.371   2.628  12.099 -1.1965 -0.4422  0.2139
 6187TIP3    H239977   5.433   2.671  12.230  0.9910  1.3017 -1.3089
 6188TIP3   OH239978   2.409   0.537  13.610 -0.2765  0.4583 -0.1278
 6188TIP3    H139979   2.367   0.476  13.550  0.1828  0.1056 -0.0931
 6188TIP3    H239980   2.339   0.597  13.635 -0.0872  1.7364 -2.4120
 6189TIP3   OH239981   5.611   0.954   0.683  0.2569  0.2090  0.7980
 6189TIP3    H139982   5.521   0.935   0.708  0.0003 -2.8964 -1.7931
 6189TIP3    H239983   5.663   0.887   0.727  0.9729  0.4044  0.2683
 6190TIP3   OH239984   4.702   0.191  12.141  0.2474  0.0081  0.0528
 6190TIP3    H139985   4.717   0.102  12.109  0.5732 -0.7181  2.0747
 6190TIP3    H239986   4.610   0.192  12.168  0.5899 -0.1801  1.3000
 6191TIP3   OH239987   1.428   5.298  11.124  0.0240 -0.2907  0.4263
 6191TIP3    H139988   1.415   5.348  11.044  1.1468  0.1107  0.4833
 6191TIP3    H239989   1.467   5.360  11.186 -0.0071 -0.8282  0.9994
 6192TIP3   OH239990   4.522   6.154   2.167 -0.2866  0.1278  0.1533
 6192TIP3    H139991   4.548   6.241   2.136 -1.4957  0.1034 -1.0146
 6192TIP3    H239992   4.605   6.107   2.175  0.4476  1.5164  1.3265
 6193TIP3   OH239993   1.587   3.371  15.674  0.1469 -0.2419  0.1807
 6193TIP3    H139994   1.525   3.334  15.736 -0.1237 -0.6715 -0.3465
 6193TIP3    H239995   1.639   3.433  15.727 -0.5860 -0.0259  0.6621
 6194TIP3   OH239996   0.986   5.872   0.654  0.0972 -0.1885  0.4280
 6194TIP3    H139997   1.058   5.864   0.592  0.7740  1.0425  1.0229
 6194TIP3    H239998   0.941   5.953   0.629 -0.2555 -0.2333  0.8994
 6195TIP3   OH239999   1.509   3.655  12.603 -0.0928  0.3069 -0.0287
 6195TIP3    H140000   1.496   3.734  12.551  0.9765 -0.7676 -2.0706
 6195TIP3    H240001   1.603   3.656  12.624 -0.1363 -0.2478  0.1946
 6196TIP3   OH240002   5.362   1.537  12.805  0.1648 -0.3365 -0.1029
 6196TIP3    H140003   5.318   1.492  12.733 -1.0978  0.4626  0.1560
 6196TIP3    H240004   5.297   1.597  12.840  0.6365 -0.9335  1.9279
 6197TIP3   OH240005   4.639   1.903   2.844  0.2046  0.1863  0.3079
 6197TIP3    H140006   4.638   1.993   2.812  2.4872  0.8483  1.8170
 6197TIP3    H240007   4.683   1.854   2.775 -0.3012  0.3812 -0.1590
 6198TIP3   OH240008   5.789   5.082   3.296  0.2189  0.7813  0.0332
 6198TIP3    H140009   5.799   5.076   3.391  0.1291  1.6337  0.1082
 6198TIP3    H240010   5.868   5.042   3.260  0.9954  1.8297  0.5064
 6199TIP3   OH240011   3.798   4.544  11.648  0.1233  0.6092  0.2952
 6199TIP3    H140012   3.864   4.508  11.589 -0.2450 -1.4342  1.0531
 6199TIP3    H240013   3.831   4.525  11.736 -0.7309  0.9655  0.7055
 6200TIP3   OH240014   5.348   2.546   0.036  0.9883  0.1387 -0.4925
 6200TIP3    H140015   5.290   2.609   0.078 -0.1701 -0.2734 -1.4145
 6200TIP3    H240016   5.360   2.477   0.101  0.5322  0.2905 -0.2428
 6201TIP3   OH240017   6.452   3.952  13.012 -0.1060 -0.4718  0.6896
 6201TIP3    H140018   6.369   3.980  13.050  0.7153  2.1870  0.6962
 6201TIP3    H240019   6.432   3.940  12.919 -0.9817 -2.1692  1.0558
 6202TIP3   OH240020   5.402   3.989  10.350  0.1746  0.0897  0.1194
 6202TIP3    H140021   5.330   4.050  10.363 -0.4601 -0.5075 -0.5160
 6202TIP3    H240022   5.382   3.945  10.267  0.1740 -1.5869  0.9706
 6203TIP3   OH240023   4.018   1.638   3.925  0.6495  0.5961  0.5949
 6203TIP3    H140024   4.011   1.597   4.012  1.5186 -0.1982  0.3161
 6203TIP3    H240025   3.933   1.623   3.884  0.4295  0.4637  1.0908
 6204TIP3   OH240026   0.283   6.797   0.648  0.0822  0.0069 -0.7167
 6204TIP3    H140027   0.379   6.801   0.652  0.0434  0.5558 -0.2528
 6204TIP3    H240028   0.254   6.885   0.672 -0.5595 -0.3956  0.0625
 6205TIP3   OH240029   0.397   4.690  15.521  0.1900  0.8319  0.1755
 6205TIP3    H140030   0.366   4.751  15.455  0.8490  1.1876  0.1895
 6205TIP3    H240031   0.388   4.604  15.480  2.2870  1.1530 -1.1067
 6206TIP3   OH240032   1.547   0.541   4.752 -0.0374 -0.6010 -0.4373
 6206TIP3    H140033   1.571   0.451   4.730 -0.6983 -1.2182  1.2554
 6206TIP3    H240034   1.475   0.533   4.814  0.4870  1.0663  0.4619
 6207TIP3   OH240035   6.798   6.582   1.105 -0.3461 -0.0893 -0.3330
 6207TIP3    H140036   6.705   6.578   1.084  0.0803 -0.4762 -2.3643
 6207TIP3    H240037   6.827   6.490   1.104  0.6810  0.1720 -3.1229
 6208TIP3   OH240038   2.096   1.954   5.388  0.4988  0.1377 -0.6203
 6208TIP3    H140039   2.190   1.971   5.391  0.5161 -0.1297  2.0000
 6208TIP3    H240040   2.057   2.040   5.372  1.1376  0.4310 -0.6502
 6209TIP3   OH240041   0.246   5.511   3.028 -0.0214  0.0224 -0.4872
 6209TIP3    H140042   0.300   5.448   3.077 -0.3434 -0.5873 -0.9078
 6209TIP3    H240043   0.291   5.519   2.944  0.3496  0.8219 -0.2263
 6210TIP3   OH240044   4.841   4.604   1.283 -0.0820  0.4977  0.2049
 6210TIP3    H140045   4.864   4.516   1.254 -0.5605  0.6629 -0.7415
 6210TIP3    H240046   4.835   4.655   1.201  1.3621  1.7008  0.7993
 6211TIP3   OH240047   1.458   1.359  11.425 -0.2120 -0.1472 -0.1868
 6211TIP3    H140048   1.393   1.308  11.376 -1.0469  0.4170  0.3202
 6211TIP3    H240049   1.410   1.394  11.500  0.9987 -0.8337  0.9562
 6212TIP3   OH240050   3.743   5.714   4.547 -0.0499 -0.1478 -0.5011
 6212TIP3    H140051   3.795   5.664   4.610  0.9802  0.6441 -0.7002
 6212TIP3    H240052   3.803   5.779   4.512 -0.9371  0.2130 -1.4187
 6213TIP3   OH240053   4.833   2.697  14.148  0.1455  0.0657  0.3518
 6213TIP3    H140054   4.813   2.724  14.238 -0.6812  2.4726 -0.4622
 6213TIP3    H240055   4.924   2.668  14.152 -0.3008 -1.3165  2.2080
 6214TIP3   OH240056   2.727   6.059   3.976 -0.1007  0.0875  0.2229
 6214TIP3    H140057   2.716   6.101   3.891 -0.9581  0.0362  0.2980
 6214TIP3    H240058   2.812   6.015   3.971  0.3976  1.0625 -0.1817
 6215TIP3   OH240059   4.931   4.857   3.355 -0.1052  0.2503  0.4626
 6215TIP3    H140060   4.985   4.778   3.349 -1.7330 -0.9791  1.2245
 6215TIP3    H240061   4.991   4.928   3.332  0.9853 -1.3274 -2.1222
 6216TIP3   OH240062   4.231   3.607   5.782  0.4668 -0.1816 -0.2295
 6216TIP3    H140063   4.170   3.560   5.838 -0.2487  1.2975  0.2766
 6216TIP3    H240064   4.206   3.699   5.789  3.1213  0.5947  0.4597
 6217TIP3   OH240065   5.843   1.044   0.221  0.5138  0.1138 -0.3296
 6217TIP3    H140066   5.772   1.085   0.172  1.0065  1.0342 -0.2934
 6217TIP3    H240067   5.915   1.039   0.158 -0.0630 -2.3659 -0.8927
 6218TIP3   OH240068   2.486   4.837  14.066 -0.4347  0.1345 -0.7881
 6218TIP3    H140069   2.439   4.758  14.094 -0.4755 -0.0143 -1.2560
 6218TIP3    H240070   2.446   4.860  13.982 -0.3323  0.5789 -0.7185
 6219TIP3   OH240071   0.031   3.335   1.936  0.2697 -0.0532 -0.2842
 6219TIP3    H140072   0.108   3.390   1.949 -1.5907  2.1790  2.8554
 6219TIP3    H240073  -0.024   3.386   1.876 -0.3025  0.2448  0.4746
 6220TIP3   OH240074   2.353   2.603  12.163 -0.0021  0.4154 -0.8082
 6220TIP3    H140075   2.334   2.588  12.071 -2.8774  1.4755 -0.5122
 6220TIP3    H240076   2.414   2.677  12.164  0.7364 -0.1636 -1.8428
 6221TIP3   OH240077   1.906   0.969   9.971  0.1581  0.4413  0.4843
 6221TIP3    H140078   1.992   0.939   9.941 -0.3758 -0.9990  0.3232
 6221TIP3    H240079   1.900   1.060   9.940  0.5852 -0.2438 -1.7873
 6222TIP3   OH240080   3.544   5.215  10.955  0.0992  0.2913  0.5886
 6222TIP3    H140081   3.626   5.238  10.910  0.2797 -0.6482  0.4177
 6222TIP3    H240082   3.571   5.156  11.025 -0.1246  2.0353  2.2485
 6223TIP3   OH240083   6.455   2.378   9.763  0.4327 -0.1548  0.6907
 6223TIP3    H140084   6.367   2.414   9.754  1.2336  1.4946 -1.2561
 6223TIP3    H240085   6.503   2.445   9.812  1.0475 -0.2065  0.1743
 6224TIP3   OH240086   2.874   4.113  11.333  0.2741 -0.2047 -0.0070
 6224TIP3    H140087   2.855   4.128  11.240 -2.3863 -0.3497  0.4360
 6224TIP3    H240088   2.913   4.195  11.363 -1.6738  1.0283 -0.6233
 6225TIP3   OH240089   1.336   1.565   5.605 -0.0634 -0.2227 -0.6994
 6225TIP3    H140090   1.398   1.497   5.632  0.4476  0.0864 -1.0948
 6225TIP3    H240091   1.326   1.620   5.683  0.9289  0.3046 -0.9311
 6226TIP3   OH240092   6.045   0.791   5.193  0.4928  0.2412 -0.3572
 6226TIP3    H140093   6.124   0.819   5.147  0.8051  1.4444  0.8224
 6226TIP3    H240094   5.973   0.817   5.136  0.9269 -1.6437 -1.8467
 6227TIP3   OH240095   3.292   0.303   5.055 -0.1342 -0.1306  0.1807
 6227TIP3    H140096   3.265   0.354   5.130 -0.3931 -1.3064  0.9152
 6227TIP3    H240097   3.232   0.229   5.053 -0.6707  0.3131 -1.7033
 6228TIP3   OH240098   5.482   2.862   2.673  0.7404  0.2791 -0.1083
 6228TIP3    H140099   5.402   2.861   2.726  0.6043  0.4170 -0.3130
 6228TIP3    H240100   5.479   2.946   2.627  1.1160  0.3878  0.0579
 6229TIP3   OH240101   0.619   4.563  13.578  0.3352 -0.4743  0.8042
 6229TIP3    H140102   0.612   4.493  13.513  0.2706  0.3008 -0.0654
 6229TIP3    H240103   0.633   4.642  13.525  0.3923  0.1678  1.7541
 6230TIP3   OH240104   5.440   1.769  11.391  0.0051 -0.5720  0.0754
 6230TIP3    H140105   5.451   1.741  11.300  0.8322 -1.7874  0.5238
 6230TIP3    H240106   5.411   1.690  11.436 -0.8788  0.1472  0.7853
 6231TIP3   OH240107   6.869   2.602  10.719 -0.2721  0.1619  0.2774
 6231TIP3    H140108   6.819   2.586  10.639  0.3994 -1.5690  0.1577
 6231TIP3    H240109   6.805   2.590  10.789 -0.2482 -1.3493  0.0928
 6232TIP3   OH240110   3.892   5.225   2.003  0.1065  0.0429 -0.5052
 6232TIP3    H140111   3.962   5.191   1.947  0.7151 -0.2708  0.4185
 6232TIP3    H240112   3.811   5.201   1.959  0.5689 -0.7488 -0.9336
 6233TIP3   OH240113   5.685   6.070   0.648  0.3447 -0.5350 -0.2281
 6233TIP3    H140114   5.600   6.031   0.625  0.5555 -0.9845 -0.2542
 6233TIP3    H240115   5.710   6.119   0.570  0.9332 -1.8449 -0.8890
 6234TIP3   OH240116   1.081   0.256   2.051  0.1021 -0.1730  0.0763
 6234TIP3    H140117   1.077   0.325   2.118  0.2157  0.3267 -0.4270
 6234TIP3    H240118   1.012   0.279   1.989  0.1017 -0.5461 -0.0604
 6235TIP3   OH240119   5.225   4.481   0.082  0.5156 -0.4858  0.5565
 6235TIP3    H140120   5.228   4.466  -0.012 -2.3856 -1.0024  0.4561
 6235TIP3    H240121   5.271   4.564   0.094  0.0093  0.1504 -1.4627
 6236TIP3   OH240122   6.525   5.503  11.763  0.3785 -0.2249  0.2361
 6236TIP3    H140123   6.520   5.490  11.858 -0.8910 -0.7455  0.1208
 6236TIP3    H240124   6.434   5.514  11.736  0.8723  2.1579 -0.6370
 6237TIP3   OH240125   1.124   1.454   4.240  0.5259  0.0277  0.7467
 6237TIP3    H140126   1.095   1.364   4.224 -1.7590  0.6944  0.7334
 6237TIP3    H240127   1.134   1.491   4.152 -0.3004  0.2727  0.7452
 6238TIP3   OH240128   6.380   5.808  14.139 -0.0430  0.1192  0.1652
 6238TIP3    H140129   6.364   5.849  14.224  1.2980  1.7782 -0.3313
 6238TIP3    H240130   6.293   5.796  14.102 -0.5560  1.1159  0.9900
 6239TIP3   OH240131   6.483   2.422   5.799 -0.4110 -0.2079  1.2309
 6239TIP3    H140132   6.404   2.419   5.744  0.6815 -0.6991 -0.3655
 6239TIP3    H240133   6.505   2.331   5.815  0.4866 -0.1023  0.6670
 6240TIP3   OH240134   0.249   2.689  15.161  0.0110 -0.6807  0.4736
 6240TIP3    H140135   0.286   2.629  15.225 -0.8051 -4.3728 -2.2209
 6240TIP3    H240136   0.271   2.652  15.076 -2.8209  1.4047 -1.3765
 6241TIP3   OH240137   3.611   6.730  11.220 -0.7499 -0.7257 -0.1113
 6241TIP3    H140138   3.536   6.670  11.219  0.9302 -2.9756  0.4411
 6241TIP3    H240139   3.591   6.792  11.290 -1.6443 -1.8895  0.7053
 6242TIP3   OH240140   4.800   1.015   1.660 -0.3743 -0.6813  0.1448
 6242TIP3    H140141   4.765   0.960   1.590  0.0725 -0.0987 -0.5589
 6242TIP3    H240142   4.758   1.100   1.647 -0.0852 -0.4926  0.4132
 6243TIP3   OH240143   4.897   4.121  16.268  0.4426  0.3080 -0.0777
 6243TIP3    H140144   4.834   4.054  16.241  0.8340  0.3504 -1.1483
 6243TIP3    H240145   4.852   4.169  16.338 -0.1010 -0.6438  0.2472
 6244TIP3   OH240146   2.987   6.826   0.658  0.1814  0.5923  0.1502
 6244TIP3    H140147   3.075   6.806   0.690 -0.1412 -3.5193 -1.0398
 6244TIP3    H240148   2.934   6.836   0.737  1.1308 -0.0587  0.8873
 6245TIP3   OH240149   6.643   3.702  15.140 -0.4435  0.8381  0.0427
 6245TIP3    H140150   6.709   3.641  15.173 -1.1463  0.1456  0.2075
 6245TIP3    H240151   6.660   3.784  15.186 -1.2870 -0.0511  2.0218
 6246TIP3   OH240152   5.598   0.182   1.237  0.3271  0.1276 -0.1130
 6246TIP3    H140153   5.670   0.148   1.183  2.5201  2.1362  1.3332
 6246TIP3    H240154   5.574   0.265   1.195  0.1142  0.3527  0.4477
 6247TIP3   OH240155   1.184   2.191  13.874  0.2583 -0.2374  0.7076
 6247TIP3    H140156   1.230   2.111  13.900 -0.2900 -0.9148 -0.3208
 6247TIP3    H240157   1.103   2.189  13.926 -0.6918 -1.4284 -0.7134
 6248TIP3   OH240158   1.283   1.409  14.559  0.6014  0.8743  0.0239
 6248TIP3    H140159   1.287   1.340  14.492 -1.3292  2.6551 -2.0623
 6248TIP3    H240160   1.193   1.441  14.555  1.5298  3.7919  0.6419
 6249TIP3   OH240161   6.559   6.515   0.755  0.3649 -0.7090 -0.4026
 6249TIP3    H140162   6.529   6.490   0.668 -2.3079  1.1044 -0.1036
 6249TIP3    H240163   6.562   6.610   0.753  1.5082 -0.6733  1.1548
 6250TIP3   OH240164   2.038   5.950  15.342 -0.1900  0.0197 -0.4792
 6250TIP3    H140165   1.981   6.021  15.311  0.0743  0.5256  0.1507
 6250TIP3    H240166   2.005   5.872  15.298 -0.9832  0.4036 -0.5985
 6251TIP3   OH240167   5.545   0.702  14.766  0.2559  0.1625 -0.5069
 6251TIP3    H140168   5.547   0.629  14.704  1.5950 -0.1969 -0.0592
 6251TIP3    H240169   5.583   0.667  14.846  1.5485  1.5347 -0.4908
 6252TIP3   OH240170   6.539   4.634   0.752  0.3881  0.1411 -0.1847
 6252TIP3    H140171   6.447   4.641   0.728  0.5749  2.1064 -0.5099
 6252TIP3    H240172   6.579   4.585   0.680 -0.0808  0.9694 -1.0252
 6253TIP3   OH240173   6.214   1.828  10.788  0.0719  0.5784  0.1365
 6253TIP3    H140174   6.307   1.839  10.810  1.3093  1.0280 -4.3707
 6253TIP3    H240175   6.190   1.746  10.829  3.1375 -0.6241 -0.1803
 6254TIP3   OH240176   0.456   0.986  14.369 -0.0953  0.1459 -0.7833
 6254TIP3    H140177   0.389   1.039  14.327 -1.7258 -0.4250  0.9153
 6254TIP3    H240178   0.505   1.048  14.424  0.2398  0.4343 -1.4030
 6255TIP3   OH240179   6.360   1.118  13.241  0.5220 -0.6233  0.3759
 6255TIP3    H140180   6.393   1.052  13.301 -0.5570 -0.4929  1.1230
 6255TIP3    H240181   6.324   1.068  13.168 -1.0277 -0.9215  1.3099
 6256TIP3   OH240182   4.835   0.155   1.541  0.1076 -0.1615  0.9520
 6256TIP3    H140183   4.909   0.206   1.575 -0.3224 -0.1060  1.8561
 6256TIP3    H240184   4.874   0.079   1.500  0.7029  0.2615  0.7244
 6257TIP3   OH240185   4.272   4.903   4.774  0.1972 -0.0897 -0.2552
 6257TIP3    H140186   4.289   4.903   4.868 -1.9267  1.2049  0.2016
 6257TIP3    H240187   4.328   4.834   4.739  0.1824 -1.3965  2.1203
 6258TIP3   OH240188   1.515   5.316   3.442  0.1139 -0.3524 -0.4487
 6258TIP3    H140189   1.470   5.371   3.505  0.0538  0.0311 -0.8195
 6258TIP3    H240190   1.578   5.375   3.400  2.3351 -1.2735  1.3701
 6259TIP3   OH240191   6.872   0.286  13.873  0.5091  0.4687 -0.1875
 6259TIP3    H140192   6.953   0.263  13.829  0.0964  0.4685 -0.9588
 6259TIP3    H240193   6.887   0.375  13.906  1.0301  0.2416  0.1973
 6260TIP3   OH240194   1.216   2.487  13.729  0.4699  0.1440  0.0486
 6260TIP3    H140195   1.148   2.504  13.794  0.2989 -0.3817  0.0105
 6260TIP3    H240196   1.168   2.470  13.648  0.6471 -0.1890  0.0123
 6261TIP3   OH240197   3.147   0.992   3.771 -0.4645  0.3333 -0.4762
 6261TIP3    H140198   3.057   0.959   3.763 -1.2343  2.0805  0.3934
 6261TIP3    H240199   3.185   0.980   3.684 -1.9405  0.6032 -1.1951
 6262TIP3   OH240200   4.252   3.943  14.059 -0.1821  0.2882  0.1872
 6262TIP3    H140201   4.277   3.855  14.032  1.5792  1.0034 -0.6494
 6262TIP3    H240202   4.334   3.983  14.090 -1.0449  1.4634  1.0613
 6263TIP3   OH240203   5.930   3.102  10.291  0.2311 -0.4001  0.0959
 6263TIP3    H140204   5.867   3.067  10.229  1.3043 -1.3316 -0.5170
 6263TIP3    H240205   5.879   3.124  10.369 -1.1442  0.8176 -1.0943
 6264TIP3   OH240206   5.414   2.820  10.229 -0.1332 -0.2496 -0.0653
 6264TIP3    H140207   5.378   2.734  10.248 -0.5799 -0.1765 -0.5381
 6264TIP3    H240208   5.348   2.861  10.172 -0.9184  1.1666  1.7594
 6265TIP3   OH240209   3.451   1.948   0.945 -0.4293 -0.1691  0.1419
 6265TIP3    H140210   3.385   2.013   0.969  0.4796  1.5300 -1.6801
 6265TIP3    H240211   3.457   1.891   1.022 -2.2506  1.0688  1.2912
 6266TIP3   OH240212   0.245   4.385   2.350  0.2533 -0.3459  0.6382
 6266TIP3    H140213   0.284   4.445   2.414  1.5116 -0.4899  0.0334
 6266TIP3    H240214   0.222   4.307   2.401 -0.8908  0.4141  1.3244
 6267TIP3   OH240215   1.337   2.583   3.503  0.4511 -0.2617 -0.0974
 6267TIP3    H140216   1.407   2.526   3.474  0.5980 -0.1075 -0.0474
 6267TIP3    H240217   1.340   2.658   3.443  0.0841 -0.4332 -0.3351
 6268TIP3   OH240218   5.261   2.957   5.370 -0.3756  0.0261  0.1093
 6268TIP3    H140219   5.172   2.927   5.349  0.1938 -1.0491 -0.9238
 6268TIP3    H240220   5.310   2.945   5.289  0.4585  1.7024  0.3267
 6269TIP3   OH240221   0.589   2.164   2.207 -0.6253  0.0792  0.2959
 6269TIP3    H140222   0.626   2.246   2.239 -2.7329  0.5961  1.5857
 6269TIP3    H240223   0.584   2.174   2.112  2.4810 -0.0706  0.0136
 6270TIP3   OH240224   6.424   4.384   3.219  0.4909  0.8419  0.4454
 6270TIP3    H140225   6.442   4.437   3.297 -1.4160  1.9250  0.2161
 6270TIP3    H240226   6.395   4.447   3.153 -0.9695 -0.3866 -0.1377
 6271TIP3   OH240227   0.220   2.667   0.220 -0.0709  0.1171 -0.5343
 6271TIP3    H140228   0.211   2.650   0.126  0.5737 -0.5889 -0.4735
 6271TIP3    H240229   0.138   2.711   0.244 -0.8222 -0.9166 -1.1571
 6272TIP3   OH240230   6.235   3.067   3.951 -0.3983 -0.3182  0.2682
 6272TIP3    H140231   6.330   3.057   3.937 -0.4482 -1.1372  0.5111
 6272TIP3    H240232   6.220   3.161   3.939  0.3285 -0.2844 -0.4979
 6273TIP3   OH240233   6.499   0.786   0.114  0.3289 -0.4126 -0.2358
 6273TIP3    H140234   6.541   0.701   0.128  0.1018 -0.2218  2.1000
 6273TIP3    H240235   6.405   0.767   0.114  0.2577 -0.1204  0.9050
 6274TIP3   OH240236   5.042   5.098  11.340 -0.3930 -0.7531  0.3194
 6274TIP3    H140237   4.978   5.157  11.299  1.8593  0.3826 -1.7881
 6274TIP3    H240238   5.070   5.145  11.419  0.2694  0.3540 -0.5431
 6275TIP3   OH240239   2.134   1.492   4.537 -0.3890  0.3055 -0.4680
 6275TIP3    H140240   2.086   1.533   4.609 -0.5264  1.4686 -1.1906
 6275TIP3    H240241   2.077   1.505   4.461  0.2437  0.0619 -0.9854
 6276TIP3   OH240242   4.012   1.556   0.067  0.4197 -0.1036  0.3494
 6276TIP3    H140243   3.969   1.471   0.066  2.1817 -1.0777 -1.5577
 6276TIP3    H240244   3.965   1.608   0.001 -0.8161  0.5495  1.6907
 6277TIP3   OH240245   4.149   2.608   2.344  0.2198  0.1201 -0.4952
 6277TIP3    H140246   4.177   2.518   2.361  0.2355  0.1101 -0.5746
 6277TIP3    H240247   4.231   2.657   2.338  0.1881  0.3310  0.5989
 6278TIP3   OH240248   4.025   1.441   5.322 -0.1213 -0.3927  0.5573
 6278TIP3    H140249   3.936   1.452   5.355 -0.3441 -0.8314  0.1123
 6278TIP3    H240250   4.061   1.369   5.374 -0.5097 -1.1566 -0.2318
 6279TIP3   OH240251   3.350   1.112   2.627  0.0488  0.0810 -0.4002
 6279TIP3    H140252   3.269   1.092   2.675 -0.4516 -0.8475 -1.5664
 6279TIP3    H240253   3.366   1.204   2.645 -1.6006  0.4439 -0.5668
 6280TIP3   OH240254   5.516   1.184  16.045  0.0181 -0.2998 -0.0404
 6280TIP3    H140255   5.568   1.170  15.966 -0.1175 -0.0193 -0.1827
 6280TIP3    H240256   5.535   1.275  16.070 -0.5414 -0.1328 -0.1989
 6281TIP3   OH240257   6.762   2.016  15.722  0.0163 -0.1215  0.1677
 6281TIP3    H140258   6.778   1.981  15.810 -0.2515 -1.0013 -0.1268
 6281TIP3    H240259   6.675   2.055  15.727 -0.4950 -1.2210 -0.0215
 6282TIP3   OH240260   2.413   1.117  14.187  0.4300  0.1390  0.2240
 6282TIP3    H140261   2.346   1.103  14.120 -0.6799 -0.6049  1.4447
 6282TIP3    H240262   2.364   1.128  14.268  1.6870  2.2950  0.7576
 6283TIP3   OH240263   5.845   3.675   5.941  0.0979  0.0684 -0.6406
 6283TIP3    H140264   5.775   3.660   5.878  0.7153 -0.6714 -1.1684
 6283TIP3    H240265   5.845   3.597   5.997 -1.4470  1.3530  1.3130
 6284TIP3   OH240266   1.635   5.995  16.694 -0.5161 -0.3396  0.4102
 6284TIP3    H140267   1.725   6.022  16.716  0.3455 -2.9381  0.3634
 6284TIP3    H240268   1.580   6.065  16.730  1.3956  0.3032  2.3260
 6285TIP3   OH240269   6.072   2.403  10.646 -0.0629 -0.0509 -0.2303
 6285TIP3    H140270   6.139   2.469  10.629  1.0483 -0.5848  1.8088
 6285TIP3    H240271   6.119   2.328  10.682 -1.6819 -0.6714  0.7348
 6286TIP3   OH240272   6.495   2.786  15.243  0.1928  0.0265 -0.0625
 6286TIP3    H140273   6.558   2.741  15.188 -0.7721  0.0515 -1.2257
 6286TIP3    H240274   6.422   2.724  15.252  0.5882 -0.2322  1.7266
 6287TIP3   OH240275   5.177   1.734  13.687 -0.0838 -0.2240  0.2658
 6287TIP3    H140276   5.101   1.695  13.730  1.6540 -2.4533  1.5927
 6287TIP3    H240277   5.161   1.724  13.594 -1.1915 -1.1307  0.5363
 6288TIP3   OH240278   0.295   4.678  14.089  0.0151 -0.0589 -0.1700
 6288TIP3    H140279   0.346   4.734  14.031 -0.6480 -1.3210 -2.0697
 6288TIP3    H240280   0.225   4.735  14.122 -1.7002 -0.0579 -3.4238
 6289TIP3   OH240281   4.663   1.309  11.500 -0.0416 -0.0497  0.2059
 6289TIP3    H140282   4.610   1.280  11.574  0.0815 -0.8723 -0.0113
 6289TIP3    H240283   4.753   1.286  11.525 -0.0966 -1.2409 -0.5851
 6290TIP3   OH240284   5.009   2.872   5.277 -0.3179 -0.4332  0.2019
 6290TIP3    H140285   4.924   2.867   5.320 -0.0298 -1.3389  0.7085
 6290TIP3    H240286   4.989   2.896   5.187 -1.1112 -0.6683  0.3074
 6291TIP3   OH240287   3.630   2.831   0.849 -0.2501 -0.3114  0.1845
 6291TIP3    H140288   3.613   2.737   0.853  1.5123 -0.6222  2.7946
 6291TIP3    H240289   3.571   2.868   0.915 -1.9421  0.6868 -1.7782
 6292TIP3   OH240290   3.956   5.544  14.331  0.1917 -0.0555  0.6270
 6292TIP3    H140291   3.993   5.475  14.385 -1.0115 -0.6582  0.7262
 6292TIP3    H240292   3.862   5.541  14.350 -0.0496  0.7275 -0.3667
 6293TIP3   OH240293   5.048   0.463   0.231  0.1573  0.3920  0.0163
 6293TIP3    H140294   4.959   0.441   0.204 -0.7132  2.4508  0.9547
 6293TIP3    H240295   5.047   0.454   0.327  1.4292 -0.9752 -0.0573
 6294TIP3   OH240296   4.665   3.296  11.493  0.0560 -0.2101  0.1422
 6294TIP3    H140297   4.721   3.364  11.457  0.2524 -0.2380  0.3861
 6294TIP3    H240298   4.600   3.279  11.425  1.7902 -1.9173 -1.1876
 6295TIP3   OH240299   2.008   0.141   2.420 -0.3469  0.1505 -0.2682
 6295TIP3    H140300   1.990   0.049   2.403 -0.6090 -0.1089  1.2346
 6295TIP3    H240301   2.102   0.144   2.437 -0.4722 -0.0137  0.5274
 6296TIP3   OH240302   4.015   3.019   5.145  0.3317  0.1187 -0.0013
 6296TIP3    H140303   3.921   3.007   5.159  0.3938  1.9068  2.4894
 6296TIP3    H240304   4.021   3.047   5.053 -1.7277  1.0852  0.0842
 6297TIP3   OH240305   2.883   4.881   2.639 -0.7807 -0.0128  0.2269
 6297TIP3    H140306   2.796   4.896   2.604 -0.1304  1.8975 -0.7303
 6297TIP3    H240307   2.906   4.963   2.682  0.2620 -0.7454  1.1421
 6298TIP3   OH240308   0.879   0.845  13.704 -0.0390 -0.2469  0.5553
 6298TIP3    H140309   0.829   0.859  13.784  0.7885 -0.3613  1.1110
 6298TIP3    H240310   0.944   0.915  13.705 -1.3248  1.0520 -1.1088
 6299TIP3   OH240311   0.970   6.280  13.578 -0.2549  0.2969  0.4584
 6299TIP3    H140312   0.911   6.354  13.565  0.2604  0.8368  1.1515
 6299TIP3    H240313   1.055   6.319  13.598  1.0846 -0.3908 -3.1906
 6300TIP3   OH240314   6.359   6.759   4.342 -0.5255  0.6120  0.3532
 6300TIP3    H140315   6.419   6.689   4.314 -0.7104  0.8973 -0.8305
 6300TIP3    H240316   6.409   6.809   4.406 -0.0526 -0.0611  0.5185
 6301TIP3   OH240317   1.899   5.321   1.280  0.2501 -0.2267  0.1782
 6301TIP3    H140318   1.946   5.245   1.247 -1.3333 -0.8856 -0.6671
 6301TIP3    H240319   1.860   5.292   1.363 -1.1014 -0.6756 -0.5800
 6302TIP3   OH240320   5.949   1.141  11.003 -0.3787  0.6481  0.2867
 6302TIP3    H140321   6.010   1.209  11.032 -1.1566  2.3100 -1.7016
 6302TIP3    H240322   6.003   1.082  10.951 -0.1855  1.3273 -0.3038
 6303TIP3   OH240323   1.432   1.356  15.161  0.0631  0.1230 -0.1628
 6303TIP3    H140324   1.422   1.266  15.130  0.3317  0.3658 -0.9776
 6303TIP3    H240325   1.344   1.393  15.157 -0.1502 -0.2566  0.7031
 6304TIP3   OH240326   0.996   1.484  14.458  0.3788  1.0168 -0.5286
 6304TIP3    H140327   0.995   1.425  14.383  1.5819  0.2923  0.0011
 6304TIP3    H240328   0.985   1.571  14.419 -0.2557  0.5536 -1.4203
 6305TIP3   OH240329   3.908   6.075  13.756  0.1852  0.1789  0.6270
 6305TIP3    H140330   3.992   6.088  13.710  0.1562  1.3482  0.8727
 6305TIP3    H240331   3.932   6.029  13.837  0.8672  2.0833  1.5597
 6306TIP3   OH240332   1.492   4.615  13.853  0.0775  0.1503 -0.0747
 6306TIP3    H140333   1.424   4.551  13.834 -0.7060  0.7239  0.6757
 6306TIP3    H240334   1.447   4.699  13.850  1.0857  0.6728 -1.0258
 6307TIP3   OH240335   4.823   1.809   1.859 -0.2710 -0.3300  0.1549
 6307TIP3    H140336   4.742   1.758   1.851  0.0050 -0.6124 -0.9515
 6307TIP3    H240337   4.893   1.747   1.842  0.0597  0.4464 -1.5435
 6308TIP3   OH240338   5.466   4.593   3.389 -0.1163  0.0342 -0.2151
 6308TIP3    H140339   5.386   4.645   3.394 -0.9016 -0.9911 -1.5011
 6308TIP3    H240340   5.537   4.658   3.383 -0.6679  0.9854  2.4056
 6309TIP3   OH240341   3.061   0.404  14.601  0.3482  0.4198 -0.0330
 6309TIP3    H140342   3.053   0.375  14.510  2.0161  0.0431 -0.0924
 6309TIP3    H240343   3.143   0.365  14.631 -0.2729  0.3853  1.7008
 6310TIP3   OH240344   2.316   3.896   4.980  0.7010  0.2467  0.2882
 6310TIP3    H140345   2.271   3.966   4.933  0.5572  0.0022  0.0615
 6310TIP3    H240346   2.321   3.927   5.070 -0.1500  0.1697  0.3669
 6311TIP3   OH240347   6.296   1.026  14.024  0.2991  0.0851 -0.3115
 6311TIP3    H140348   6.346   1.092  14.072 -0.7291 -0.1158  1.1023
 6311TIP3    H240349   6.361   0.959  14.001  1.3339  1.4984 -1.6775
 6312TIP3   OH240350   1.727   6.370  14.432  0.0007 -0.1317 -0.0556
 6312TIP3    H140351   1.636   6.343  14.443  0.7972 -2.9585  0.6079
 6312TIP3    H240352   1.765   6.301  14.377  1.3984  1.8698 -1.7499
 6313TIP3   OH240353   2.791   2.221  14.367  0.3484  0.5146 -0.4025
 6313TIP3    H140354   2.728   2.262  14.426 -1.7258 -0.9719 -1.4489
 6313TIP3    H240355   2.842   2.162  14.423 -1.0888 -0.3324  0.0597
 6314TIP3   OH240356   3.452   2.923  11.028 -0.1315 -0.3426  0.4940
 6314TIP3    H140357   3.495   2.993  11.077 -0.3479  0.0739  0.1043
 6314TIP3    H240358   3.460   2.950  10.937  0.9406 -1.4913  0.2249
 6315TIP3   OH240359   5.041   3.486  16.590  0.2106  0.0404  0.0875
 6315TIP3    H140360   5.035   3.473  16.684 -0.8951 -1.9026 -0.1944
 6315TIP3    H240361   5.135   3.477  16.571  0.6044  1.6493  1.1058
 6316TIP3   OH240362   3.596   2.818  16.548 -0.3532  0.6631  0.0887
 6316TIP3    H140363   3.565   2.898  16.505 -0.8469  0.2247 -0.4010
 6316TIP3    H240364   3.597   2.839  16.641 -1.7899  0.8209  0.0880
 6317TIP3   OH240365   6.058   1.795  12.217 -0.7866 -0.2913  0.2374
 6317TIP3    H140366   6.036   1.727  12.154 -1.5842  0.1607  0.0209
 6317TIP3    H240367   6.054   1.876  12.167 -2.3972  0.1817  1.0771
 6318TIP3   OH240368   4.690   5.724  11.581  0.5348 -0.3373  0.3852
 6318TIP3    H140369   4.690   5.812  11.544 -0.3729 -0.7352 -0.6344
 6318TIP3    H240370   4.763   5.680  11.537  1.4276  0.0890  1.4074
 6319TIP3   OH240371   4.863   3.449   2.521  0.5797 -0.2600 -0.1657
 6319TIP3    H140372   4.874   3.463   2.615 -2.8786 -0.2661  0.3873
 6319TIP3    H240373   4.847   3.536   2.485 -1.7311 -0.5656 -0.0374
 6320TIP3   OH240374   4.558   5.434   1.550 -0.2403 -0.7772 -0.1783
 6320TIP3    H140375   4.634   5.420   1.606 -0.9364 -0.5989  0.8286
 6320TIP3    H240376   4.517   5.348   1.542 -1.3009 -0.4460  1.3147
 6321TIP3   OH240377   0.589   3.682   0.618  0.4816 -1.1197 -0.0655
 6321TIP3    H140378   0.608   3.734   0.540 -0.3756  1.0293  1.0695
 6321TIP3    H240379   0.572   3.594   0.584 -1.5031  0.0719 -2.5131
 6322TIP3   OH240380   6.268   2.008  13.782 -0.0161 -0.5142  0.4895
 6322TIP3    H140381   6.234   1.929  13.824  0.9861 -0.8053  0.7842
 6322TIP3    H240382   6.288   2.067  13.855  0.3527 -0.4530  0.3409
 6323TIP3   OH240383   1.299   0.298   4.581 -0.1211  0.2662  0.1202
 6323TIP3    H140384   1.340   0.214   4.601  0.2020  0.3184 -0.2981
 6323TIP3    H240385   1.352   0.334   4.509  0.0696  1.0729  0.6508
 6324TIP3   OH240386   3.108   2.232  16.631 -0.4650  0.1142 -0.2310
 6324TIP3    H140387   3.100   2.282  16.713 -1.8379 -0.6666  0.1503
 6324TIP3    H240388   3.146   2.149  16.658  0.1513  0.2830 -0.5783
 6325TIP3   OH240389   1.418   1.876   1.605  0.7472  0.1849  0.0404
 6325TIP3    H140390   1.340   1.918   1.641 -0.3402 -0.9751 -0.8455
 6325TIP3    H240391   1.388   1.838   1.522  2.8652  1.7984 -1.5577
 6326TIP3   OH240392   2.058   3.980   0.823  0.1149 -0.4695 -0.5970
 6326TIP3    H140393   1.973   3.944   0.801  0.3850 -1.2694 -0.3605
 6326TIP3    H240394   2.073   3.954   0.914  0.8374 -0.8171 -0.8026
 6327TIP3   OH240395   3.985   0.855  16.658 -0.3157  0.3562  0.2146
 6327TIP3    H140396   4.059   0.846  16.597 -1.4348 -1.0102 -1.0178
 6327TIP3    H240397   3.913   0.886  16.603 -0.7288  1.4659  1.3547
 6328TIP3   OH240398   2.509   0.096  13.275  0.4628 -0.1733 -0.6243
 6328TIP3    H140399   2.572   0.028  13.296 -0.4537 -0.8486 -0.0165
 6328TIP3    H240400   2.493   0.086  13.181 -1.1136 -2.1002 -0.2209
 6329TIP3   OH240401   4.561   0.733   5.078  0.3031  0.2773  0.1387
 6329TIP3    H140402   4.478   0.779   5.084 -0.9134 -1.8300  0.5108
 6329TIP3    H240403   4.572   0.690   5.163  1.1991 -0.3797 -0.2846
 6330TIP3   OH240404   1.417   6.570   3.332  0.4202 -0.1369 -0.3102
 6330TIP3    H140405   1.454   6.642   3.282  2.0244 -0.0433  0.9307
 6330TIP3    H240406   1.350   6.532   3.275  0.0763  1.8427 -1.2750
 6331TIP3   OH240407   1.196   6.150  14.186  0.7013  0.3063  0.3668
 6331TIP3    H140408   1.277   6.191  14.216  0.7024 -0.6296  1.7843
 6331TIP3    H240409   1.176   6.086  14.255 -1.2311  0.5085  0.0359
 6332TIP3   OH240410   4.162   6.551  16.658 -0.1849  0.3757 -0.1754
 6332TIP3    H140411   4.085   6.549  16.714 -0.3563  0.7146 -0.3938
 6332TIP3    H240412   4.140   6.613  16.589  0.2992  0.5138 -0.2126
 6333TIP3   OH240413   3.109   5.032   1.703  0.0504  0.6737  0.0078
 6333TIP3    H140414   3.154   5.012   1.785 -1.0024 -0.3678  0.3618
 6333TIP3    H240415   3.168   5.001   1.635 -0.5087 -1.6547  0.4924
 6334TIP3   OH240416   1.047   1.344   3.182 -0.1178  0.3548  0.1497
 6334TIP3    H140417   1.086   1.418   3.229  1.5967  0.4783 -1.3160
 6334TIP3    H240418   1.058   1.270   3.240 -0.7525  1.0143  1.1413
 6335TIP3   OH240419   0.899   6.492   2.901 -0.0692 -0.2329  0.5891
 6335TIP3    H140420   0.995   6.500   2.902 -0.0486  0.0070 -1.1037
 6335TIP3    H240421   0.867   6.581   2.913 -0.0372 -0.0303 -0.6941
 6336TIP3   OH240422   2.530   4.987   0.453  0.0076  0.0162 -0.2978
 6336TIP3    H140423   2.459   4.977   0.390 -0.5794 -0.7536  0.4530
 6336TIP3    H240424   2.486   5.011   0.535  0.4364 -1.8935  0.5455
 6337TIP3   OH240425   1.486   4.357  16.659  0.1622  0.0347 -0.0550
 6337TIP3    H140426   1.472   4.300  16.735  0.8077 -0.9774 -0.6637
 6337TIP3    H240427   1.495   4.296  16.586 -1.4938  1.0277 -1.1356
 6338TIP3   OH240428   4.104   1.813   2.746 -0.5996 -0.0115 -0.3734
 6338TIP3    H140429   4.071   1.849   2.828  0.7315 -1.2318  0.7542
 6338TIP3    H240430   4.058   1.729   2.737  1.8374 -1.6718  1.1493
 6339TIP3   OH240431   1.224   4.310   4.473 -0.2566  0.3488  0.8111
 6339TIP3    H140432   1.247   4.217   4.481 -0.9922 -0.0025 -0.7437
 6339TIP3    H240433   1.130   4.310   4.455  0.0137  1.2892 -0.7443
 6340TIP3   OH240434   4.914   5.437   4.949  0.1520  0.4190 -0.8011
 6340TIP3    H140435   4.890   5.402   4.863  2.1342 -0.1066 -1.1957
 6340TIP3    H240436   4.865   5.384   5.011 -1.9669  1.3533 -1.5838
 6341TIP3   OH240437   6.501   6.610   3.921  0.5232 -0.2874 -0.0818
 6341TIP3    H140438   6.406   6.618   3.922  0.3371 -1.7866  1.8281
 6341TIP3    H240439   6.530   6.669   3.852 -1.6455  1.6492  0.5447
 6342TIP3   OH240440   4.780   5.849  16.514  0.1277 -0.5162  0.1700
 6342TIP3    H140441   4.794   5.764  16.556 -0.4161  0.1226  1.7289
 6342TIP3    H240442   4.697   5.880  16.550 -0.6113 -0.0868 -1.7313
 6343TIP3   OH240443   4.008   4.809  10.848 -0.2636 -0.0141 -0.3531
 6343TIP3    H140444   3.925   4.857  10.853 -0.4205  0.6865 -5.1669
 6343TIP3    H240445   4.066   4.866  10.797  1.8482 -2.1538 -0.5508
 6344TIP3   OH240446   0.811   1.288   3.749  0.2533 -0.3056  0.6601
 6344TIP3    H140447   0.747   1.227   3.786  0.6992 -0.4822  1.1693
 6344TIP3    H240448   0.817   1.263   3.657 -1.6701  0.8439  0.1717
 6345TIP3   OH240449   5.406   2.144  16.458 -0.3421 -0.3146 -1.0865
 6345TIP3    H140450   5.348   2.205  16.503 -0.4513 -1.2836  0.1438
 6345TIP3    H240451   5.460   2.199  16.401 -0.6320  0.8833 -0.2315
 6346TIP3   OH240452   1.257   1.927  12.335  0.5367  0.3102  0.1600
 6346TIP3    H140453   1.266   1.840  12.375  0.9204  0.6093  0.7389
 6346TIP3    H240454   1.177   1.921  12.283  0.4014 -0.3048  0.4254
 6347TIP3   OH240455   4.863   5.945   5.848 -0.2002 -0.3051  0.0348
 6347TIP3    H140456   4.886   6.035   5.826  1.7791 -0.0273  2.6096
 6347TIP3    H240457   4.862   5.899   5.765  1.4683  1.5845 -1.1286
 6348TIP3   OH240458   5.552   3.873   3.034 -0.2198 -0.1994  0.0184
 6348TIP3    H140459   5.585   3.885   2.945 -0.0644  1.4151  0.2699
 6348TIP3    H240460   5.458   3.859   3.023 -0.1384 -0.4113 -0.4229
 6349TIP3   OH240461   6.528   6.277  15.355 -0.1615  0.0057 -0.0472
 6349TIP3    H140462   6.534   6.320  15.269 -1.3141  1.4762  0.5557
 6349TIP3    H240463   6.488   6.343  15.412 -2.3474 -1.9736  0.8754
 6350TIP3   OH240464   0.841   4.897  12.817  0.1302 -0.4794 -0.3710
 6350TIP3    H140465   0.889   4.925  12.895 -0.8941 -0.3157  0.2369
 6350TIP3    H240466   0.871   4.955  12.747 -1.3244  1.6879  0.6580
 6351TIP3   OH240467   1.093   2.419   5.559  0.0099  0.1426 -0.1050
 6351TIP3    H140468   1.055   2.410   5.646  0.5328 -1.4469  0.0069
 6351TIP3    H240469   1.172   2.472   5.572 -0.3704  0.6342  0.2239
 6352TIP3   OH240470   4.223   6.299   0.930  0.0135 -0.2112  0.2774
 6352TIP3    H140471   4.265   6.383   0.912 -0.3147 -0.1271 -0.1136
 6352TIP3    H240472   4.201   6.302   1.023  0.2213  0.0331  0.3188
 6353TIP3   OH240473   1.251   5.405  14.649 -0.0791  0.0498  0.2326
 6353TIP3    H140474   1.300   5.392  14.730  1.6630  0.3163 -0.7299
 6353TIP3    H240475   1.280   5.490  14.616 -1.1720  0.1916 -0.4031
 6354TIP3   OH240476   1.590   3.276   6.620  0.2265 -0.1779  0.2587
 6354TIP3    H140477   1.573   3.188   6.585 -2.0326  0.1641  0.3526
 6354TIP3    H240478   1.529   3.285   6.693  0.4205  1.4955  0.2469
 6355TIP3   OH240479   5.378   0.545   1.195  0.4447  0.2279 -0.6278
 6355TIP3    H140480   5.293   0.567   1.158 -0.0294  0.5693  0.6104
 6355TIP3    H240481   5.374   0.451   1.209 -1.1084  0.6323  2.5605
 6356TIP3   OH240482   3.927   6.645   4.355  0.4491  0.1003 -0.4926
 6356TIP3    H140483   3.943   6.737   4.376  0.5268  0.3463 -1.5688
 6356TIP3    H240484   4.014   6.609   4.335  0.2000  0.2940 -1.9654
 6357TIP3   OH240485   6.015   1.124  15.281  0.0882 -0.1435  0.2330
 6357TIP3    H140486   5.987   1.152  15.369  1.0995  0.3939  0.4008
 6357TIP3    H240487   6.038   1.032  15.292  0.7593  0.0633  0.6886
 6358TIP3   OH240488   1.112   1.507  12.536 -0.8293  0.1840  0.4538
 6358TIP3    H140489   1.124   1.414  12.553 -1.1574  0.2313  0.9312
 6358TIP3    H240490   1.027   1.513  12.491  0.2003  0.0104 -1.6403
 6359TIP3   OH240491   2.538   4.444   3.799 -0.1134 -0.1265  0.0579
 6359TIP3    H140492   2.632   4.462   3.789 -0.1557 -0.5885 -1.4866
 6359TIP3    H240493   2.502   4.525   3.835  0.6393  0.6548 -0.8772
 6360TIP3   OH240494   3.299   4.123  15.089 -0.5467 -0.0937 -0.4006
 6360TIP3    H140495   3.350   4.198  15.059  0.3143 -1.4179 -2.4682
 6360TIP3    H240496   3.365   4.059  15.118 -1.0973 -1.0392 -1.1590
 6361TIP3   OH240497   3.608   0.601   5.144  0.5869 -0.1284 -0.2278
 6361TIP3    H140498   3.545   0.653   5.093  1.2705 -0.1195 -1.0948
 6361TIP3    H240499   3.662   0.666   5.189  0.2344 -0.1279  0.1957
 6362TIP3   OH240500   4.596   5.580   0.518 -0.6584  0.1631 -0.5569
 6362TIP3    H140501   4.563   5.664   0.550 -0.9436  0.2684 -1.1205
 6362TIP3    H240502   4.652   5.603   0.444  2.7019  0.2209  1.7653
 6363TIP3   OH240503   1.655   1.439   1.291  0.2634  0.0456  0.2565
 6363TIP3    H140504   1.589   1.505   1.314  1.5095  0.7162  2.1669
 6363TIP3    H240505   1.734   1.490   1.271  1.1016 -0.8186  1.2289
 6364TIP3   OH240506   2.228   3.558  11.910 -0.4919 -0.6723 -0.3549
 6364TIP3    H140507   2.153   3.618  11.911 -0.6060 -0.8200  0.4757
 6364TIP3    H240508   2.301   3.610  11.942  0.0280 -0.2128 -2.1944
 6365TIP3   OH240509   1.867   2.049  12.210 -0.5083 -0.4193  0.2753
 6365TIP3    H140510   1.795   2.040  12.272 -0.7275  0.0259  0.0903
 6365TIP3    H240511   1.909   2.131  12.235 -0.8931  0.0084 -0.4641
 6366TIP3   OH240512   6.325   6.589   3.190 -0.1076  0.2870 -0.0604
 6366TIP3    H140513   6.349   6.500   3.216  0.9002 -0.2847 -2.6146
 6366TIP3    H240514   6.347   6.643   3.266  2.5818 -1.2181  0.3674
 6367TIP3   OH240515   0.079   4.140   0.237  0.7131 -0.5439  0.3246
 6367TIP3    H140516   0.046   4.079   0.171 -1.7562  0.8478  0.1599
 6367TIP3    H240517   0.099   4.219   0.188 -0.6776  0.3421  1.1164
 6368TIP3   OH240518   6.739   2.355  11.051 -0.1822 -0.5813 -0.0202
 6368TIP3    H140519   6.780   2.355  11.138 -0.4840  0.1579  0.1300
 6368TIP3    H240520   6.708   2.444  11.039  0.0273 -0.6300 -0.9833
 6369TIP3   OH240521   3.576   2.910  13.602 -0.1248 -0.2847 -0.0346
 6369TIP3    H140522   3.496   2.961  13.587  0.3590  0.2861 -0.7277
 6369TIP3    H240523   3.588   2.912  13.697 -2.1302 -2.2278  0.3633
 6370TIP3   OH240524   4.754   6.017   2.127  0.0669 -0.4196 -0.2093
 6370TIP3    H140525   4.733   6.050   2.039  2.3653 -1.5350 -1.2693
 6370TIP3    H240526   4.832   5.964   2.114  0.1230 -1.1119  2.4574
 6371TIP3   OH240527   4.060   0.477  11.339  0.1497 -0.5278  0.7498
 6371TIP3    H140528   4.116   0.554  11.346 -0.5852 -0.0098  1.0953
 6371TIP3    H240529   3.974   0.512  11.315 -0.4375 -1.1265  1.8815
 6372TIP3   OH240530   6.215   5.137  14.615 -0.2505  0.2698  0.7707
 6372TIP3    H140531   6.124   5.161  14.595  0.2396  1.4103 -0.2989
 6372TIP3    H240532   6.266   5.185  14.550  1.1102 -0.5432  1.2035
 6373TIP3   OH240533   5.729   3.503   5.026 -0.3299 -0.1626 -0.1288
 6373TIP3    H140534   5.797   3.541   5.081 -0.6987  0.2080  0.0693
 6373TIP3    H240535   5.771   3.492   4.940  0.2144 -0.6513  0.1924
 6374TIP3   OH240536   6.066   5.987  10.878 -0.5406 -0.3299  0.0336
 6374TIP3    H140537   5.978   5.972  10.913 -0.6816  4.8607  2.9750
 6374TIP3    H240538   6.056   5.973  10.784 -4.9553  0.9684  0.0290
 6375TIP3   OH240539   0.774   5.465  12.883 -0.1894 -0.3754 -0.2849
 6375TIP3    H140540   0.790   5.546  12.931  0.2695 -0.0546 -0.9544
 6375TIP3    H240541   0.695   5.482  12.832  0.0145 -0.2743 -0.5719
 6376TIP3   OH240542   0.920   2.650   3.660  0.0803 -0.0428 -0.6064
 6376TIP3    H140543   0.955   2.580   3.605 -0.8279  0.7092 -2.2324
 6376TIP3    H240544   0.984   2.721   3.651  0.6567 -0.4035  0.4959
 6377TIP3   OH240545   0.707   4.191  15.472 -0.3126 -0.3187  0.0347
 6377TIP3    H140546   0.622   4.210  15.510 -1.1003 -1.7136 -0.9411
 6377TIP3    H240547   0.770   4.227  15.535 -1.5838  2.1819  0.0068
 6378TIP3   OH240548   2.115   5.918  12.148 -0.3648  1.1694 -0.0628
 6378TIP3    H140549   2.130   6.008  12.120 -0.6911  1.9152  1.9565
 6378TIP3    H240550   2.093   5.926  12.241  1.9966 -1.1691  0.8269
 6379TIP3   OH240551   4.634   3.612  14.648 -0.6487 -0.7818  0.1681
 6379TIP3    H140552   4.711   3.590  14.700 -0.0735 -0.6841 -0.6253
 6379TIP3    H240553   4.589   3.529  14.634  0.2726 -1.1379 -0.8534
 6380TIP3   OH240554   6.571   5.166   5.111 -0.0869  0.0185  0.3793
 6380TIP3    H140555   6.586   5.094   5.050 -0.2376  1.8100 -1.9074
 6380TIP3    H240556   6.657   5.185   5.148  0.3396 -0.0256 -0.5707
 6381TIP3   OH240557   1.587   2.518  14.033 -0.3360  0.5434  0.4017
 6381TIP3    H140558   1.628   2.563  13.960  0.1291 -0.6386 -0.1041
 6381TIP3    H240559   1.509   2.477  13.995  0.4924 -0.9927  0.2637
 6382TIP3   OH240560   1.630   2.540   4.366  0.6026 -0.2581  0.0497
 6382TIP3    H140561   1.699   2.606   4.368  0.1481  0.2152  0.2702
 6382TIP3    H240562   1.566   2.573   4.303  0.4830 -0.5964 -0.0092
 6383TIP3   OH240563   4.044   2.230  12.915  1.0567  0.6596  0.0495
 6383TIP3    H140564   4.137   2.244  12.897  1.1577  3.0884  1.8543
 6383TIP3    H240565   4.013   2.316  12.944 -1.6635 -0.1980 -0.1084
 6384TIP3   OH240566   0.786   2.714   2.214 -0.0323 -0.0214  0.4325
 6384TIP3    H140567   0.840   2.761   2.277  0.3262 -2.3343  1.9866
 6384TIP3    H240568   0.712   2.682   2.265 -1.2812  0.4844 -0.9966
 6385TIP3   OH240569   2.537   2.358  12.477 -0.0848  0.5998 -0.0048
 6385TIP3    H140570   2.472   2.428  12.471 -1.6073 -0.8698 -2.2387
 6385TIP3    H240571   2.605   2.384  12.414 -0.7355  0.0479 -0.9649
 6386TIP3   OH240572   4.775   6.545   3.328  0.3352  0.0027 -0.0654
 6386TIP3    H140573   4.738   6.584   3.407  0.9656 -0.3535  0.4141
 6386TIP3    H240574   4.860   6.510   3.355  0.5582 -0.1337 -0.8975
 6387TIP3   OH240575   4.094   5.639   0.610 -0.2715 -0.5128 -0.0247
 6387TIP3    H140576   4.008   5.659   0.646  1.0330  0.6983  2.7022
 6387TIP3    H240577   4.156   5.662   0.680  2.3722 -0.2389 -2.2720
 6388TIP3   OH240578   2.445   0.798  13.242 -0.4873 -0.3910 -0.2029
 6388TIP3    H140579   2.517   0.735  13.236 -0.1564 -0.1309  0.8577
 6388TIP3    H240580   2.459   0.842  13.325 -2.4250 -1.0030  0.4917
 6389TIP3   OH240581   1.329   6.377  10.254 -0.0544  0.3280  0.2380
 6389TIP3    H140582   1.319   6.297  10.306  1.5874 -0.1563 -0.1386
 6389TIP3    H240583   1.305   6.352  10.165 -3.7537  1.3792  0.7750
 6390TIP3   OH240584   6.472   2.576   0.874 -0.0373  0.3111  0.1274
 6390TIP3    H140585   6.446   2.652   0.925 -2.4428 -1.5796  1.9664
 6390TIP3    H240586   6.411   2.574   0.800 -0.6906 -0.3819  0.6734
 6391TIP3   OH240587   1.914   0.736   4.309 -0.6945  0.4686 -0.4299
 6391TIP3    H140588   1.888   0.695   4.392 -0.0856 -0.0544 -0.4832
 6391TIP3    H240589   1.994   0.689   4.284 -0.7886  0.7300 -1.2357
 6392TIP3   OH240590   0.002   0.498  16.539 -0.7019  0.5470 -0.1831
 6392TIP3    H140591   0.040   0.434  16.600 -0.1388 -0.1822 -1.2655
 6392TIP3    H240592  -0.091   0.477  16.538 -0.6082  0.1126 -0.1072
 6393TIP3   OH240593   0.908   4.223   3.290  0.1148  0.2654  0.7314
 6393TIP3    H140594   0.866   4.144   3.324  0.1445 -0.2376 -0.3524
 6393TIP3    H240595   0.914   4.282   3.366 -2.1326  0.1932  1.0302
 6394TIP3   OH240596   4.248   3.272   5.155  0.2342 -0.3620 -0.0067
 6394TIP3    H140597   4.270   3.195   5.102  0.0376 -0.8073  0.5367
 6394TIP3    H240598   4.256   3.241   5.246  2.2081  0.8272  0.2838
 6395TIP3   OH240599   5.947   4.695   2.069  0.3161 -0.6040  0.0737
 6395TIP3    H140600   5.984   4.670   2.154 -0.0967 -2.5610 -0.2607
 6395TIP3    H240601   5.992   4.775   2.045  0.0934  0.2782  2.3595
 6396TIP3   OH240602   4.314   1.259   2.062 -0.5743 -0.0592 -0.3777
 6396TIP3    H140603   4.230   1.303   2.076 -0.2554  0.5056 -0.2010
 6396TIP3    H240604   4.299   1.169   2.091 -0.7396  0.3724  0.9410
 6397TIP3   OH240605   5.881   2.443  12.908 -0.3526  0.0260 -0.0962
 6397TIP3    H140606   5.939   2.387  12.960  2.1470  0.2805 -2.3498
 6397TIP3    H240607   5.849   2.508  12.970  0.9190 -0.7748  1.4992
 6398TIP3   OH240608   5.639   3.426  16.301 -0.2210  0.0024 -0.0656
 6398TIP3    H140609   5.659   3.477  16.379 -0.3015  1.3544 -0.8935
 6398TIP3    H240610   5.693   3.465  16.232 -1.9521  0.4891 -1.2296
 6399TIP3   OH240611   6.286   5.524   4.788  0.0769 -0.6510  0.3743
 6399TIP3    H140612   6.234   5.444   4.787 -0.7706 -0.1548  1.6961
 6399TIP3    H240613   6.373   5.496   4.758 -0.2204 -2.0506  0.7362
 6400TIP3   OH240614   0.115   1.186   3.035 -0.3952 -0.2259  0.0482
 6400TIP3    H140615   0.143   1.161   3.123 -1.2418  1.3753  0.8211
 6400TIP3    H240616   0.174   1.257   3.009 -0.2492 -0.5822 -0.6288
 6401TIP3   OH240617   4.209   6.517   4.321 -0.4076 -0.5503 -0.2157
 6401TIP3    H140618   4.279   6.583   4.323 -1.8873  1.0782  0.0079
 6401TIP3    H240619   4.220   6.468   4.402 -0.6026  0.8738  0.6982
 6402TIP3   OH240620   2.416   2.542  11.903 -0.2519  0.3600  0.1553
 6402TIP3    H140621   2.475   2.573  11.834  0.6157 -0.9421  0.2851
 6402TIP3    H240622   2.396   2.452  11.879 -1.4072  0.4775  0.6496
 6403TIP3   OH240623   6.742   5.895   0.578 -0.2797  0.1286 -0.4042
 6403TIP3    H140624   6.719   5.927   0.665 -1.8798 -0.7395 -0.4596
 6403TIP3    H240625   6.836   5.910   0.571  0.0767 -0.5975  1.8387
 6404TIP3   OH240626   0.650   3.716   5.027  0.5940  0.5880  0.3165
 6404TIP3    H140627   0.582   3.680   5.083  0.3479 -0.7596 -0.7805
 6404TIP3    H240628   0.713   3.756   5.087  0.1751 -0.5009  1.5248
 6405TIP3   OH240629   3.305   3.524  13.117  0.4578 -0.2242  0.2375
 6405TIP3    H140630   3.223   3.519  13.067  0.6256  0.3929 -0.1086
 6405TIP3    H240631   3.281   3.572  13.197  0.6702  0.7704 -0.2810
 6406TIP3   OH240632   1.723   0.505  10.081  0.2503 -1.0096 -0.1777
 6406TIP3    H140633   1.800   0.457  10.051  0.8736  0.0976 -0.3591
 6406TIP3    H240634   1.736   0.595  10.053 -0.0296 -0.3080  1.7371
 6407TIP3   OH240635   5.388   0.040  12.796  0.0845 -0.0414 -0.3206
 6407TIP3    H140636   5.376   0.086  12.879 -1.1649  0.5342 -0.7839
 6407TIP3    H240637   5.428   0.105  12.738 -2.3895  0.8227 -1.2077
 6408TIP3   OH240638   0.109   6.119   2.253  0.7076  0.0577  0.6484
 6408TIP3    H140639   0.021   6.120   2.216  0.5162  0.5973  1.1019
 6408TIP3    H240640   0.115   6.034   2.297  1.3995 -1.1702 -1.6363
 6409TIP3   OH240641   1.563   3.238   5.607 -0.3072 -0.4046  0.6114
 6409TIP3    H140642   1.499   3.248   5.678 -1.5589 -0.5331 -0.4530
 6409TIP3    H240643   1.648   3.238   5.651 -1.0792 -1.7182  2.2477
 6410TIP3   OH240644   3.730   4.872  10.590  0.4570  0.0360  0.2231
 6410TIP3    H140645   3.747   4.901  10.680  1.3107  0.2109  0.0176
 6410TIP3    H240646   3.764   4.943  10.536 -0.0992 -0.0512 -0.2374
 6411TIP3   OH240647   4.772   6.846  12.010  0.1846 -0.9437 -0.4704
 6411TIP3    H140648   4.794   6.878  11.923  0.5802 -2.4617 -0.9704
 6411TIP3    H240649   4.722   6.765  11.993 -0.9657 -0.5168  0.7035
 6412TIP3   OH240650   5.433   4.255   0.909  0.3921 -0.2362 -0.0629
 6412TIP3    H140651   5.514   4.229   0.954  0.3561 -0.7117 -0.2646
 6412TIP3    H240652   5.442   4.218   0.821 -0.1612 -0.5197 -0.0036
 6413TIP3   OH240653   1.513   1.751  11.430 -0.5533 -0.3346  0.1516
 6413TIP3    H140654   1.424   1.736  11.397 -0.2847  0.4021 -0.9470
 6413TIP3    H240655   1.500   1.795  11.514 -1.2262  0.3002 -0.2730
 6414TIP3   OH240656   5.257   5.168  16.165 -0.1947 -0.5832 -0.2955
 6414TIP3    H140657   5.216   5.203  16.086 -3.7689 -0.0895  1.5657
 6414TIP3    H240658   5.211   5.085  16.180 -0.8109  0.1247  2.0774
 6415TIP3   OH240659   0.230   6.524  10.881  0.4441  0.3616 -0.2483
 6415TIP3    H140660   0.257   6.544  10.971 -0.0619  2.7435 -0.5636
 6415TIP3    H240661   0.290   6.575  10.826 -1.1193  1.3079 -1.1323
 6416TIP3   OH240662   0.807   0.660  14.965 -0.0993  0.2195 -0.1985
 6416TIP3    H140663   0.820   0.573  15.001 -1.3907  0.5132  1.0570
 6416TIP3    H240664   0.715   0.681  14.985  0.4271  2.2069  0.3343
 6417TIP3   OH240665   0.816   5.148  16.348 -0.0759 -0.5901 -0.4376
 6417TIP3    H140666   0.722   5.161  16.335 -0.1663  0.2882  0.9319
 6417TIP3    H240667   0.857   5.221  16.301 -0.1490 -0.2526  0.0179
 6418TIP3   OH240668   1.374   1.597  10.495 -0.2129  0.1717  0.5175
 6418TIP3    H140669   1.410   1.526  10.441 -0.1885  0.8495 -0.3825
 6418TIP3    H240670   1.429   1.597  10.574 -0.1336 -0.7222  0.4777
 6419TIP3   OH240671   2.632   3.961  16.281  0.0075 -0.6054 -0.4640
 6419TIP3    H140672   2.711   3.957  16.333 -0.9835 -0.3598  1.1279
 6419TIP3    H240673   2.658   3.931  16.194  2.1982  1.0627 -0.4470
 6420TIP3   OH240674   0.678   6.541   2.511  0.3924 -0.1360  0.4471
 6420TIP3    H140675   0.611   6.480   2.480 -0.3445  0.4995  0.7558
 6420TIP3    H240676   0.679   6.530   2.606 -1.7203  2.2378  0.8462
 6421TIP3   OH240677   3.735   4.560   4.098 -0.1145  0.7496 -0.0442
 6421TIP3    H140678   3.687   4.491   4.052 -1.1296  1.4976 -0.1299
 6421TIP3    H240679   3.813   4.575   4.044 -0.7205  0.8185 -0.9222
 6422TIP3   OH240680   0.304   3.397  10.013  0.2644 -0.3700  1.1324
 6422TIP3    H140681   0.220   3.417   9.972  0.0376 -1.6628  0.9087
 6422TIP3    H240682   0.346   3.482  10.026  1.0899  0.1557 -3.3542
 6423TIP3   OH240683   3.408   1.088   5.438 -0.0109  0.4495 -0.1195
 6423TIP3    H140684   3.362   1.142   5.503  0.1636  3.4868 -2.2995
 6423TIP3    H240685   3.467   1.034   5.490 -0.2689  2.3121  2.3135
 6424TIP3   OH240686   2.513   5.427  14.723 -0.4480  0.5298  0.4217
 6424TIP3    H140687   2.565   5.355  14.688  1.3055  0.6464  2.5505
 6424TIP3    H240688   2.455   5.452  14.651 -0.2749 -2.1725 -0.7874
 6425TIP3   OH240689   1.522   4.908  16.175  0.2680 -0.1077 -0.1010
 6425TIP3    H140690   1.556   4.899  16.086  0.3244  1.8698 -0.3251
 6425TIP3    H240691   1.474   4.991  16.174 -0.1209 -0.2730  1.5977
 6426TIP3   OH240692   6.066   2.452   1.938  1.0785  0.5359  0.5322
 6426TIP3    H140693   6.062   2.526   1.877  0.7940  0.4413  0.4358
 6426TIP3    H240694   5.999   2.472   2.004 -0.7311 -0.7795 -0.7792
 6427TIP3   OH240695   5.451   6.703  15.711 -0.3944 -0.4187  0.1617
 6427TIP3    H140696   5.540   6.725  15.739 -0.8757  0.1983  1.2751
 6427TIP3    H240697   5.408   6.675  15.792 -1.0117 -1.4363 -0.4977
 6428TIP3   OH240698   4.115   2.050  15.858  0.0779  0.1146  0.2678
 6428TIP3    H140699   4.126   1.997  15.937  0.2468  1.0110  0.8653
 6428TIP3    H240700   4.200   2.048  15.815  0.1707  0.1367  0.4480
 6429TIP3   OH240701   2.673   0.245  16.378 -0.0163  0.1173  0.0094
 6429TIP3    H140702   2.620   0.178  16.334  1.3500 -1.6472  0.9473
 6429TIP3    H240703   2.719   0.289  16.307 -1.6389  0.7719 -0.7043
 6430TIP3   OH240704   0.935   2.788   3.343 -0.7823  0.0177 -0.0841
 6430TIP3    H140705   0.993   2.809   3.416  0.0113 -1.4865 -0.2419
 6430TIP3    H240706   0.847   2.793   3.380 -0.4377  0.1451  0.7453
 6431TIP3   OH240707   4.490   5.498   5.896  0.3232  0.4027  0.0629
 6431TIP3    H140708   4.580   5.528   5.906  0.6425 -0.3779 -0.3607
 6431TIP3    H240709   4.481   5.427   5.960 -0.1356  0.7787  0.4232
 6432TIP3   OH240710   3.019   5.431  12.632 -0.4728 -0.0453 -0.3701
 6432TIP3    H140711   3.093   5.488  12.653 -1.0218  0.3582  0.5282
 6432TIP3    H240712   3.006   5.377  12.711 -0.9209 -0.3450 -0.6386
 6433TIP3   OH240713   3.056   3.166  14.591 -0.3131  0.1300  0.9164
 6433TIP3    H140714   3.029   3.105  14.523 -2.1167  0.8548  0.9384
 6433TIP3    H240715   2.981   3.171  14.650  1.7847 -1.9498  4.1182
 6434TIP3   OH240716   2.968   2.461   4.654 -0.7078 -0.0726 -0.4234
 6434TIP3    H140717   2.886   2.509   4.648  0.5557  2.5067  1.0607
 6434TIP3    H240718   2.989   2.460   4.747  2.5267  2.4840 -0.9205
 6435TIP3   OH240719   0.203   4.667   0.808  0.1802 -0.7227  0.1382
 6435TIP3    H140720   0.296   4.645   0.814  0.5173  0.8936  1.8734
 6435TIP3    H240721   0.202   4.763   0.805 -1.4161 -0.7332 -0.2721
 6436TIP3   OH240722   0.481   6.000  11.404 -0.2951  0.4057 -0.1006
 6436TIP3    H140723   0.463   6.081  11.356  1.3271  0.3973 -0.8058
 6436TIP3    H240724   0.395   5.963  11.422 -1.0564  2.0413 -0.1729
 6437TIP3   OH240725   0.724   4.138  10.337 -0.2349 -0.0887  0.2883
 6437TIP3    H140726   0.784   4.173  10.402 -2.6971  0.0965  2.6030
 6437TIP3    H240727   0.757   4.050  10.320  2.1562  0.8976 -0.5507
 6438TIP3   OH240728   4.205   6.541  13.490 -0.4124 -0.0131  0.1908
 6438TIP3    H140729   4.142   6.612  13.495  0.3041  0.7228 -0.8110
 6438TIP3    H240730   4.289   6.583  13.474  0.8221 -0.8060  3.7950
 6439TIP3   OH240731   2.373   5.666  12.316  0.8598 -0.1098  0.3889
 6439TIP3    H140732   2.467   5.660  12.298  0.9592  0.6908  0.5902
 6439TIP3    H240733   2.361   5.754  12.351  0.2174 -0.6079  1.4792
 6440TIP3   OH240734   5.137   5.244  11.006  0.2009  0.2730 -0.4205
 6440TIP3    H140735   5.210   5.239  11.068  2.1473 -1.2575 -2.7078
 6440TIP3    H240736   5.156   5.321  10.952 -0.4070  0.3909 -0.4802
 6441TIP3   OH240737   6.716   2.660  14.267 -0.0663 -0.1503  0.3626
 6441TIP3    H140738   6.656   2.656  14.192 -0.7864 -3.0044  0.9296
 6441TIP3    H240739   6.770   2.581  14.258  3.6776  2.2430 -0.0507
 6442TIP3   OH240740   1.778   6.375   3.458  0.6180  0.0182  0.7027
 6442TIP3    H140741   1.830   6.398   3.536  1.5493 -0.3007  0.1938
 6442TIP3    H240742   1.688   6.374   3.489  0.8677  1.0155  1.5126
 6443TIP3   OH240743   0.146   1.441  10.536 -0.1704 -0.3079  0.2647
 6443TIP3    H140744   0.183   1.356  10.560 -0.3604 -0.1916  0.9862
 6443TIP3    H240745   0.209   1.477  10.474 -0.7570 -1.5502 -1.1298
 6444TIP3   OH240746   4.114   1.247   3.466 -0.4520  0.3276  0.5625
 6444TIP3    H140747   4.034   1.250   3.414 -0.3183  0.6396  0.3685
 6444TIP3    H240748   4.170   1.183   3.422 -0.9919 -0.6695  1.2898
 6445TIP3   OH240749   4.255   5.402  10.949 -0.6418 -0.1285  0.4463
 6445TIP3    H140750   4.323   5.337  10.964  0.1651  0.4808 -0.4104
 6445TIP3    H240751   4.173   5.358  10.972 -0.2746 -1.9524 -1.4694
 6446TIP3   OH240752   2.436   1.053   1.687  0.0247  0.1413  0.3037
 6446TIP3    H140753   2.362   1.063   1.748  0.4342  1.0955  0.6662
 6446TIP3    H240754   2.502   1.006   1.737 -0.1978 -0.4229  0.0841
 6447TIP3   OH240755   3.167   3.946   3.396 -0.1016 -0.5122 -0.3438
 6447TIP3    H140756   3.077   3.917   3.380 -1.2837  0.9495  2.8029
 6447TIP3    H240757   3.164   4.041   3.380  1.2152 -0.6056 -1.3031
 6448TIP3   OH240758   4.919   6.601   2.076  0.1305  0.5398 -0.7061
 6448TIP3    H140759   4.860   6.643   2.139  1.0008  0.7106  0.0030
 6448TIP3    H240760   4.924   6.664   2.004  0.0010  0.8420 -0.4543
 6449TIP3   OH240761   6.773   3.946   4.294  0.0651 -0.3001 -0.0543
 6449TIP3    H140762   6.784   3.859   4.256 -0.3814 -0.4311  0.1098
 6449TIP3    H240763   6.842   3.953   4.359  0.6537 -0.1887 -0.6763
 6450TIP3   OH240764   2.309   1.920   0.260 -0.1574 -0.7355  0.4927
 6450TIP3    H140765   2.334   1.832   0.230 -1.2006 -0.8473 -0.1033
 6450TIP3    H240766   2.214   1.920   0.256 -0.1483  0.6482 -0.1346
 6451TIP3   OH240767   0.977   3.710  14.885 -0.0771  0.1701 -0.2471
 6451TIP3    H140768   0.894   3.730  14.927  0.0338 -0.3001  0.2141
 6451TIP3    H240769   1.042   3.759  14.935  0.0533 -0.3766  0.1268
 6452TIP3   OH240770   0.503   5.366   0.711  0.0381 -0.3858 -0.2967
 6452TIP3    H140771   0.440   5.436   0.696  0.5108  0.3194  0.8999
 6452TIP3    H240772   0.482   5.334   0.799  0.0709 -1.5083 -0.6771
 6453TIP3   OH240773   5.881   1.982   3.067 -0.4421 -0.2931  0.7682
 6453TIP3    H140774   5.848   1.906   3.019  0.0088  0.0843 -0.1653
 6453TIP3    H240775   5.969   1.997   3.032  0.0509 -0.2185  1.9800
 6454TIP3   OH240776   1.334   3.902   3.954  0.3126 -0.1933 -0.4461
 6454TIP3    H140777   1.243   3.908   3.986  0.5656 -2.4219  0.9616
 6454TIP3    H240778   1.380   3.972   4.000 -0.2289 -0.6241  0.8107
 6455TIP3   OH240779   6.377   1.598   4.109  0.4703  0.3891 -0.1417
 6455TIP3    H140780   6.349   1.684   4.077  0.7673  0.7677  0.6131
 6455TIP3    H240781   6.465   1.613   4.145 -0.1326  0.1423  1.5197
 6456TIP3   OH240782   1.984   6.266  15.567 -0.0424 -0.7137 -0.1882
 6456TIP3    H140783   1.995   6.171  15.578 -0.9535 -0.8060 -0.0329
 6456TIP3    H240784   1.916   6.275  15.500 -2.0196 -0.2185  1.7731
 6457TIP3   OH240785   6.619   0.358  13.202 -0.1514 -0.4617  0.5831
 6457TIP3    H140786   6.592   0.342  13.111 -2.0690 -0.6251  1.1402
 6457TIP3    H240787   6.644   0.271  13.234  2.0807 -0.1684 -0.2142
 6458TIP3   OH240788   4.708   4.181  12.876 -0.2378  0.1504 -0.4522
 6458TIP3    H140789   4.623   4.225  12.869 -0.4884 -0.2993 -0.2807
 6458TIP3    H240790   4.686   4.088  12.886  0.2547  0.0985  0.1896
 6459TIP3   OH240791   3.505   4.411  12.466 -0.5161  0.4032  0.1082
 6459TIP3    H140792   3.432   4.473  12.463  1.2328  2.8441  2.7489
 6459TIP3    H240793   3.527   4.397  12.374 -3.1303  0.9836 -0.7045
 6460TIP3   OH240794   3.570   0.851  13.326  0.4116  0.2277  0.3943
 6460TIP3    H140795   3.496   0.910  13.317 -0.5092 -0.8549  0.6370
 6460TIP3    H240796   3.621   0.864  13.246 -1.2939 -0.6985 -0.9071
 6461TIP3   OH240797   3.602   3.631  10.563  0.0211  0.1805  0.4275
 6461TIP3    H140798   3.657   3.707  10.545 -0.4967  0.3149 -0.6269
 6461TIP3    H240799   3.575   3.599  10.477 -1.6301  0.1774  0.9229
 6462TIP3   OH240800   0.556   0.935  10.833 -0.2024  1.0782 -0.2511
 6462TIP3    H140801   0.634   0.905  10.787  0.1682 -1.4564  1.8240
 6462TIP3    H240802   0.489   0.943  10.764  1.0320  0.2096 -1.5995
 6463TIP3   OH240803   3.951   4.376  10.745 -0.3256 -0.1461  0.1756
 6463TIP3    H140804   4.026   4.333  10.705  0.6846  2.3693 -0.8205
 6463TIP3    H240805   3.875   4.341  10.698  0.4552 -0.7110 -0.6896
 6464TIP3   OH240806   2.985   2.789  12.398 -0.1255  0.4075 -0.1793
 6464TIP3    H140807   2.925   2.715  12.397  0.0093  0.1524  2.4655
 6464TIP3    H240808   2.959   2.839  12.476  2.3426  0.8827  0.4092
 6465TIP3   OH240809   2.458   5.449   0.743 -0.1798  0.0864 -0.1721
 6465TIP3    H140810   2.525   5.385   0.721  0.0137  0.4878 -0.7692
 6465TIP3    H240811   2.491   5.531   0.708 -1.5213  0.0765 -1.5517
 6466TIP3   OH240812   6.572   6.098  11.868  0.2107  0.0569 -0.2267
 6466TIP3    H140813   6.649   6.059  11.909 -0.0054  0.7648  0.9023
 6466TIP3    H240814   6.514   6.119  11.942 -1.6956 -1.7410 -1.1196
 6467TIP3   OH240815   1.675   0.930   2.565 -0.5831 -0.0154 -0.1411
 6467TIP3    H140816   1.671   0.956   2.473  0.1142 -0.4782 -0.3035
 6467TIP3    H240817   1.583   0.926   2.593 -0.9010 -1.6918 -1.3318
 6468TIP3   OH240818   2.484   2.556   0.134 -0.4244  0.2801  0.0957
 6468TIP3    H140819   2.557   2.513   0.091 -0.4603 -0.9786  1.2384
 6468TIP3    H240820   2.519   2.641   0.162 -0.4043  1.1584 -2.3250
 6469TIP3   OH240821   5.872   3.631  15.395  0.0247  0.2152  0.2912
 6469TIP3    H140822   5.926   3.571  15.445 -1.3689 -0.3786  1.1305
 6469TIP3    H240823   5.843   3.696  15.458 -2.3764 -0.9687  0.5146
 6470TIP3   OH240824   1.567   5.081   2.273  0.4656  0.2389  0.0897
 6470TIP3    H140825   1.590   5.170   2.246  2.4576  0.0947  1.1530
 6470TIP3    H240826   1.474   5.073   2.251 -0.2364  3.1649  1.4719
 6471TIP3   OH240827   3.002   3.344  13.878 -0.1097  0.6683  0.0654
 6471TIP3    H140828   3.015   3.297  13.796 -0.8264 -0.3902  0.5469
 6471TIP3    H240829   3.040   3.431  13.861  0.2149  0.3077 -1.2051
 6472TIP3   OH240830   3.332   5.071   1.983  0.0194  0.0858  0.3396
 6472TIP3    H140831   3.384   5.145   2.014  0.4979  0.5269 -1.4066
 6472TIP3    H240832   3.395   5.018   1.933 -0.6490 -0.7381  0.3529
 6473TIP3   OH240833   4.036   1.172   4.778 -0.5328  0.5444 -0.2136
 6473TIP3    H140834   4.034   1.124   4.861 -0.3593  1.5484  0.3834
 6473TIP3    H240835   4.020   1.105   4.712  0.1939 -0.4195  0.5607
 6474TIP3   OH240836   4.532   4.813  15.298 -0.5428  0.1688  0.4638
 6474TIP3    H140837   4.459   4.792  15.241  1.4320  2.0052 -3.0614
 6474TIP3    H240838   4.597   4.745  15.280  0.7159  1.6350 -0.8520
 6475TIP3   OH240839   2.120   5.793   0.569  0.0667 -0.1269 -0.4390
 6475TIP3    H140840   2.190   5.858   0.564 -0.9095  0.8614 -1.8270
 6475TIP3    H240841   2.129   5.756   0.657  0.8011  1.7229  0.3256
 6476TIP3   OH240842   5.777   5.155  14.797  0.1363  0.3869 -0.3506
 6476TIP3    H140843   5.725   5.178  14.875  1.2449  1.2858  0.1407
 6476TIP3    H240844   5.741   5.070  14.770 -1.6767  1.0251 -0.1250
 6477TIP3   OH240845   5.196   3.740   5.001 -0.0490  0.1491 -0.1669
 6477TIP3    H140846   5.249   3.680   4.949  0.8310  0.3867  0.4269
 6477TIP3    H240847   5.260   3.787   5.055 -0.8774  0.3843  0.6268
 6478TIP3   OH240848   1.559   5.180   0.105 -0.9554  0.1276 -0.6024
 6478TIP3    H140849   1.544   5.240   0.031 -0.4624 -0.6689 -1.3745
 6478TIP3    H240850   1.593   5.101   0.064 -0.7760 -0.3727  0.4888
 6479TIP3   OH240851   0.077   2.434   5.134 -0.2720  0.0252  0.3128
 6479TIP3    H140852   0.031   2.375   5.194 -0.2972  1.7651  2.0936
 6479TIP3    H240853   0.007   2.488   5.097  0.1653  2.3880  2.6979
 6480TIP3   OH240854   6.886   2.781   0.285  0.3560 -0.5678 -0.2280
 6480TIP3    H140855   6.872   2.782   0.379 -1.1966 -0.9081 -0.4365
 6480TIP3    H240856   6.886   2.873   0.259  2.0374 -0.4013  0.2442
 6481TIP3   OH240857   3.921   1.923  16.505  0.7817 -0.3340  0.3498
 6481TIP3    H140858   3.955   1.912  16.416 -0.0699  1.4198 -0.2537
 6481TIP3    H240859   3.997   1.913  16.561  1.6583  0.1133 -0.7096
 6482TIP3   OH240860   1.066   1.825   2.525 -0.3297  0.1144 -0.1355
 6482TIP3    H140861   1.105   1.798   2.608  0.3908  2.4532  0.3586
 6482TIP3    H240862   1.132   1.802   2.460  0.0550  0.2760  0.1960
 6483TIP3   OH240863   4.437   2.825   0.731  0.4882  0.2705  0.0232
 6483TIP3    H140864   4.365   2.881   0.703 -0.4220  0.0875  1.8659
 6483TIP3    H240865   4.513   2.859   0.684 -0.5055  1.4108 -0.8369
 6484TIP3   OH240866   6.494   5.470  10.654 -0.9585  0.2354  0.1164
 6484TIP3    H140867   6.507   5.553  10.607 -0.0650  0.6225  1.0021
 6484TIP3    H240868   6.436   5.419  10.598 -0.8008  1.1127 -0.8695
 6485TIP3   OH240869   3.262   3.348   4.442 -0.2659  0.0461  0.0666
 6485TIP3    H140870   3.322   3.397   4.386  0.0135 -0.4002 -0.0346
 6485TIP3    H240871   3.267   3.258   4.409 -0.4758 -0.1268  0.4922
 6486TIP3   OH240872   4.117   3.750   3.435 -0.4088 -0.3243  0.1388
 6486TIP3    H140873   4.037   3.790   3.402 -0.6048 -0.5645  0.3219
 6486TIP3    H240874   4.097   3.727   3.526  0.2142  0.6112  0.5366
 6487TIP3   OH240875   2.053   4.367  14.460 -0.2018  0.6384 -0.4700
 6487TIP3    H140876   1.988   4.366  14.530  2.2173  0.7830  1.9523
 6487TIP3    H240877   2.033   4.291  14.406 -0.7156 -0.9684  1.8714
 6488TIP3   OH240878   2.068   2.514   1.721  0.1824 -0.3301  0.4424
 6488TIP3    H140879   2.092   2.601   1.690 -0.0421 -1.1054 -2.1553
 6488TIP3    H240880   2.151   2.467   1.730  0.1741 -0.5924 -0.6936
 6489TIP3   OH240881   3.635   1.141   0.097 -0.7252  0.5286 -0.3452
 6489TIP3    H140882   3.625   1.205   0.167 -0.3318  0.8254 -0.5543
 6489TIP3    H240883   3.687   1.186   0.030  2.5640 -1.0265  0.8921
 6490TIP3   OH240884   3.996   5.135  16.465 -0.5394  0.2420  0.1853
 6490TIP3    H140885   3.904   5.116  16.482 -1.3438  2.6483 -0.9918
 6490TIP3    H240886   3.995   5.202  16.397  2.1182  0.1050 -0.1144
 6491TIP3   OH240887   1.691   2.859   3.565 -0.2497  0.4019 -0.1870
 6491TIP3    H140888   1.624   2.899   3.509  0.4928  0.2700 -1.1951
 6491TIP3    H240889   1.774   2.893   3.531  0.3076 -0.8664 -0.1459
 6492TIP3   OH240890   5.705   5.074   2.830 -0.0882  0.3618  0.4498
 6492TIP3    H140891   5.744   5.149   2.785 -1.2041  0.7000  0.0101
 6492TIP3    H240892   5.758   4.999   2.802  0.2345  0.8067 -0.1478
 6493TIP3   OH240893   2.446   6.534  10.716 -0.3332 -0.1533  0.9620
 6493TIP3    H140894   2.471   6.598  10.649 -0.1706  0.4181  1.5665
 6493TIP3    H240895   2.400   6.466  10.667 -3.9043  2.1579  0.7233
 6494TIP3   OH240896   4.787   3.245   0.952  0.0392 -0.0765 -0.2432
 6494TIP3    H140897   4.810   3.288   0.869 -2.9013  1.4555 -0.4136
 6494TIP3    H240898   4.738   3.167   0.926  0.7545 -0.6401  0.0755
 6495TIP3   OH240899   4.228   1.308  16.508  0.2864  0.5624 -0.1226
 6495TIP3    H140900   4.191   1.302  16.419  0.3632  0.8240 -0.1738
 6495TIP3    H240901   4.235   1.402  16.524  1.2863  0.5153 -0.2634
 6496TIP3   OH240902   4.407   6.387  16.077  0.0965 -0.3926 -0.1023
 6496TIP3    H140903   4.354   6.372  16.155  0.3572 -1.0765 -0.0482
 6496TIP3    H240904   4.419   6.482  16.074  2.2463 -0.4854  2.1501
 6497TIP3   OH240905   5.067   6.124  12.117  0.4939 -0.0954  0.3134
 6497TIP3    H140906   5.011   6.155  12.187  1.3969  1.1026  0.5377
 6497TIP3    H240907   5.122   6.056  12.158  1.5595  1.1410  1.0096
 6498TIP3   OH240908   5.310   4.872  16.180  0.4755 -0.1819 -0.3136
 6498TIP3    H140909   5.389   4.920  16.202  0.0001  0.6928 -0.4574
 6498TIP3    H240910   5.313   4.862  16.085 -0.7469  2.0543 -0.6729
 6499TIP3   OH240911   6.863   3.377  14.745 -0.0915  0.9758 -0.0759
 6499TIP3    H140912   6.858   3.370  14.650 -0.2743  3.0744 -0.2695
 6499TIP3    H240913   6.773   3.393  14.773  0.0196  0.7889  0.4087
 6500TIP3   OH240914   5.080   0.719   0.178  0.0792  0.1767 -0.4604
 6500TIP3    H140915   5.124   0.768   0.247  0.7191 -0.6770 -0.2446
 6500TIP3    H240916   5.078   0.628   0.210  0.0916 -0.1735 -1.4164
 6501TIP3   OH240917   1.780   4.789  14.931 -0.2566  0.0088  0.3171
 6501TIP3    H140918   1.695   4.813  14.966  0.6200 -0.5727  3.0815
 6501TIP3    H240919   1.807   4.712  14.982  0.3502 -2.2207 -3.0362
 6502TIP3   OH240920   6.115   1.497  15.727 -0.2067  0.0954  0.0791
 6502TIP3    H140921   6.143   1.521  15.816 -0.4543  1.6095 -0.2366
 6502TIP3    H240922   6.145   1.569  15.672  1.0253 -1.3824 -1.3010
 6503TIP3   OH240923   1.329   2.339  14.687  0.3130 -0.4080  0.1166
 6503TIP3    H140924   1.261   2.364  14.625  0.8420  1.1701  0.1037
 6503TIP3    H240925   1.319   2.245  14.699 -0.8329 -0.4599 -1.1016
 6504TIP3   OH240926   5.463   4.165  12.219  0.3090  0.6704 -0.1637
 6504TIP3    H140927   5.518   4.126  12.152  3.0585  0.0920  2.2409
 6504TIP3    H240928   5.403   4.095  12.245  0.1846  0.4609 -0.9967
 6505TIP3   OH240929   2.358   5.044   4.375  1.0146  0.1081  0.6409
 6505TIP3    H140930   2.357   5.137   4.400  0.2439  1.0977 -2.6090
 6505TIP3    H240931   2.445   5.014   4.398  1.8474  2.1163  0.3286
 6506TIP3   OH240932   2.971   0.934   4.038  0.2865 -0.3326  0.1291
 6506TIP3    H140933   2.889   0.966   4.076 -0.5889 -0.7686 -1.3140
 6506TIP3    H240934   2.953   0.843   4.016  1.2485 -0.5013 -0.0169
 6507TIP3   OH240935   5.793   4.235  12.801 -0.6623  0.7862 -0.1827
 6507TIP3    H140936   5.793   4.222  12.896 -0.8209 -1.9846 -0.4885
 6507TIP3    H240937   5.719   4.183  12.770  0.6586 -0.1401 -1.9830
 6508TIP3   OH240938   0.835   0.373  12.408 -0.3899  0.8630  0.4591
 6508TIP3    H140939   0.871   0.461  12.399 -0.2642  0.7902  0.2425
 6508TIP3    H240940   0.912   0.317  12.418 -0.3520  0.5580 -1.1896
 6509TIP3   OH240941   6.837   2.534  15.243 -0.4894 -0.4642  0.6164
 6509TIP3    H140942   6.777   2.565  15.311 -0.8904 -0.1935  0.1495
 6509TIP3    H240943   6.852   2.611  15.188 -3.8586 -1.6224 -2.3455
 6510TIP3   OH240944   0.250   3.737  10.392 -0.8191 -0.0809  0.0050
 6510TIP3    H140945   0.236   3.818  10.441 -1.1091  0.0606 -0.3033
 6510TIP3    H240946   0.343   3.717  10.404 -0.1126  1.6500 -1.9206
 6511TIP3   OH240947   1.398   1.294   2.839 -0.5482 -0.2901  0.2992
 6511TIP3    H140948   1.491   1.271   2.829  0.0430  1.1585  1.8264
 6511TIP3    H240949   1.392   1.329   2.928 -2.2435  1.0911 -0.3048
 6512TIP3   OH240950   4.366   6.156  15.765  0.0476 -0.2302  0.1350
 6512TIP3    H140951   4.455   6.178  15.793 -0.4126  1.4076  0.4089
 6512TIP3    H240952   4.332   6.102  15.836  0.6021 -0.3066  0.3520
 6513TIP3   OH240953   6.614   2.256  14.209  0.0311 -0.3442 -0.1787
 6513TIP3    H140954   6.547   2.307  14.255  0.2638 -0.0281 -0.1871
 6513TIP3    H240955   6.694   2.308  14.218  0.3705 -0.9250  0.1957
 6514TIP3   OH240956   5.765   2.567  13.394  0.1433  0.2698  0.4656
 6514TIP3    H140957   5.688   2.547  13.447  0.0786 -1.6950 -0.2653
 6514TIP3    H240958   5.837   2.573  13.456 -0.0717 -1.1575  0.8792
 6515TIP3   OH240959   1.479   6.417   2.163 -0.1778 -0.3387 -0.1206
 6515TIP3    H140960   1.555   6.391   2.110  0.6667  0.1261  0.8120
 6515TIP3    H240961   1.463   6.508   2.139 -1.5655 -0.9139 -1.5706
 6516TIP3   OH240962   1.658   1.841  13.314  0.3991  0.8682 -0.2227
 6516TIP3    H140963   1.631   1.762  13.266 -1.2597  2.5738 -2.3646
 6516TIP3    H240964   1.714   1.888  13.252 -0.2894  2.2806  0.1739
 6517TIP3   OH240965   2.857   0.365  13.347  0.1208  0.1734  0.3211
 6517TIP3    H140966   2.927   0.413  13.303  0.4227  0.6943  1.3554
 6517TIP3    H240967   2.837   0.416  13.425 -2.6362  1.0093 -0.7870
 6518TIP3   OH240968   0.356   6.597   3.613  0.2384 -0.1169 -0.1739
 6518TIP3    H140969   0.346   6.553   3.697  0.3728 -0.5239 -0.3681
 6518TIP3    H240970   0.444   6.574   3.584  0.0439 -0.3272 -0.6195
 6519TIP3   OH240971   5.097   0.452   1.271 -0.1049 -0.2944 -0.3058
 6519TIP3    H140972   5.143   0.370   1.252 -0.3667 -0.6110  0.3566
 6519TIP3    H240973   5.088   0.495   1.186  0.2595 -0.8357 -0.6292
 6520TIP3   OH240974   3.647   2.919  12.364  0.1717  0.4339  0.2330
 6520TIP3    H140975   3.559   2.932  12.327  0.7552 -1.2456 -1.9525
 6520TIP3    H240976   3.683   3.007  12.370 -0.4387  0.9198 -2.1393
 6521TIP3   OH240977   2.659   1.416   1.401  0.4822 -0.1949 -0.2524
 6521TIP3    H140978   2.675   1.510   1.409 -0.2597 -0.0149 -0.7695
 6521TIP3    H240979   2.574   1.403   1.442  0.2688 -0.5253 -0.7933
 6522TIP3   OH240980   3.820   0.497  16.556 -0.5284 -0.1435 -0.4078
 6522TIP3    H140981   3.890   0.539  16.506  0.7780 -2.6361 -0.8686
 6522TIP3    H240982   3.846   0.509  16.648  1.0852 -1.8161 -0.5914
 6523TIP3   OH240983   5.270   2.390  16.459  0.0475 -0.2868  0.4817
 6523TIP3    H140984   5.229   2.442  16.390 -1.3572 -2.9784 -0.8797
 6523TIP3    H240985   5.264   2.445  16.537 -0.7159  1.8044 -0.9533
 6524TIP3   OH240986   3.887   1.441   2.385  0.2414  0.5029  0.5092
 6524TIP3    H140987   3.960   1.407   2.437 -0.3105 -1.0774  0.2991
 6524TIP3    H240988   3.814   1.446   2.446  0.3696  1.5612  0.5885
 6525TIP3   OH240989   4.718   1.868  10.717 -0.8006 -0.2261  0.0908
 6525TIP3    H140990   4.717   1.855  10.812 -1.2133  0.8424  0.2539
 6525TIP3    H240991   4.631   1.902  10.697 -0.9402 -1.0679 -0.7756
 6526TIP3   OH240992   3.915   4.634  13.596 -0.4141 -0.8344  0.2759
 6526TIP3    H140993   3.834   4.597  13.632 -1.0967 -0.5756 -0.9243
 6526TIP3    H240994   3.959   4.675  13.670 -2.0483  0.1951  0.7120
 6527TIP3   OH240995   3.055   2.380   3.860  0.5112  0.2198  0.1770
 6527TIP3    H140996   3.046   2.407   3.952 -1.2391 -0.7626  0.3454
 6527TIP3    H240997   3.002   2.442   3.811  1.0214  0.4298 -0.1141
 6528TIP3   OH240998   0.939   2.189   5.549 -0.3155  0.1491  0.1259
 6528TIP3    H140999   0.977   2.276   5.541  0.1044 -0.1371 -1.1932
 6528TIP3    H241000   0.995   2.143   5.611  0.6130  0.2193 -0.6442
 6529TIP3   OH241001   4.494   2.763  16.628  0.3544 -0.2771 -0.7007
 6529TIP3    H141002   4.553   2.794  16.698  1.0930 -0.5039 -1.2100
 6529TIP3    H241003   4.460   2.843  16.588 -2.8709 -0.0262  2.1339
 6530TIP3   OH241004   1.013   6.257  15.871  0.2314 -0.0259 -0.3997
 6530TIP3    H141005   1.052   6.193  15.811  2.7771 -0.7283  1.8015
 6530TIP3    H241006   1.071   6.333  15.867 -0.8304  0.8151 -0.4309
 6531TIP3   OH241007   0.345   2.372  15.038 -0.0304  0.1116 -0.3641
 6531TIP3    H141008   0.261   2.370  15.083  0.8052  0.8061  1.3172
 6531TIP3    H241009   0.346   2.455  14.992  0.2091  0.6819  0.6394
 6532TIP3   OH241010   4.623   1.182  16.037  0.3032 -0.4196 -0.2269
 6532TIP3    H141011   4.534   1.216  16.042 -0.2748 -1.7511 -1.0519
 6532TIP3    H241012   4.660   1.226  15.959  0.5156  0.4146  0.3291
 6533TIP3   OH241013   1.120   2.639   1.802  0.2410 -0.0197  0.1678
 6533TIP3    H141014   1.081   2.658   1.716  3.1448  4.5004 -0.5044
 6533TIP3    H241015   1.047   2.643   1.863 -1.2547  2.0059 -1.5990
 6534TIP3   OH241016   2.449   6.033   4.538  0.4603 -1.1633  0.3400
 6534TIP3    H141017   2.480   5.955   4.492  0.1033 -0.1396 -1.7595
 6534TIP3    H241018   2.357   6.014   4.557  0.2322 -1.0676 -0.6272
 6535TIP3   OH241019   0.594   0.718  13.539 -0.4092  0.4360  0.0385
 6535TIP3    H141020   0.622   0.647  13.597 -0.4056 -0.5965 -1.1964
 6535TIP3    H241021   0.529   0.679  13.482 -1.5310  1.8239  0.2919
 6536TIP3   OH241022   4.789   6.205   9.825 -0.3119 -0.2203 -0.9280
 6536TIP3    H141023   4.842   6.284   9.813 -1.4922  0.5225 -1.4943
 6536TIP3    H241024   4.715   6.234   9.879  0.6856 -1.6334  1.3463
 6537TIP3   OH241025   6.853   0.732   5.784 -0.1827  0.0347  0.0496
 6537TIP3    H141026   6.783   0.735   5.849 -0.9017 -0.0277 -0.6978
 6537TIP3    H241027   6.868   0.824   5.761 -0.7617 -0.0186 -0.5554
 6538TIP3   OH241028   0.922   4.237  15.034 -0.2328 -0.4223  0.1424
 6538TIP3    H141029   1.011   4.269  15.050 -0.2780  0.2283 -0.8384
 6538TIP3    H241030   0.865   4.302  15.075 -0.2881  0.0440 -0.6525
 6539TIP3   OH241031   5.520   3.893   3.525  0.2500 -0.0980 -0.5080
 6539TIP3    H141032   5.536   3.907   3.432 -0.4990 -0.9083 -0.7695
 6539TIP3    H241033   5.573   3.816   3.547  0.3934  0.0666 -0.2707
 6540TIP3   OH241034   3.133   1.207   1.381 -0.6316 -0.5714 -0.1066
 6540TIP3    H141035   3.190   1.255   1.320 -0.6803  0.9798  1.0020
 6540TIP3    H241036   3.178   1.124   1.394  0.5813 -0.0123 -0.4908
 6541TIP3   OH241037   3.833   1.879   2.527  0.1290 -0.5925 -0.6514
 6541TIP3    H141038   3.890   1.910   2.457 -0.1411  0.6267 -0.3557
 6541TIP3    H241039   3.885   1.890   2.607  0.3211 -1.6845 -0.6090
 6542TIP3   OH241040   1.036   4.916   1.616  0.8349 -0.2774  0.0582
 6542TIP3    H141041   0.986   4.977   1.563 -0.8568 -2.7797 -1.4216
 6542TIP3    H241042   1.123   4.913   1.575  0.5682  0.2623 -0.5424
 6543TIP3   OH241043   4.637   5.860  15.751  0.3116  0.5233  0.2540
 6543TIP3    H141044   4.620   5.950  15.780 -0.1527  0.5217  0.0031
 6543TIP3    H241045   4.593   5.853  15.667  0.9131  0.2609 -0.0479
 6544TIP3   OH241046   0.018   5.044   1.877  0.6207  0.3193  0.2359
 6544TIP3    H141047  -0.003   4.969   1.932  1.0960  0.5815  0.7879
 6544TIP3    H241048   0.020   5.118   1.937  2.5467  0.3997  0.1429
 6545TIP3   OH241049   1.594   2.978   3.318  0.1979 -0.0474  0.7948
 6545TIP3    H141050   1.598   3.073   3.317 -0.8190  0.0019  0.5776
 6545TIP3    H241051   1.578   2.953   3.227  1.1046 -0.4655  0.7414
 6546TIP3   OH241052   2.699   4.577   0.227 -0.6364  0.0862 -0.0639
 6546TIP3    H141053   2.732   4.538   0.308 -0.6135  0.0340 -0.0987
 6546TIP3    H241054   2.686   4.503   0.168 -0.0267  0.1910 -0.3319
 6547TIP3   OH241055   1.863   0.758  11.982 -0.0686  0.4707 -0.2263
 6547TIP3    H141056   1.871   0.727  12.073  1.4930  1.1002 -0.1170
 6547TIP3    H241057   1.788   0.817  11.984 -1.2187 -0.9486  0.2226
 6548TIP3   OH241058   5.827   2.840   2.833  0.2314  0.4400  0.5580
 6548TIP3    H141059   5.886   2.791   2.889 -0.4419 -0.0178  0.8876
 6548TIP3    H241060   5.745   2.790   2.836  0.1643  0.4323 -0.7904
 6549TIP3   OH241061   6.869   4.156   4.722  0.7453 -0.3877  0.6874
 6549TIP3    H141062   6.915   4.168   4.639  1.6122  0.1955  1.2359
 6549TIP3    H241063   6.864   4.061   4.733 -0.7048 -0.5240 -0.7307
 6550TIP3   OH241064   2.090   4.576   0.398 -0.0428  0.0323  0.3320
 6550TIP3    H141065   2.106   4.518   0.473  3.8474  0.1225 -0.2291
 6550TIP3    H241066   2.141   4.655   0.418 -1.4108  1.3484 -1.0906
 6551TIP3   OH241067   1.383   4.441   1.984 -0.1856 -0.1006  0.4288
 6551TIP3    H141068   1.378   4.346   1.994 -1.8128 -0.0022  0.6703
 6551TIP3    H241069   1.436   4.454   1.905 -0.1473 -1.2042  0.2650
 6552TIP3   OH241070   0.059   2.662  11.263 -0.2357 -0.3183 -0.3278
 6552TIP3    H141071   0.132   2.612  11.300 -1.3314 -1.4569  0.3748
 6552TIP3    H241072   0.100   2.718  11.196  1.6002  0.8059  1.6152
 6553TIP3   OH241073   1.560   3.617  14.733 -0.7402  0.1350 -0.0941
 6553TIP3    H141074   1.479   3.668  14.740 -1.7106 -0.9436 -2.4683
 6553TIP3    H241075   1.541   3.536  14.782 -0.4857  0.5283  0.6783
 6554TIP3   OH241076   3.412   1.476  15.412  0.8849 -0.2304 -0.2434
 6554TIP3    H141077   3.361   1.554  15.392  0.2405  0.0051  2.1143
 6554TIP3    H241078   3.482   1.477  15.346  0.1285  1.5765 -1.1021
 6555TIP3   OH241079   5.162   0.294   0.761  0.0319 -0.0460 -0.0035
 6555TIP3    H141080   5.159   0.296   0.857 -0.4409  0.5265 -0.0317
 6555TIP3    H241081   5.228   0.227   0.742  1.3850  1.0131  0.7329
 6556TIP3   OH241082   6.235   1.612   5.355 -0.4998  0.5013 -0.3171
 6556TIP3    H141083   6.147   1.625   5.320 -0.3844  0.8419 -0.4892
 6556TIP3    H241084   6.238   1.668   5.432 -0.7446 -0.2278  0.2309
 6557TIP3   OH241085   1.872   2.538  10.765  0.1488 -0.8016  0.1201
 6557TIP3    H141086   1.846   2.446  10.761  2.0936 -1.4084  0.3524
 6557TIP3    H241087   1.938   2.547  10.696  0.4152  0.2688  0.4922
 6558TIP3   OH241088   1.737   0.660  16.255 -0.4201 -0.0885  0.3534
 6558TIP3    H141089   1.756   0.636  16.165  1.8481  1.0970  0.4594
 6558TIP3    H241090   1.677   0.734  16.249 -1.6288 -1.0700 -0.1006
 6559TIP3   OH241091   3.290   4.811  11.123  0.3483 -0.5944  0.2176
 6559TIP3    H141092   3.356   4.811  11.193  3.0993  0.8127 -2.1673
 6559TIP3    H241093   3.305   4.728  11.077  1.3328  0.2209 -1.0038
 6560TIP3   OH241094   1.158   6.800  15.624 -0.0502  0.3237  0.1630
 6560TIP3    H141095   1.125   6.810  15.535 -0.3736 -1.3518  0.0488
 6560TIP3    H241096   1.243   6.756  15.613 -0.2007 -0.1082  0.6680
 6561TIP3   OH241097   4.207   0.275   3.962  0.0801 -0.1641 -0.3206
 6561TIP3    H141098   4.295   0.265   3.998 -0.0993  2.3577  1.0245
 6561TIP3    H241099   4.189   0.191   3.920  1.5558 -2.2241  2.8001
 6562TIP3   OH241100   2.608   1.576   1.695 -0.0025 -0.5052 -0.3864
 6562TIP3    H141101   2.626   1.489   1.660  1.6122  0.3867 -1.9420
 6562TIP3    H241102   2.638   1.573   1.786  1.8888 -1.0444 -0.9910
 6563TIP3   OH241103   5.818   4.979  15.530 -0.3289  0.6765 -0.4190
 6563TIP3    H141104   5.809   5.073  15.544  1.6005  0.7244  0.7957
 6563TIP3    H241105   5.912   4.963  15.533 -0.6639 -1.7600  2.8441
 6564TIP3   OH241106   0.651   3.096   1.959  0.1908  0.3195  0.3469
 6564TIP3    H141107   0.660   3.022   2.020 -1.1454 -0.4654 -0.3381
 6564TIP3    H241108   0.567   3.135   1.983 -1.3602 -1.2065 -2.1469
 6565TIP3   OH241109   4.339   1.422  15.734  0.1585 -0.1499  0.0015
 6565TIP3    H141110   4.251   1.449  15.707 -0.0983  0.1030  1.0387
 6565TIP3    H241111   4.397   1.484  15.690 -0.1848 -0.2710 -0.6282
 6566TIP3   OH241112   2.837   5.082   1.361 -0.3952  0.2651 -0.0207
 6566TIP3    H141113   2.800   4.995   1.344 -0.5581  0.3957 -0.3530
 6566TIP3    H241114   2.766   5.143   1.339 -0.0057  0.5171 -0.6293
 6567TIP3   OH241115   4.403   6.021   5.064 -0.3493 -0.0721 -0.5055
 6567TIP3    H141116   4.444   5.945   5.106  3.0540  0.0809 -3.0552
 6567TIP3    H241117   4.425   6.095   5.121  1.1840 -0.3298 -0.7112
 6568TIP3   OH241118   3.844   3.348   1.475  0.3171 -0.0188  0.4267
 6568TIP3    H141119   3.922   3.365   1.422  0.2149 -2.3677 -0.6075
 6568TIP3    H241120   3.791   3.427   1.465  2.8943  2.0367  1.9320
 6569TIP3   OH241121   3.148   2.813   5.074 -0.2781  0.1206 -0.1494
 6569TIP3    H141122   3.115   2.870   5.143  0.2472  0.6431 -0.3210
 6569TIP3    H241123   3.230   2.777   5.109 -0.7591 -0.7931  0.0838
 6570TIP3   OH241124   5.096   3.342  11.902 -0.0474  0.2349  0.6939
 6570TIP3    H141125   5.178   3.370  11.943  1.0829 -0.5405 -0.9265
 6570TIP3    H241126   5.063   3.420  11.858  0.6917  0.1849  0.0186
 6571TIP3   OH241127   6.390   1.802   0.712 -0.0073 -0.3686 -0.0710
 6571TIP3    H141128   6.454   1.732   0.700  0.1493 -0.1374 -0.5986
 6571TIP3    H241129   6.341   1.776   0.790  1.0122 -0.3193  0.6033
 6572TIP3   OH241130   3.619   1.556   1.102  0.4445  0.0803  0.0695
 6572TIP3    H141131   3.570   1.636   1.124  1.1889  0.1239  1.6988
 6572TIP3    H241132   3.705   1.568   1.144  0.0993 -2.1724  1.6045
 6573TIP3   OH241133   6.630   2.264  10.379  0.0331 -0.1699 -0.0375
 6573TIP3    H141134   6.711   2.316  10.370 -1.3965  2.9492  2.6491
 6573TIP3    H241135   6.655   2.192  10.436  1.2828 -0.2804 -0.6819
 6574TIP3   OH241136   6.371   5.918  16.083  0.1692  0.2312  0.9901
 6574TIP3    H141137   6.385   5.890  16.173 -0.9950 -1.7653  0.6307
 6574TIP3    H241138   6.311   5.852  16.047  1.4947  0.2961 -1.5639
 6575TIP3   OH241139   2.016   5.677  10.210  0.2952  0.6350  0.1734
 6575TIP3    H141140   1.932   5.641  10.184 -0.3083  2.3415 -0.3907
 6575TIP3    H241141   1.994   5.742  10.278  1.0309  1.6736 -0.5425
 6576TIP3   OH241142   2.937   4.852   5.535 -0.3981 -0.0315 -0.3159
 6576TIP3    H141143   2.956   4.772   5.485  0.1542 -1.0549  1.4461
 6576TIP3    H241144   2.940   4.824   5.626  1.8596  2.4117  0.4666
 6577TIP3   OH241145   2.730   1.903  12.701  0.2504  0.2866 -0.4267
 6577TIP3    H141146   2.819   1.907  12.737 -0.0729  1.4961  0.3081
 6577TIP3    H241147   2.685   1.839  12.756  0.6492 -0.3266 -0.7974
 6578TIP3   OH241148   4.463   6.860   4.851  0.4423  0.6880  0.2352
 6578TIP3    H141149   4.395   6.797   4.831  0.6824  0.1719  0.9716
 6578TIP3    H241150   4.416   6.941   4.872  0.0686  0.4230  0.4361
 6579TIP3   OH241151   3.474   3.335  16.643 -0.4493 -0.2610  0.1665
 6579TIP3    H141152   3.453   3.426  16.622 -1.6752 -0.8547 -1.3787
 6579TIP3    H241153   3.569   3.333  16.646 -0.3725  0.9121 -0.5608
 6580TIP3   OH241154   0.891   4.441   2.426  0.3025 -0.2222 -0.5716
 6580TIP3    H141155   0.903   4.384   2.350 -0.3895  0.0443 -0.8975
 6580TIP3    H241156   0.934   4.523   2.401  0.2082 -0.1864 -0.6189
 6581TIP3   OH241157   3.541   6.178  14.847  0.1349 -0.1954 -0.0226
 6581TIP3    H141158   3.516   6.089  14.821 -2.4122  0.1673  0.9329
 6581TIP3    H241159   3.595   6.209  14.775 -0.4670 -1.8675 -1.2735
 6582TIP3   OH241160   4.987   3.057  10.759 -0.3358  0.0137  0.1879
 6582TIP3    H141161   5.004   3.024  10.847  0.7928 -2.0021 -0.7200
 6582TIP3    H241162   4.892   3.071  10.756 -0.5206 -0.8436  1.4105
 6583TIP3   OH241163   6.491   6.890   2.526  0.2368  0.2351  0.1073
 6583TIP3    H141164   6.494   6.830   2.600  1.9808  0.4827  0.2907
 6583TIP3    H241165   6.526   6.972   2.561 -2.9249  1.7347  0.1141
 6584TIP3   OH241166   0.241   4.355  10.896 -0.4741  0.0385  0.6436
 6584TIP3    H141167   0.277   4.443  10.883 -1.8735  0.6263  0.6329
 6584TIP3    H241168   0.241   4.316  10.808 -0.2916  0.1861  0.5767
 6585TIP3   OH241169   6.819   3.088  10.625 -0.0293 -0.5207  0.1548
 6585TIP3    H141170   6.765   3.117  10.551  0.0991  0.5385  0.4545
 6585TIP3    H241171   6.907   3.119  10.604 -0.2971  1.3369  1.5201
 6586TIP3   OH241172   3.895   4.261   0.644 -0.9262  0.5146  0.2628
 6586TIP3    H141173   3.828   4.196   0.669 -2.9692  2.5454  0.4190
 6586TIP3    H241174   3.909   4.246   0.551  0.9099 -2.0214  0.8255
 6587TIP3   OH241175   0.868   1.091   1.670  0.0639 -0.3613  0.1303
 6587TIP3    H141176   0.850   1.131   1.755  0.7532 -1.2213  0.7003
 6587TIP3    H241177   0.935   1.146   1.630 -1.1302  0.7562 -0.4195
 6588TIP3   OH241178   3.554   1.997  10.676  0.4336  0.0038 -0.2976
 6588TIP3    H141179   3.541   2.089  10.654 -0.5852  0.2270  1.0762
 6588TIP3    H241180   3.533   1.992  10.770  1.3480 -1.4628 -0.1339
 6589TIP3   OH241181   1.948   3.044   4.505  0.6006 -0.0105 -0.1315
 6589TIP3    H141182   1.917   3.036   4.415 -0.1951 -0.8989  0.1996
 6589TIP3    H241183   1.927   2.960   4.545 -0.5304  0.9097  1.3235
 6590TIP3   OH241184   4.851   1.971  15.006 -0.4925 -0.6400  0.3667
 6590TIP3    H141185   4.884   2.029  15.075  0.4382 -0.0395 -0.5456
 6590TIP3    H241186   4.915   1.900  15.003  0.0899 -0.0930 -0.6035
 6591TIP3   OH241187   4.629   6.098  15.874  0.4159 -0.0105 -0.1115
 6591TIP3    H141188   4.642   6.156  15.948 -0.0983 -2.0192  1.6656
 6591TIP3    H241189   4.701   6.118  15.814  0.1288  2.5409  0.2755
 6592TIP3   OH241190   1.050   0.662   0.977  0.1330  0.1395  0.3469
 6592TIP3    H141191   0.965   0.632   1.010 -1.3828 -0.0275 -3.1903
 6592TIP3    H241192   1.084   0.719   1.046 -3.1764  0.7508  1.6736
 6593TIP3   OH241193   1.075   2.385  14.544 -0.1281  0.4479 -0.0177
 6593TIP3    H141194   1.071   2.309  14.486 -1.1619  0.3978  0.1024
 6593TIP3    H241195   1.096   2.458  14.486  1.7757 -0.0460 -0.0019
 6594TIP3   OH241196   4.432   0.548  10.004  0.4730  0.6280  0.4593
 6594TIP3    H141197   4.394   0.461   9.998 -0.5020  1.1359 -1.3783
 6594TIP3    H241198   4.378   0.594  10.068 -0.3053  0.4971 -0.0968
 6595TIP3   OH241199   5.124   3.417  14.822 -0.5445 -0.0209  0.2439
 6595TIP3    H141200   5.199   3.456  14.867 -1.0314  0.0764  0.9792
 6595TIP3    H241201   5.055   3.483  14.828 -0.8079 -0.2628 -0.0996
 6596TIP3   OH241202   2.284   0.433   3.628  0.2866  0.2217 -0.0034
 6596TIP3    H141203   2.199   0.401   3.659 -0.0413 -0.7982 -1.8021
 6596TIP3    H241204   2.267   0.462   3.538  1.6750  0.8126 -0.0998
 6597TIP3   OH241205   4.378   3.581   1.933  0.0695  0.1059  0.2840
 6597TIP3    H141206   4.356   3.495   1.897  1.9961 -0.5850  0.5894
 6597TIP3    H241207   4.322   3.590   2.010  1.3460 -1.9733  1.5944
 6598TIP3   OH241208   6.265   1.704  10.002 -0.3828 -0.1621  0.1492
 6598TIP3    H141209   6.344   1.679   9.954 -2.0404 -1.3013 -2.2034
 6598TIP3    H241210   6.224   1.770   9.947 -0.6766  1.0478  1.7681
 6599TIP3   OH241211   3.558   0.158  12.579  0.1215 -0.0369 -0.0929
 6599TIP3    H141212   3.530   0.087  12.521  1.7547 -1.5174  0.8309
 6599TIP3    H241213   3.653   0.149  12.584  0.1091  0.5449  2.1685
 6600TIP3   OH241214   6.848   6.143  10.001 -0.3154  0.0682 -0.0274
 6600TIP3    H141215   6.790   6.070   9.979 -0.4803  0.6890 -1.8551
 6600TIP3    H241216   6.791   6.207  10.043 -0.2443 -0.6723  1.2440
 6601TIP3   OH241217   3.145   4.281   6.056  0.5432 -0.4008 -0.4853
 6601TIP3    H141218   3.136   4.352   5.993  0.0064 -0.5239 -0.5534
 6601TIP3    H241219   3.239   4.266   6.063  0.6297 -0.0259 -0.8520
 6602TIP3   OH241220   0.627   3.623   4.675  0.1236  0.1513  0.2267
 6602TIP3    H141221   0.554   3.629   4.737  0.6450  1.9413  0.7195
 6602TIP3    H241222   0.684   3.556   4.713 -1.6011 -1.9091 -0.6052
 6603TIP3   OH241223   0.892   1.841  12.441  0.3916 -0.4342  0.1054
 6603TIP3    H141224   0.957   1.909  12.419  2.3521 -1.8749  1.1780
 6603TIP3    H241225   0.911   1.770  12.379  0.1216 -1.0383  0.7117
 6604TIP3   OH241226   6.080   3.156  14.295 -0.1900  0.1711 -0.0608
 6604TIP3    H141227   6.075   3.122  14.206 -0.4508 -0.7112  0.2864
 6604TIP3    H241228   5.993   3.140  14.332  0.2142 -0.3858  0.6755
 6605TIP3   OH241229   3.631   2.667  14.142 -0.4053 -0.6820  0.1202
 6605TIP3    H141230   3.656   2.752  14.178 -0.7428 -0.8697  0.8247
 6605TIP3    H241231   3.714   2.620  14.130 -0.1858 -0.1167 -0.6540
 6606TIP3   OH241232   6.886   1.126  10.553  0.5953 -0.0214 -0.4282
 6606TIP3    H141233   6.826   1.076  10.499  0.8587 -3.1429  1.8740
 6606TIP3    H241234   6.969   1.125  10.506 -0.0299  0.5156 -1.5749
 6607TIP3   OH241235   0.602   4.179  14.544  0.3318 -0.1304  0.0406
 6607TIP3    H141236   0.677   4.172  14.604 -0.7775  0.9203  1.6337
 6607TIP3    H241237   0.636   4.227  14.469  1.3499  0.0093  0.5691
 6608TIP3   OH241238   2.435   6.502  15.688 -0.1519  0.1620  0.1329
 6608TIP3    H141239   2.417   6.566  15.758  0.1157  0.6688 -0.2557
 6608TIP3    H241240   2.415   6.549  15.607 -0.9617 -0.5908 -0.1160
 6609TIP3   OH241241   0.561   1.753   4.451 -0.0161  0.2448 -0.0343
 6609TIP3    H141242   0.606   1.671   4.468 -1.0777 -0.5007 -0.7013
 6609TIP3    H241243   0.624   1.804   4.399  0.8715  0.1069  0.8765
 6610TIP3   OH241244   1.536   0.259   2.885  0.3223 -1.4057 -0.0539
 6610TIP3    H141245   1.449   0.298   2.890  0.5900 -0.6883 -0.6920
 6610TIP3    H241246   1.520   0.165   2.882 -0.3327 -1.3736  1.5920
 6611TIP3   OH241247   5.994   2.836  13.936  0.0632  0.0869 -0.2923
 6611TIP3    H141248   5.981   2.743  13.955  2.2363  0.1836  2.2053
 6611TIP3    H241249   5.913   2.863  13.893 -0.7814 -2.8431 -0.7699
 6612TIP3   OH241250   4.896   6.139   4.822 -0.3050 -0.4076  0.2028
 6612TIP3    H141251   4.985   6.148   4.858 -0.0014 -1.7632 -0.1418
 6612TIP3    H241252   4.847   6.093   4.891 -1.2099  1.6880  1.0453
 6613TIP3   OH241253   0.191   2.839   3.407 -0.2288  0.3873  0.0098
 6613TIP3    H141254   0.172   2.861   3.315  0.1332 -0.3902 -0.2597
 6613TIP3    H241255   0.112   2.795   3.438 -1.1002  2.2817  0.6602
 6614TIP3   OH241256   2.451   1.499   4.469  0.5066 -0.1854 -0.3164
 6614TIP3    H141257   2.377   1.504   4.408 -0.2321 -0.2892  0.5392
 6614TIP3    H241258   2.465   1.406   4.483 -1.0623 -0.2016  1.6462
 6615TIP3   OH241259   3.226   3.759  11.675  0.0824  0.4135  0.4429
 6615TIP3    H141260   3.209   3.684  11.731 -1.1982  0.6537  0.3994
 6615TIP3    H241261   3.313   3.790  11.702  1.3904 -2.0387 -0.6508
 6616TIP3   OH241262   5.630   4.847   3.793 -0.2695  0.2418 -0.3665
 6616TIP3    H141263   5.577   4.840   3.873 -0.6035  0.9356 -0.5213
 6616TIP3    H241264   5.628   4.758   3.756 -2.0079  0.4053 -0.7823
 6617TIP3   OH241265   6.120   0.037   0.557 -0.1628  0.4581  0.0817
 6617TIP3    H141266   6.063  -0.036   0.581  1.2215  0.1925  2.9907
 6617TIP3    H241267   6.142   0.021   0.465  0.8807 -3.4270  0.8227
 6618TIP3   OH241268   5.475   3.240  14.015  0.3628  0.3560  0.4352
 6618TIP3    H141269   5.565   3.254  14.044  0.5144  0.0465  0.1332
 6618TIP3    H241270   5.446   3.164  14.065  0.9216 -0.7245 -0.8115
 6619TIP3   OH241271   0.832   2.741  13.983  0.4721  0.0076  0.4897
 6619TIP3    H141272   0.889   2.721  13.908  0.0247 -2.2640  0.6767
 6619TIP3    H241273   0.743   2.735  13.948  0.2559  2.1003  0.5348
 6620TIP3   OH241274   4.026   4.123   1.553 -0.1687 -0.4549  0.7363
 6620TIP3    H141275   3.963   4.079   1.496 -0.2907 -2.9768  2.5995
 6620TIP3    H241276   3.973   4.180   1.608 -0.1152  1.5339 -1.1551
 6621TIP3   OH241277   6.679   1.545  15.246 -0.3510 -0.2270 -0.1787
 6621TIP3    H141278   6.720   1.560  15.161  0.7962  0.4283  0.4634
 6621TIP3    H241279   6.751   1.556  15.310 -1.0350 -1.3630  0.8294
 6622TIP3   OH241280   0.011   3.520  14.236 -0.2863  0.1627 -1.0034
 6622TIP3    H141281  -0.011   3.613  14.235 -1.9941 -0.1526  0.5560
 6622TIP3    H241282   0.072   3.509  14.163  0.9161  2.6971 -0.5135
 6623TIP3   OH241283   6.144   4.259  11.773  0.1086  0.0831 -0.5158
 6623TIP3    H141284   6.128   4.353  11.766  1.4597  0.5595  1.7894
 6623TIP3    H241285   6.182   4.235  11.688  0.9001  1.8945 -0.7236
 6624TIP3   OH241286   3.739   5.397  14.849 -0.1090 -0.1057 -0.4879
 6624TIP3    H141287   3.719   5.475  14.901 -1.0389 -0.3648 -0.4258
 6624TIP3    H241288   3.819   5.419  14.801  0.1890  0.5132  0.2761
 6625TIP3   OH241289   0.271   6.760   5.303  0.3071 -0.0156 -0.3578
 6625TIP3    H141290   0.225   6.844   5.311  0.1460 -0.1539  0.2119
 6625TIP3    H241291   0.357   6.776   5.343  0.1678 -0.2022  0.0209
 6626TIP3   OH241292   4.517   3.503  13.061 -0.0096 -0.0248 -0.3382
 6626TIP3    H141293   4.488   3.412  13.051 -0.1234  0.1471 -1.6962
 6626TIP3    H241294   4.597   3.497  13.114 -1.0185 -0.7375  1.1861
 6627TIP3   OH241295   3.257   2.809  10.696  0.8687 -0.4906 -0.6687
 6627TIP3    H141296   3.292   2.897  10.712 -0.3938  0.3324 -2.2309
 6627TIP3    H241297   3.290   2.785  10.610 -0.8064 -0.4892 -1.3420
 6628TIP3   OH241298   2.044   1.190  12.487  1.5019 -0.6155 -0.2712
 6628TIP3    H141299   2.001   1.140  12.418 -0.5091  0.7275 -0.0772
 6628TIP3    H241300   2.028   1.140  12.567 -0.3737  0.1569 -0.1019
 6629TIP3   OH241301   2.648   1.919   3.533  0.4238 -0.3718 -0.5687
 6629TIP3    H141302   2.687   1.839   3.499  0.5236  0.0125 -1.3884
 6629TIP3    H241303   2.587   1.947   3.464 -0.7957 -0.5944  0.3868
 6630TIP3   OH241304   6.414   4.552   1.903  0.4059 -0.2099 -0.3717
 6630TIP3    H141305   6.351   4.547   1.976  0.0527  1.3717 -0.5446
 6630TIP3    H241306   6.470   4.475   1.915 -1.8271 -1.9557 -0.4687
 6631TIP3   OH241307   1.589   4.437  14.327  0.2901  0.2350  0.0788
 6631TIP3    H141308   1.518   4.437  14.392  1.2260  0.4153  1.1302
 6631TIP3    H241309   1.544   4.450  14.243 -0.9412  0.0974  0.6902
 6632TIP3   OH241310   1.347   3.889  15.552 -0.0857  0.4331 -0.0887
 6632TIP3    H141311   1.373   3.926  15.636  0.2893  0.0509 -0.0341
 6632TIP3    H241312   1.408   3.816  15.538 -2.1043 -1.5488  0.8213
 6633TIP3   OH241313   4.381   0.207   4.977  0.3759  0.1472 -0.0839
 6633TIP3    H141314   4.460   0.259   4.960 -0.3306  0.5655 -2.5287
 6633TIP3    H241315   4.311   0.272   4.982 -0.1967 -0.3927 -0.8647
 6634TIP3   OH241316   1.737   1.941  16.468  0.2954 -0.6356  0.0503
 6634TIP3    H141317   1.807   1.877  16.481  0.6007 -0.6514 -1.5133
 6634TIP3    H241318   1.783   2.025  16.461  0.2073 -0.6940 -1.3621
 6635TIP3   OH241319   5.283   4.579   3.653 -0.4539  0.1538 -0.4564
 6635TIP3    H141320   5.270   4.674   3.656  1.0149  0.4001 -1.0630
 6635TIP3    H241321   5.197   4.543   3.632 -1.4442  1.2074  1.5647
 6636TIP3   OH241322   4.492   5.901  14.350 -0.1413 -0.5539  0.2608
 6636TIP3    H141323   4.492   5.993  14.324 -0.9181 -0.8946 -1.0573
 6636TIP3    H241324   4.579   5.868  14.324 -0.3915 -0.5364 -0.6175
 6637TIP3   OH241325   6.651   6.375  13.753  0.3877  0.1101 -0.5646
 6637TIP3    H141326   6.570   6.390  13.802  0.4701 -1.0190 -0.0457
 6637TIP3    H241327   6.623   6.377  13.661  0.3314  2.8037 -0.5701
 6638TIP3   OH241328   0.199   0.082  15.431 -0.2389  0.3674 -0.3072
 6638TIP3    H141329   0.255   0.079  15.509  1.9550 -2.0256 -1.8202
 6638TIP3    H241330   0.219   0.167  15.391  1.5798 -0.0092 -0.2764
 6639TIP3   OH241331   4.681   6.056   3.417  0.6582 -0.0553 -0.1332
 6639TIP3    H141332   4.654   6.067   3.508 -0.2677 -0.1230 -0.3878
 6639TIP3    H241333   4.675   6.143   3.380  0.5955 -0.1078 -0.2461
 6640TIP3   OH241334   1.138   0.111  15.162  0.0039 -0.2949 -0.1183
 6640TIP3    H141335   1.228   0.117  15.194 -0.2583  1.2703  0.3830
 6640TIP3    H241336   1.144   0.140  15.071  0.1000 -0.8452 -0.2930
 6641TIP3   OH241337   1.158   1.398  15.790 -0.2109 -0.4025  0.0299
 6641TIP3    H141338   1.225   1.338  15.758  1.2777  0.4871  1.3868
 6641TIP3    H241339   1.195   1.437  15.869 -1.4155  1.7754 -0.3985
 6642TIP3   OH241340   0.571   2.629   5.414  0.3871  1.0872  0.2174
 6642TIP3    H141341   0.548   2.611   5.322 -0.1574 -2.1511  0.8575
 6642TIP3    H241342   0.506   2.693   5.443 -0.8797  0.4502 -1.0637
 6643TIP3   OH241343   5.149   0.579   9.865  0.0665  0.2523 -0.6886
 6643TIP3    H141344   5.245   0.577   9.874  0.1450  1.2876 -1.1013
 6643TIP3    H241345   5.123   0.487   9.864  0.8876 -0.0369  0.9927
 6644TIP3   OH241346   0.289   0.141  10.083 -0.5205 -0.9173  0.1456
 6644TIP3    H141347   0.286   0.053  10.120  1.4840 -1.0505  0.0928
 6644TIP3    H241348   0.363   0.184  10.126  0.1675 -0.1468 -1.6734
 6645TIP3   OH241349   0.858   2.076  12.969  0.0845 -0.0391 -0.1559
 6645TIP3    H141350   0.787   2.067  13.032  2.2223  1.1244  2.6254
 6645TIP3    H241351   0.923   2.012  12.997  2.6019  2.8871  1.2456
 6646TIP3   OH241352   3.741   0.417   3.287  0.0369  0.1232  0.6700
 6646TIP3    H141353   3.786   0.471   3.352 -0.9708  1.5717  0.2215
 6646TIP3    H241354   3.668   0.378   3.335  0.1969 -0.0629  0.7647
 6647TIP3   OH241355   0.122   3.182  14.168 -0.2452  0.6083 -0.3632
 6647TIP3    H141356   0.141   3.235  14.091  2.0368  0.4674  0.0260
 6647TIP3    H241357   0.208   3.160  14.204 -1.2234  0.5508  2.1585
 6648TIP3   OH241358   4.502   2.209   6.114  0.0864  0.0201 -0.4023
 6648TIP3    H141359   4.559   2.175   6.183 -0.8074  0.8410  0.7736
 6648TIP3    H241360   4.477   2.132   6.063  0.8351 -0.5840  0.1293
 6649TIP3   OH241361   4.994   5.972   1.848  0.1554 -0.0214 -0.5539
 6649TIP3    H141362   4.980   5.921   1.768  0.6747  0.6310 -1.0653
 6649TIP3    H241363   4.927   6.040   1.845 -1.2807 -1.3006  0.6922
 6650TIP3   OH241364   3.453   4.982  15.719 -0.1746  0.0835  0.2038
 6650TIP3    H141365   3.417   4.914  15.776 -1.8634  1.7311  1.2718
 6650TIP3    H241366   3.526   5.019  15.768 -0.1732 -0.0155  0.2758
 6651TIP3   OH241367   6.116   0.648   5.740 -0.4454 -0.4050 -0.0888
 6651TIP3    H141368   6.094   0.652   5.833  1.3950  0.4977  0.3586
 6651TIP3    H241369   6.079   0.565   5.709 -0.8581 -0.8400  1.5097
 6652TIP3   OH241370   4.816   5.392   2.214  0.1724  0.0685 -0.0409
 6652TIP3    H141371   4.826   5.337   2.291 -1.1852  0.7606  0.6679
 6652TIP3    H241372   4.850   5.339   2.142 -1.7162 -2.0144  0.4858
 6653TIP3   OH241373   0.978   3.355  15.115 -0.0056  0.4613 -0.1106
 6653TIP3    H141374   0.957   3.264  15.136  2.5236 -0.3778 -0.8247
 6653TIP3    H241375   0.893   3.399  15.109 -1.2904 -1.7836  0.4728
 6654TIP3   OH241376   0.374   1.157   2.808  0.3211  0.3527 -0.6733
 6654TIP3    H141377   0.370   1.248   2.835  1.3253  0.1528  0.2490
 6654TIP3    H241378   0.337   1.108   2.881  2.0794 -0.1245 -0.0437
 6655TIP3   OH241379   5.899   1.165  16.537 -0.3500 -0.3810  0.3322
 6655TIP3    H141380   5.809   1.174  16.567 -0.1729  0.5063  0.6211
 6655TIP3    H241381   5.893   1.110  16.459 -1.2179  0.2222 -0.0367
 6656TIP3   OH241382   4.587   5.341  12.023  0.1236 -0.0249  0.4323
 6656TIP3    H141383   4.614   5.406  12.088  0.3404 -1.2935  1.6608
 6656TIP3    H241384   4.604   5.383  11.939  1.4003  1.0567  1.1875
 6657TIP3   OH241385   2.303   3.562  13.057  0.2713 -0.3606  0.2754
 6657TIP3    H141386   2.235   3.629  13.065 -0.9032 -1.5346  0.4894
 6657TIP3    H241387   2.357   3.592  12.984 -0.0109  0.9893  0.5885
 6658TIP3   OH241388   6.164   2.806   3.688  0.2017 -0.0871 -0.2478
 6658TIP3    H141389   6.129   2.855   3.613 -0.5378 -2.7135 -1.7583
 6658TIP3    H241390   6.112   2.837   3.762 -1.8377 -0.1873 -1.5491
 6659TIP3   OH241391   1.886   1.228   1.993 -0.1922 -0.5547  0.2766
 6659TIP3    H141392   1.950   1.157   1.998  2.7903  1.7936 -0.9175
 6659TIP3    H241393   1.837   1.212   1.913 -0.1755 -1.6944  0.4834
 6660TIP3   OH241394   0.734   6.713   2.232  0.4331  0.2651 -0.2979
 6660TIP3    H141395   0.667   6.655   2.196  0.5406 -0.2734  0.3520
 6660TIP3    H241396   0.807   6.655   2.253  0.9585  0.7964 -0.6435
 6661TIP3   OH241397   6.001   6.083   3.951 -0.3864  0.3859  0.3893
 6661TIP3    H141398   6.010   6.068   4.045  1.8593 -2.1115 -0.1125
 6661TIP3    H241399   5.922   6.137   3.943 -1.2689 -0.2156  3.5985
 6662TIP3   OH241400   4.218   0.151   1.028  0.2049 -0.1560  0.1358
 6662TIP3    H141401   4.254   0.116   1.109 -1.0611 -0.6494  0.5162
 6662TIP3    H241402   4.263   0.234   1.015  0.3748 -0.0335  1.3980
 6663TIP3   OH241403   4.716   5.199  15.137  0.0128 -0.0557 -0.0609
 6663TIP3    H141404   4.666   5.206  15.219 -0.5461 -0.4285 -0.3630
 6663TIP3    H241405   4.806   5.182  15.165 -0.1286  0.0602  0.4774
 6664TIP3   OH241406   0.080   0.729  11.135 -0.3035 -0.2371 -0.2598
 6664TIP3    H141407   0.154   0.766  11.086 -0.0720  0.3678  0.5196
 6664TIP3    H241408   0.114   0.720  11.225 -1.4209  0.8234  0.2922
 6665TIP3   OH241409   1.954   0.844  15.799 -0.3486  0.1561 -0.0443
 6665TIP3    H141410   1.884   0.785  15.826  0.1813 -0.9850 -1.0559
 6665TIP3    H241411   2.002   0.796  15.732  0.5033  1.4969 -0.4538
 6666TIP3   OH241412   0.635   0.293   3.830 -0.4233  0.2322 -0.2443
 6666TIP3    H141413   0.726   0.266   3.818 -0.3700  0.6376 -0.8412
 6666TIP3    H241414   0.640   0.388   3.844 -0.8391  0.5078 -1.7562
 6667TIP3   OH241415   4.444   2.529  15.739 -0.4406  0.0063 -1.2282
 6667TIP3    H141416   4.469   2.458  15.680  4.9036  0.6536 -0.2779
 6667TIP3    H241417   4.427   2.603  15.681  0.5579 -0.4158 -2.0867
 6668TIP3   OH241418   0.317   5.004  10.709 -0.1508  0.0702  0.2344
 6668TIP3    H141419   0.331   5.039  10.620  1.1536  0.3062  0.5196
 6668TIP3    H241420   0.373   5.058  10.765  0.1700 -1.0400  1.0032
 6669TIP3   OH241421   5.197   3.619   2.564 -0.1835  0.0626  0.0506
 6669TIP3    H141422   5.164   3.669   2.489 -0.9085 -0.5096 -0.0225
 6669TIP3    H241423   5.255   3.553   2.525  0.7436  0.8057  0.1439
 6670TIP3   OH241424   4.718   6.697   0.438  0.0152  0.0971  0.2571
 6670TIP3    H141425   4.764   6.722   0.358  0.5402  0.0301  0.5347
 6670TIP3    H241426   4.713   6.777   0.490  0.9476 -0.1717  0.7770
 6671TIP3   OH241427   2.921   2.528  14.837  0.3819  0.4987  0.4309
 6671TIP3    H141428   2.880   2.593  14.780 -3.8021 -0.9301  1.4770
 6671TIP3    H241429   2.903   2.444  14.796  0.2166 -0.3501  2.1321
 6672TIP3   OH241430   4.501   0.221  13.715 -0.4769 -0.5794 -0.0466
 6672TIP3    H141431   4.486   0.180  13.630  0.1888 -1.1210  0.0844
 6672TIP3    H241432   4.462   0.161  13.778  1.9814 -1.9506  0.2862
 6673TIP3   OH241433   1.048   6.802   0.228  0.0135  0.1077  0.3802
 6673TIP3    H141434   1.139   6.790   0.203  0.1316  3.3860 -1.4331
 6673TIP3    H241435   1.004   6.828   0.146 -2.1101  0.5398  1.5730
 6674TIP3   OH241436   4.192   0.166   0.562  0.0864  0.4238 -0.0526
 6674TIP3    H141437   4.150   0.081   0.572  0.8838 -0.0481 -0.6056
 6674TIP3    H241438   4.120   0.227   0.544 -0.4239 -0.2274 -0.2473
 6675TIP3   OH241439   5.377   1.359   4.596 -1.0361 -0.2493 -0.5079
 6675TIP3    H141440   5.459   1.407   4.593  0.0465 -1.7896  1.4404
 6675TIP3    H241441   5.327   1.401   4.666 -0.9813 -0.5948 -0.2539
 6676TIP3   OH241442   2.425   4.852   3.709  0.1492  0.3267 -0.2013
 6676TIP3    H141443   2.507   4.806   3.728 -0.7651 -1.6640 -0.7820
 6676TIP3    H241444   2.357   4.796   3.746 -1.0920  0.6892 -1.8264
 6677TIP3   OH241445   1.218   0.749   1.671  1.0613  0.6143  0.0185
 6677TIP3    H141446   1.224   0.787   1.584 -1.2973  1.8572  0.3193
 6677TIP3    H241447   1.156   0.805   1.718 -0.5765 -2.0991  1.3512
 6678TIP3   OH241448   2.974   1.291   1.054  0.2547  0.6931  0.0729
 6678TIP3    H141449   2.958   1.203   1.088  0.5331  0.5964 -0.0445
 6678TIP3    H241450   2.971   1.281   0.959  2.6573  0.3338 -0.0292
 6679TIP3   OH241451   5.776   4.628  13.219 -0.4735 -0.2326  0.0574
 6679TIP3    H141452   5.833   4.604  13.293 -0.7834 -1.1991 -0.0083
 6679TIP3    H241453   5.740   4.713  13.244  2.1380  1.1682 -0.5612
 6680TIP3   OH241454   2.388   0.672   1.941 -0.7208  0.2142  0.2956
 6680TIP3    H141455   2.313   0.677   1.883 -0.0310  2.1648 -0.5023
 6680TIP3    H241456   2.351   0.662   2.029 -1.8634  0.4172 -0.1603
 6681TIP3   OH241457   4.575   0.623  11.160 -0.1332 -0.4410 -0.3086
 6681TIP3    H141458   4.496   0.618  11.106 -1.1374  1.7284  0.8557
 6681TIP3    H241459   4.544   0.611  11.249  0.6041  1.7522  0.3006
 6682TIP3   OH241460   0.745   1.030   3.009 -0.3013  0.8248 -0.0620
 6682TIP3    H141461   0.687   1.079   3.068  0.3251  1.4151  0.0744
 6682TIP3    H241462   0.817   1.091   2.990  0.3561  0.0511 -0.0989
 6683TIP3   OH241463   0.236   3.264   4.421  0.3618 -0.5006  0.2767
 6683TIP3    H141464   0.252   3.294   4.510  0.8805  2.0331 -0.5899
 6683TIP3    H241465   0.264   3.172   4.421 -0.0906 -0.7159  2.7946
 6684TIP3   OH241466   5.216   2.997   2.001 -1.0709 -0.0437  0.0487
 6684TIP3    H141467   5.172   2.935   1.943  0.6176 -2.8037  1.4842
 6684TIP3    H241468   5.145   3.045   2.044 -2.3809  1.7245 -3.6882
 6685TIP3   OH241469   2.283   0.365  12.190  0.3177 -0.0210 -0.6361
 6685TIP3    H141470   2.241   0.393  12.272  0.4793 -0.5019 -0.3869
 6685TIP3    H241471   2.377   0.370  12.208  0.4111  1.4311 -1.3155
 6686TIP3   OH241472   5.151   2.013   4.285 -0.5146 -0.5157 -0.1673
 6686TIP3    H141473   5.060   1.995   4.311 -0.7496 -0.2428 -0.7770
 6686TIP3    H241474   5.154   2.109   4.277 -0.1130 -0.5096  0.0617
 6687TIP3   OH241475   1.003   6.035  10.792  0.0698 -0.5017 -0.2751
 6687TIP3    H141476   1.062   6.047  10.717 -0.1168 -0.3335 -0.3964
 6687TIP3    H241477   0.949   6.114  10.793  1.5138  0.5424  1.3651
 6688TIP3   OH241478   4.981   3.566  12.627  0.4529 -0.0685 -0.4921
 6688TIP3    H141479   5.071   3.590  12.604  0.5815  0.9718  0.9453
 6688TIP3    H241480   4.935   3.561  12.543  1.5305  0.7467 -1.1548
 6689TIP3   OH241481   3.563   3.459  15.773  0.0773  0.0178  0.1552
 6689TIP3    H141482   3.621   3.429  15.702  1.9641  1.1948  1.0947
 6689TIP3    H241483   3.600   3.420  15.852 -0.5280  0.6455  0.7613
 6690TIP3   OH241484   1.909   3.869   4.382 -0.0174  0.3818  1.2128
 6690TIP3    H141485   1.947   3.799   4.436  0.6183  0.1470  0.4728
 6690TIP3    H241486   1.877   3.825   4.304  0.5584  0.9385  0.6517
 6691TIP3   OH241487   1.200   4.392  16.692  0.6169  0.2413 -0.0379
 6691TIP3    H141488   1.260   4.428  16.627  1.4762 -1.4846 -0.2582
 6691TIP3    H241489   1.229   4.429  16.775  0.8887  0.7658 -0.3624
 6692TIP3   OH241490   3.853   6.877  16.190 -0.1771  0.3100 -0.4512
 6692TIP3    H141491   3.906   6.822  16.247 -2.0490  0.0261  1.1457
 6692TIP3    H241492   3.885   6.966  16.205  0.0187  0.1165  0.3035
 6693TIP3   OH241493   3.389   5.149  12.280  0.5073 -0.1965 -0.3169
 6693TIP3    H141494   3.460   5.209  12.256  1.3598 -0.5378  1.2102
 6693TIP3    H241495   3.352   5.187  12.360 -0.2686 -0.6598 -0.4492
 6694TIP3   OH241496   3.324   0.696   1.302 -0.1279  0.3804  0.2791
 6694TIP3    H141497   3.384   0.623   1.315  0.1638  0.4496 -0.5840
 6694TIP3    H241498   3.239   0.663   1.330 -0.3304 -0.8642 -1.5798
 6695TIP3   OH241499   6.359   6.567   3.610 -0.0646 -0.1862 -0.2488
 6695TIP3    H141500   6.330   6.620   3.536 -0.1744  0.4121  0.2120
 6695TIP3    H241501   6.422   6.506   3.573  0.6607  0.7925 -0.6561
 6696TIP3   OH241502   4.628   1.235  15.393  0.6266  0.1164  0.0462
 6696TIP3    H141503   4.632   1.157  15.338  0.8166 -0.9010  1.4417
 6696TIP3    H241504   4.573   1.296  15.345  1.3503 -0.4615 -1.5789
 6697TIP3   OH241505   0.958   3.374  13.849 -0.1037 -0.2042 -0.3154
 6697TIP3    H141506   1.000   3.313  13.909  1.0169  0.9024  0.0600
 6697TIP3    H241507   0.878   3.329  13.821  0.5439 -1.7105  0.1608
 6698TIP3   OH241508   4.860   2.162   4.194 -0.1731  0.3111 -0.2876
 6698TIP3    H141509   4.939   2.211   4.220 -0.5938 -0.4448  2.8535
 6698TIP3    H241510   4.869   2.078   4.239 -2.1177 -0.3457 -1.0537
 6699TIP3   OH241511   5.548   2.356   2.691 -0.1489  0.3485 -0.2728
 6699TIP3    H141512   5.600   2.421   2.739 -0.7481 -0.7381  1.9932
 6699TIP3    H241513   5.612   2.291   2.662  0.1824  0.8508 -0.6889
 6700TIP3   OH241514   1.386   5.035  12.283  0.2631 -0.0405  0.0969
 6700TIP3    H141515   1.456   5.081  12.238  0.1982 -0.6503 -0.6579
 6700TIP3    H241516   1.308   5.089  12.269  0.4015  0.1791  0.1688
 6701TIP3   OH241517   4.146   5.897   5.746  0.5065  0.5420  0.2195
 6701TIP3    H141518   4.229   5.858   5.773  0.6619  0.4287 -0.4139
 6701TIP3    H241519   4.167   5.988   5.725  0.4987  0.4715 -0.0911
 6702TIP3   OH241520   0.728   0.195  13.562  0.1340  0.6030  0.2902
 6702TIP3    H141521   0.725   0.122  13.500 -0.4122  1.1949 -0.3934
 6702TIP3    H241522   0.819   0.196  13.593  0.2737 -0.0526 -0.0719
 6703TIP3   OH241523   1.623   3.988  14.902  0.2192  0.2420  0.2541
 6703TIP3    H141524   1.717   3.997  14.886  0.1649  0.0641 -0.1771
 6703TIP3    H241525   1.617   3.946  14.988  0.5340  0.3000  0.3049
 6704TIP3   OH241526   2.092   4.051   1.082  0.6683  0.2189 -0.4080
 6704TIP3    H141527   2.038   3.984   1.124 -0.2491  0.1113 -1.6763
 6704TIP3    H241528   2.029   4.102   1.030  1.3601  2.0063  0.4434
 6705TIP3   OH241529   3.641   4.046  14.159  0.3715  0.1186  0.0386
 6705TIP3    H141530   3.586   3.999  14.096 -1.0596 -0.3449  1.5579
 6705TIP3    H241531   3.726   4.002  14.154  0.3121  0.1234 -1.5692
 6706TIP3   OH241532   1.774   2.990  13.877  0.3556  0.1515  0.4132
 6706TIP3    H141533   1.704   3.030  13.825  0.6726 -0.9954 -0.9568
 6706TIP3    H241534   1.831   3.064  13.901  0.0213  0.7572 -0.5947
 6707TIP3   OH241535   2.943   1.678   3.540 -0.4075  0.4011 -0.7087
 6707TIP3    H141536   2.848   1.678   3.526 -0.7113 -0.6823  0.9783
 6707TIP3    H241537   2.955   1.728   3.621  0.3636 -0.2239 -0.4256
 6708TIP3   OH241538   5.975   5.847   5.246  0.5348  0.3998  0.3367
 6708TIP3    H141539   5.941   5.765   5.211 -0.1416  1.1076 -0.6870
 6708TIP3    H241540   6.038   5.876   5.181  0.7875  0.7002  0.7104
 6709TIP3   OH241541   1.758   0.256   0.192 -0.2166  0.1333  0.1807
 6709TIP3    H141542   1.691   0.271   0.125 -1.6141  1.0034  1.6863
 6709TIP3    H241543   1.790   0.344   0.214  0.8567 -0.2114  0.0531
 6710TIP3   OH241544   3.183   0.188  16.142 -0.1327 -0.0325 -0.0904
 6710TIP3    H141545   3.273   0.218  16.126 -0.0188 -0.3899 -0.1302
 6710TIP3    H241546   3.181   0.099  16.108 -0.4777 -0.0597 -0.0024
 6711TIP3   OH241547   2.035   5.543   3.341 -0.1336  0.7268  0.1270
 6711TIP3    H141548   2.077   5.479   3.398  1.6381  2.5321  0.9623
 6711TIP3    H241549   1.995   5.491   3.271  1.1196 -1.2691  0.8273
 6712TIP3   OH241550   1.124   1.298   6.270 -0.0161  0.4324 -0.1563
 6712TIP3    H141551   1.124   1.234   6.341  1.3266  0.7325  0.1408
 6712TIP3    H241552   1.080   1.254   6.198  0.3163 -0.5941  0.2494
 6713TIP3   OH241553   2.759   4.739  14.263  0.2727  0.0978 -0.4641
 6713TIP3    H141554   2.735   4.653  14.297 -0.4427  0.1045 -0.9308
 6713TIP3    H241555   2.834   4.766  14.317  1.5880 -1.5220 -1.4031
 6714TIP3   OH241556   3.501   4.204  12.716  0.3958 -0.1746 -0.7063
 6714TIP3    H141557   3.536   4.273  12.660  0.3862 -1.5054 -2.4407
 6714TIP3    H241558   3.544   4.124  12.686 -0.0407 -1.0393  0.8443
 6715TIP3   OH241559   3.958   3.031   1.342 -0.1887  0.4770 -0.2617
 6715TIP3    H141560   3.977   3.060   1.253 -0.5252  1.8029  0.0691
 6715TIP3    H241561   3.948   3.113   1.392 -0.9528 -0.2243  0.7816
 6716TIP3   OH241562   0.377   0.245  12.584  0.1567  0.1933  0.2718
 6716TIP3    H141563   0.335   0.285  12.660  1.9941  2.1529  0.3617
 6716TIP3    H241564   0.383   0.316  12.519  2.6924 -0.1017  0.0684
 6717TIP3   OH241565   4.774   5.608   4.539  0.1277  0.0094  0.5872
 6717TIP3    H141566   4.793   5.644   4.452 -0.4344 -2.0829 -0.4677
 6717TIP3    H241567   4.859   5.609   4.584  0.8999 -0.7999 -0.7593
 6718TIP3   OH241568   1.961   6.262  16.442 -0.2369  0.1330 -0.2027
 6718TIP3    H141569   1.954   6.312  16.523 -1.4151 -0.1713 -0.1012
 6718TIP3    H241570   1.884   6.288  16.391  1.0062  1.0831 -1.6852
 6719TIP3   OH241571   1.578   4.751   4.505  1.3453 -0.1681 -0.1951
 6719TIP3    H141572   1.667   4.782   4.520  1.5247 -1.1922  1.1172
 6719TIP3    H241573   1.586   4.690   4.432  2.0539 -1.4269  0.8668
 6720TIP3   OH241574   2.909   0.342  11.491  0.5042  0.2843  0.3322
 6720TIP3    H141575   2.870   0.257  11.514  1.1536  0.1665  1.0089
 6720TIP3    H241576   2.863   0.405  11.545  0.9714  0.1958  0.8311
 6721TIP3   OH241577   3.495   3.491   3.744 -0.6263 -0.0038  0.4619
 6721TIP3    H141578   3.541   3.454   3.669 -0.9054 -0.3336  0.4503
 6721TIP3    H241579   3.431   3.551   3.706 -1.1891 -0.6372  0.4013
 6722TIP3   OH241580   4.132   4.538   9.876  0.2693  0.0073  0.0283
 6722TIP3    H141581   4.074   4.584   9.936 -1.1196 -1.1037 -0.3907
 6722TIP3    H241582   4.083   4.459   9.851  1.9172 -0.9219 -0.4515
 6723TIP3   OH241583   3.109   0.178  13.580 -0.1817  0.2181 -0.3803
 6723TIP3    H141584   3.043   0.245  13.597 -0.6779 -0.7283  1.7563
 6723TIP3    H241585   3.192   0.219  13.605 -0.4298  0.1845  0.5201
 6724TIP3   OH241586   3.418   4.845  13.849 -0.2457 -0.0463  0.1738
 6724TIP3    H141587   3.430   4.803  13.764 -0.5190 -1.7380  0.9307
 6724TIP3    H241588   3.323   4.841  13.864 -0.0206 -1.7460  1.4692
 6725TIP3   OH241589   1.198   1.502  15.258  0.2267 -0.8931  0.4868
 6725TIP3    H141590   1.130   1.493  15.325  0.4211  0.8560  0.9830
 6725TIP3    H241591   1.158   1.556  15.191  0.9997 -0.1462  0.6179
 6726TIP3   OH241592   6.794   5.621  11.900 -0.2663 -0.3278  0.2686
 6726TIP3    H141593   6.881   5.658  11.884 -0.5335  0.1841 -0.0355
 6726TIP3    H241594   6.740   5.654  11.829 -1.5030  2.0834  2.1641
 6727TIP3   OH241595   5.658   5.861   0.321 -0.2688 -0.5011 -0.0871
 6727TIP3    H141596   5.697   5.811   0.249 -1.4290 -0.5600 -0.6926
 6727TIP3    H241597   5.729   5.872   0.383  1.3052  1.2041 -2.0603
 6728TIP3   OH241598   1.852   3.382   5.061  0.3926 -0.4281  0.3038
 6728TIP3    H141599   1.811   3.468   5.057  1.9655  0.3268 -0.2723
 6728TIP3    H241600   1.804   3.330   4.996  0.0564  0.3028 -0.0441
 6729TIP3   OH241601   6.265   2.532  11.993  0.2968  0.1831  0.0502
 6729TIP3    H141602   6.279   2.609  12.047 -1.7298  0.4979  0.1768
 6729TIP3    H241603   6.198   2.482  12.039  1.8174 -1.8967  0.1758
 6730TIP3   OH241604   6.078   3.232  10.515 -0.7714  0.4049  0.0008
 6730TIP3    H141605   5.999   3.208  10.565  0.3726 -2.1656  0.7463
 6730TIP3    H241606   6.056   3.210  10.424 -1.1576  0.3558  0.1017
 6731TIP3   OH241607   4.247   1.301   0.306 -0.1416 -0.7320 -0.0986
 6731TIP3    H141608   4.298   1.236   0.355 -1.2110 -1.3747  0.1957
 6731TIP3    H241609   4.277   1.290   0.215 -1.4713 -2.8746 -0.3611
 6732TIP3   OH241610   3.957   0.974  14.137 -0.3984 -0.2226 -0.4296
 6732TIP3    H141611   3.970   1.067  14.154 -0.2198 -0.5248  1.1630
 6732TIP3    H241612   3.882   0.971  14.078 -1.3497  0.8551  0.6970
 6733TIP3   OH241613   4.806   3.789  11.483  0.0851 -0.1354  0.4289
 6733TIP3    H141614   4.840   3.768  11.396 -2.0242  0.1626 -0.5305
 6733TIP3    H241615   4.797   3.884  11.483 -2.3771 -0.3116 -0.0682
 6734TIP3   OH241616   0.428   0.333   0.863 -0.1415 -0.1818 -0.5755
 6734TIP3    H141617   0.486   0.288   0.801  1.8171  2.6248 -0.9865
 6734TIP3    H241618   0.449   0.294   0.948 -1.4099 -2.6717 -1.2870
 6735TIP3   OH241619   2.150   0.257   5.182 -0.1755  0.1933  0.2340
 6735TIP3    H141620   2.220   0.250   5.247 -2.3611 -0.1973  2.7257
 6735TIP3    H241621   2.116   0.168   5.173  1.3582 -0.1735 -3.1176
 6736TIP3   OH241622   1.716   2.294  14.087  0.1806  0.1726 -0.6572
 6736TIP3    H141623   1.806   2.323  14.067  0.7734  0.4457  2.0324
 6736TIP3    H241624   1.665   2.375  14.088  0.8085  0.6300  1.8134
 6737TIP3   OH241625   0.264   3.463  10.571 -0.0544 -0.1260 -0.1077
 6737TIP3    H141626   0.344   3.510  10.548  0.1447 -0.1405  0.5394
 6737TIP3    H241627   0.221   3.520  10.635 -1.0065  0.3014 -1.0781
 6738TIP3   OH241628   6.305   6.375  12.092 -0.3059 -0.1450 -0.1930
 6738TIP3    H141629   6.276   6.374  12.183  0.5432  2.2677  0.1826
 6738TIP3    H241630   6.267   6.455  12.055  1.0683  0.0436 -1.3294
 6739TIP3   OH241631   3.191   5.250   5.925 -0.0540  0.0142  0.6872
 6739TIP3    H141632   3.128   5.283   5.861 -0.2681 -1.0681  0.3131
 6739TIP3    H241633   3.266   5.308   5.918 -1.0281  1.4213  1.2280
 6740TIP3   OH241634   6.141   6.040  14.226 -0.5906  0.2278 -0.2336
 6740TIP3    H141635   6.093   5.966  14.262 -0.6981  0.8688  1.0174
 6740TIP3    H241636   6.224   6.040  14.273 -0.2387  0.3988 -0.8417
 6741TIP3   OH241637   3.934   4.894   0.061  0.1097  0.2270 -0.3338
 6741TIP3    H141638   3.857   4.853   0.022 -0.5416  1.5903 -0.5020
 6741TIP3    H241639   4.001   4.826   0.056 -0.3285 -0.1287 -2.5890
 6742TIP3   OH241640   6.069   1.027   3.913  0.0762  0.6267  0.2281
 6742TIP3    H141641   6.058   0.941   3.953 -2.4192 -0.1661 -1.8466
 6742TIP3    H241642   6.125   1.011   3.837  1.3049  1.2892  0.9629
 6743TIP3   OH241643   1.290   4.089  13.435  0.3039  0.6248  0.3003
 6743TIP3    H141644   1.207   4.064  13.394  0.8570  0.7617 -0.9666
 6743TIP3    H241645   1.275   4.078  13.528 -1.3318  1.1996  0.1455
 6744TIP3   OH241646   0.710   2.273   3.271  0.6381 -0.3279 -0.5942
 6744TIP3    H141647   0.795   2.248   3.235  1.5632  1.1876  0.4087
 6744TIP3    H241648   0.731   2.333   3.343 -1.2810  0.0116 -0.2539
 6745TIP3   OH241649   2.591   5.332  14.052  0.1678  0.6050 -0.0370
 6745TIP3    H141650   2.616   5.419  14.084 -2.4057  0.6934  2.0088
 6745TIP3    H241651   2.518   5.349  13.992 -0.6120 -0.1409  0.6836
 6746TIP3   OH241652   4.482   1.149  12.947 -0.1531 -0.1666  0.0155
 6746TIP3    H141653   4.544   1.087  12.907  0.9948  1.0476 -0.1652
 6746TIP3    H241654   4.400   1.134  12.902  0.2792 -1.1141 -0.4760
 6747TIP3   OH241655   6.599   4.908  12.334  0.5617  0.1290  0.3411
 6747TIP3    H141656   6.654   4.854  12.277  0.1180 -1.0478  0.9865
 6747TIP3    H241657   6.513   4.906  12.293  0.1607 -0.9877  1.1694
 6748TIP3   OH241658   6.594   5.159  16.054  0.1292 -0.0291 -0.1605
 6748TIP3    H141659   6.555   5.197  15.974  0.5281 -0.0378 -0.3599
 6748TIP3    H241660   6.668   5.216  16.074 -0.7331  0.7299  0.9462
 6749TIP3   OH241661   6.438   2.747   1.301 -0.3626  0.2449 -0.4985
 6749TIP3    H141662   6.382   2.727   1.226 -0.2552 -1.8358 -0.0661
 6749TIP3    H241663   6.523   2.707   1.278  0.8815  2.8783 -0.9165
 6750TIP3   OH241664   3.732   5.797   0.874  0.1295 -0.1435 -0.4973
 6750TIP3    H141665   3.699   5.877   0.833 -0.3889 -0.1373 -0.0740
 6750TIP3    H241666   3.793   5.828   0.941 -0.9050 -0.0428  0.4240
 6751TIP3   OH241667   5.034   6.265  13.905  0.4139  0.1893  0.0309
 6751TIP3    H141668   4.957   6.211  13.928  1.5679 -0.8848  1.5597
 6751TIP3    H241669   5.006   6.355  13.923 -1.0556  0.0231 -1.1477
 6752TIP3   OH241670   4.977   2.011  10.713 -0.0525  0.6321  0.5172
 6752TIP3    H141671   4.888   1.982  10.694  0.5716 -0.2655 -1.2195
 6752TIP3    H241672   5.031   1.934  10.701  0.9347  1.0285  2.1054
 6753TIP3   OH241673   5.828   5.823  11.949  0.4729  0.7684  0.4562
 6753TIP3    H141674   5.857   5.732  11.957 -2.2921 -0.1531  1.2081
 6753TIP3    H241675   5.781   5.827  11.866 -3.2189  0.1971  2.3356
 6754TIP3   OH241676   2.657   6.502   0.721 -0.2223 -0.7822 -0.5309
 6754TIP3    H141677   2.595   6.435   0.748 -1.6995  1.7684  3.2319
 6754TIP3    H241678   2.603   6.571   0.683  0.9379 -0.4998 -1.7374
 6755TIP3   OH241679   2.137   2.158   5.064  0.2552 -0.0439 -0.4688
 6755TIP3    H141680   2.168   2.225   5.125 -0.2886 -0.4794  0.3136
 6755TIP3    H241681   2.182   2.078   5.093 -0.9196 -0.5027  0.1364
 6756TIP3   OH241682   4.215   0.744   1.122  0.6615 -0.2287  0.3820
 6756TIP3    H141683   4.230   0.823   1.174  0.4184 -0.1127  0.2764
 6756TIP3    H241684   4.296   0.735   1.071  0.2112  0.6731 -0.5378
 6757TIP3   OH241685   0.749   6.208  14.655  0.1617  0.2946 -0.5977
 6757TIP3    H141686   0.725   6.119  14.679  2.0090  0.3394  1.7234
 6757TIP3    H241687   0.665   6.252  14.639 -0.7738 -1.7712 -1.7080
 6758TIP3   OH241688   6.102   5.444  14.974  0.2398 -0.1582  0.1147
 6758TIP3    H141689   6.108   5.535  14.944 -0.5685 -0.2431 -0.3418
 6758TIP3    H241690   6.013   5.437  15.010  0.2000 -0.8336 -0.1040
 6759TIP3   OH241691   2.110   2.373  15.195 -0.3586 -0.4535  0.6547
 6759TIP3    H141692   2.156   2.412  15.120  0.1373 -0.7699  0.7887
 6759TIP3    H241693   2.017   2.383  15.174 -0.2291 -0.0111  0.2715
 6760TIP3   OH241694   0.943   4.163  11.416 -0.4084 -0.5189 -0.1150
 6760TIP3    H141695   0.911   4.247  11.448  1.3160 -0.3116  1.1919
 6760TIP3    H241696   0.890   4.146  11.337  0.1149  2.4276 -1.2294
 6761TIP3   OH241697   1.460   2.855   5.302  0.3096  0.4597 -0.6908
 6761TIP3    H141698   1.486   2.940   5.337 -0.4545  0.4868 -0.1514
 6761TIP3    H241699   1.407   2.876   5.225 -0.7308  0.5311  0.0172
 6762TIP3   OH241700   6.057   1.805  11.365  0.3706 -0.3627  0.1494
 6762TIP3    H141701   5.996   1.872  11.396 -1.0291 -1.3707 -0.3766
 6762TIP3    H241702   6.144   1.842  11.384 -0.3446  1.7062 -0.3573
 6763TIP3   OH241703   3.607   0.099   4.672 -0.1730  0.1132 -0.6793
 6763TIP3    H141704   3.589   0.112   4.765  1.1490 -0.1954 -0.3622
 6763TIP3    H241705   3.521   0.086   4.633 -0.6520 -1.1515  0.7164
 6764TIP3   OH241706   6.634   4.248  14.155  0.1114 -0.3853 -0.5860
 6764TIP3    H141707   6.611   4.338  14.179  1.7065 -0.3143  0.8446
 6764TIP3    H241708   6.703   4.258  14.090  0.0056 -0.5886 -0.7315
 6765TIP3   OH241709   4.901   2.994   2.747  1.1695 -0.0747  0.1197
 6765TIP3    H141710   4.931   3.048   2.674 -0.3016 -0.0272 -0.4783
 6765TIP3    H241711   4.885   2.908   2.708  0.7054 -0.1427  0.4519
 6766TIP3   OH241712   5.592   4.708   1.013  0.3299  0.1003 -0.2843
 6766TIP3    H141713   5.585   4.723   0.919 -3.7894 -0.8788 -0.3001
 6766TIP3    H241714   5.511   4.743   1.049  1.6077  0.0757  2.9290
 6767TIP3   OH241715   4.114   0.743  15.190 -0.3621  0.9234  0.0583
 6767TIP3    H141716   4.169   0.737  15.112 -0.4628 -1.2534  0.0878
 6767TIP3    H241717   4.029   0.773  15.157 -0.5297 -0.3749 -0.7939
 6768TIP3   OH241718   1.168   6.679  10.230 -0.4108 -0.3664  0.6093
 6768TIP3    H141719   1.169   6.775  10.235  1.3245 -0.3163  0.0520
 6768TIP3    H241720   1.114   6.660  10.153  0.5057  0.2462 -0.2025
 6769TIP3   OH241721   1.661   6.435  15.966 -0.1195  0.5790 -0.2874
 6769TIP3    H141722   1.737   6.467  15.917  0.2033  0.6003  0.2248
 6769TIP3    H241723   1.666   6.339  15.958  0.2605  0.5577  0.1923
 6770TIP3   OH241724   0.375   3.016   3.985 -0.0698  0.0694 -0.0597
 6770TIP3    H141725   0.336   3.101   3.969 -3.7615 -1.4517 -0.1226
 6770TIP3    H241726   0.305   2.953   3.967  1.6708 -2.8803  2.3576
 6771TIP3   OH241727   0.602   6.373   1.586  0.3043 -0.2961 -0.3816
 6771TIP3    H141728   0.609   6.297   1.644 -2.5297 -1.2422 -1.1346
 6771TIP3    H241729   0.621   6.448   1.643 -0.5476 -1.3261  1.3489
 6772TIP3   OH241730   6.680   3.657  15.529 -0.1530  0.5188  0.3347
 6772TIP3    H141731   6.662   3.733  15.473  1.2604  0.1428 -0.7038
 6772TIP3    H241732   6.633   3.585  15.488 -0.8868  0.6746  0.8930
 6773TIP3   OH241733   3.910   1.471   3.029  0.0161 -0.7847  0.4340
 6773TIP3    H141734   3.903   1.483   3.124  0.9651 -0.3224  0.4551
 6773TIP3    H241735   3.871   1.385   3.013  1.6634 -1.7775  1.5097
 6774TIP3   OH241736   5.203   5.852  13.151  0.7317  0.2445  0.2852
 6774TIP3    H141737   5.140   5.821  13.217  0.1244 -1.7693 -1.1592
 6774TIP3    H241738   5.285   5.811  13.175  0.2687 -1.3785 -0.7573
 6775TIP3   OH241739   5.702   4.272  15.945  0.3756 -0.3213 -0.0405
 6775TIP3    H141740   5.687   4.180  15.966 -1.6339 -0.1212 -0.4573
 6775TIP3    H241741   5.615   4.308  15.929  1.1022  1.7097  0.2941
 6776TIP3   OH241742   6.599   2.660   4.784  0.1328  0.7769 -0.3001
 6776TIP3    H141743   6.614   2.568   4.763 -1.3149  0.3472  0.3993
 6776TIP3    H241744   6.512   2.661   4.825  0.7568  2.2471  1.0762
 6777TIP3   OH241745   5.379   1.530   4.244 -0.1153  0.6805  0.1558
 6777TIP3    H141746   5.391   1.490   4.157  0.2912  1.0665  0.0283
 6777TIP3    H241747   5.321   1.604   4.228  1.6425  2.0663 -0.1995
 6778TIP3   OH241748   5.943   6.148  10.401 -0.0190  0.2917 -0.3548
 6778TIP3    H141749   5.996   6.109  10.331  0.0982  2.0364 -1.2932
 6778TIP3    H241750   5.989   6.228  10.424  0.3622 -0.6106  2.3447
 6779TIP3   OH241751   2.133   2.963   5.062 -0.0826 -0.3097  0.1346
 6779TIP3    H141752   2.059   2.903   5.066 -1.7801  1.6392 -0.3381
 6779TIP3    H241753   2.172   2.959   5.150 -1.6361 -0.3572  0.8662
 6780TIP3   OH241754   0.342   5.212   5.092  0.1259  0.5711  0.8608
 6780TIP3    H141755   0.273   5.151   5.067 -0.2821  0.6944  1.6451
 6780TIP3    H241756   0.356   5.267   5.015 -0.6071  0.5024  0.6787
 6781TIP3   OH241757   4.234   5.186   1.491 -0.6824 -0.2072 -0.1410
 6781TIP3    H141758   4.310   5.202   1.434 -0.3959  0.4525  0.4117
 6781TIP3    H241759   4.183   5.266   1.486 -0.6039 -0.1006  0.5931
 6782TIP3   OH241760   3.816   3.875   2.874  0.3456  0.4052 -0.3014
 6782TIP3    H141761   3.763   3.875   2.794 -1.2795  1.0666  0.7284
 6782TIP3    H241762   3.802   3.789   2.913  0.5391  0.3541 -0.3432
 6783TIP3   OH241763   2.932   6.686  16.548  0.4799  0.0047 -0.1070
 6783TIP3    H141764   2.966   6.674  16.637  1.8162 -0.7148 -0.6873
 6783TIP3    H241765   2.852   6.737  16.560  0.2410 -0.6852  1.5695
 6784TIP3   OH241766   5.914   4.684  11.529 -0.5226 -0.3999 -0.2739
 6784TIP3    H141767   5.881   4.703  11.441 -0.4786  2.3807  0.2353
 6784TIP3    H241768   6.010   4.685  11.518 -0.5130  0.2500 -0.1495
 6785TIP3   OH241769   5.528   3.976   1.859 -0.2439  0.5527 -0.6535
 6785TIP3    H141770   5.515   4.043   1.926  1.9284 -0.1500  0.5813
 6785TIP3    H241771   5.571   3.904   1.906  0.6420 -0.2834 -2.6281
 6786TIP3   OH241772   4.083   3.660   3.704 -0.5381 -0.0081 -0.2239
 6786TIP3    H141773   4.049   3.702   3.782 -2.3079 -0.5368 -0.6589
 6786TIP3    H241774   4.048   3.571   3.707 -0.4969 -0.0961 -1.5082
 6787TIP3   OH241775   3.473   4.811  11.702  0.3764  0.0922 -0.0551
 6787TIP3    H141776   3.469   4.840  11.793 -1.0140 -0.9329  0.2320
 6787TIP3    H241777   3.383   4.791  11.679  0.9258 -1.3478 -1.0938
 6788TIP3   OH241778   6.009   4.195  11.993 -0.7098 -0.6331 -0.2143
 6788TIP3    H141779   6.083   4.199  11.933 -0.0697 -0.3061  0.5702
 6788TIP3    H241780   5.982   4.103  11.991  0.1069 -0.8895 -0.0614
 6789TIP3   OH241781   3.188   4.726   1.142  0.5881 -0.2063  0.0973
 6789TIP3    H141782   3.171   4.686   1.056 -2.3559 -0.2697  0.5922
 6789TIP3    H241783   3.127   4.681   1.201  1.0140  1.3290  1.7746
 6790TIP3   OH241784   3.463   2.715   2.492 -0.3875  0.4520 -0.1025
 6790TIP3    H141785   3.488   2.807   2.500 -1.1650  0.5996  0.7135
 6790TIP3    H241786   3.446   2.704   2.398  1.5790  0.6206 -0.5333
 6791TIP3   OH241787   3.794   1.720   3.296 -0.4916 -0.1456 -0.1274
 6791TIP3    H141788   3.808   1.751   3.207 -1.1869  0.2513 -0.1077
 6791TIP3    H241789   3.759   1.631   3.285  0.6724 -0.6035 -0.2071
 6792TIP3   OH241790   2.143   1.000  11.581 -0.0404 -0.3413  0.0845
 6792TIP3    H141791   2.150   1.090  11.549 -2.2712 -0.2642 -0.2767
 6792TIP3    H241792   2.109   1.009  11.670 -0.5414 -0.8306 -0.0528
 6793TIP3   OH241793   1.949   5.037   2.441  0.1167 -0.1462  0.5453
 6793TIP3    H141794   2.027   5.059   2.492 -0.4622  1.2398  0.8727
 6793TIP3    H241795   1.971   5.065   2.352  0.3386 -0.6505  0.4340
 6794TIP3   OH241796   0.087   2.863   3.153 -0.1775  0.3823  0.5838
 6794TIP3    H141797   0.043   2.945   3.131  1.2040  0.4487 -2.5233
 6794TIP3    H241798   0.022   2.795   3.133 -1.7082  0.5688  4.1642
 6795TIP3   OH241799   5.918   3.876   5.184  0.9277  0.0616  0.2029
 6795TIP3    H141800   5.903   3.877   5.279 -0.3186  1.9167  0.0413
 6795TIP3    H241801   5.832   3.863   5.146  1.0706  1.5011 -0.6797
 6796TIP3   OH241802   5.889   3.863   4.842 -0.1417 -0.4791 -0.5847
 6796TIP3    H141803   5.815   3.848   4.782 -0.7811  1.4726 -0.3611
 6796TIP3    H241804   5.850   3.912   4.915  1.5215  1.3896 -0.8891
 6797TIP3   OH241805   2.090   4.321  14.111  0.0723  0.0119  0.4612
 6797TIP3    H141806   2.027   4.364  14.052  1.0897  0.6645 -0.1829
 6797TIP3    H241807   2.036   4.274  14.174 -1.0657 -0.3967 -0.7722
 6798TIP3   OH241808   3.793   6.128  16.400  0.5884  0.0475  0.0499
 6798TIP3    H141809   3.725   6.064  16.420 -0.8760  1.2650 -0.8163
 6798TIP3    H241810   3.810   6.172  16.483  0.6333 -0.5301  0.3546
 6799TIP3   OH241811   0.667   2.508  16.338  0.0238 -0.4575 -0.0606
 6799TIP3    H141812   0.724   2.513  16.261 -0.4620  0.8638 -0.3634
 6799TIP3    H241813   0.589   2.462  16.307 -0.9784  1.7269 -0.9179
 6800TIP3   OH241814   2.020   3.897   5.700 -0.4893  0.1595 -0.3807
 6800TIP3    H141815   2.055   3.980   5.733  3.2177 -0.7034 -1.6687
 6800TIP3    H241816   1.977   3.858   5.776 -0.0275  2.0976  0.9626
 6801TIP3   OH241817   3.267   6.111   4.947  0.4864 -0.1921  0.4424
 6801TIP3    H141818   3.283   6.017   4.948  0.9218 -0.1221  2.1535
 6801TIP3    H241819   3.259   6.136   5.039 -0.9087  1.2447 -0.0156
 6802TIP3   OH241820   1.315   0.872  16.068  0.6710 -0.2070  0.0791
 6802TIP3    H141821   1.248   0.839  16.129  0.0255 -0.6193 -0.8379
 6802TIP3    H241822   1.330   0.962  16.096 -0.2754 -0.1056  0.2935
 6803TIP3   OH241823   4.342   6.083  13.380 -0.8226  0.7225  0.7452
 6803TIP3    H141824   4.396   6.056  13.306 -0.8144 -0.2712  1.0947
 6803TIP3    H241825   4.339   6.006  13.437 -3.0137  0.5575  0.4959
 6804TIP3   OH241826   3.544   5.443  11.448 -0.3403 -0.2037  0.2181
 6804TIP3    H141827   3.526   5.350  11.441 -0.0961 -0.2388  0.0183
 6804TIP3    H241828   3.540   5.475  11.358  0.5858 -0.2181  0.1638
 6805TIP3   OH241829   2.086   6.435   2.466  0.3059  0.0784  0.6591
 6805TIP3    H141830   2.131   6.352   2.455 -2.6122 -1.3724 -1.6783
 6805TIP3    H241831   2.155   6.501   2.463  2.3349 -1.9557 -2.4532
 6806TIP3   OH241832   4.391   0.043   1.552  0.4527 -0.6375  0.7819
 6806TIP3    H141833   4.358   0.088   1.630 -2.0963 -0.1496 -0.4896
 6806TIP3    H241834   4.376  -0.050   1.570  3.4196 -0.9427  2.3614
 6807TIP3   OH241835   0.449   5.367  16.683  0.5521 -0.1228 -0.2097
 6807TIP3    H141836   0.375   5.427  16.671  0.9677  0.2229 -1.1140
 6807TIP3    H241837   0.444   5.341  16.775 -0.0448  0.7547  0.0188
 6808TIP3   OH241838   0.038   4.034   1.814 -0.0010 -0.0436 -0.1694
 6808TIP3    H141839   0.116   4.085   1.795  0.9512 -0.3763  2.4471
 6808TIP3    H241840   0.065   3.973   1.882 -2.1648 -1.2582 -0.3054
 6809TIP3   OH241841   3.261   2.063  15.466  0.1547 -0.0415 -0.4061
 6809TIP3    H141842   3.332   2.126  15.457  0.7355 -0.7412 -0.9187
 6809TIP3    H241843   3.289   1.988  15.414 -0.7595 -0.5144 -0.2471
 6810TIP3   OH241844   4.519   1.129   0.407 -0.3771 -0.1256  0.4672
 6810TIP3    H141845   4.601   1.108   0.452 -0.3886 -0.9801  0.1060
 6810TIP3    H241846   4.544   1.138   0.315 -0.7789 -1.0089  0.2626
 6811TIP3   OH241847   5.553   3.902   5.434  0.0106 -0.2456  0.2101
 6811TIP3    H141848   5.615   3.829   5.438  0.3632 -0.0572 -1.0851
 6811TIP3    H241849   5.584   3.955   5.360 -0.9111  0.5936  0.4011
 6812TIP3   OH241850   0.727   3.823  15.402  0.6987 -0.4173  0.3626
 6812TIP3    H141851   0.774   3.796  15.323  0.0533 -0.8329  0.1197
 6812TIP3    H241852   0.688   3.743  15.436  1.7165 -0.4237  1.6276
 6813TIP3   OH241853   4.981   6.573   1.396 -0.6449 -0.0776 -0.1523
 6813TIP3    H141854   5.021   6.571   1.483 -0.4931  2.2252 -0.1027
 6813TIP3    H241855   5.043   6.525   1.341  1.1772  1.5110  0.3566
 6814TIP3   OH241856   2.604   1.841  15.073 -0.2802 -0.0755  0.0065
 6814TIP3    H141857   2.693   1.865  15.099 -0.6632 -0.0440  1.3958
 6814TIP3    H241858   2.548   1.892  15.132 -1.2168 -0.1136 -0.8331
 6815TIP3   OH241859   0.179   1.988   1.082 -0.0783  0.4322  0.4288
 6815TIP3    H141860   0.094   2.013   1.117  0.6444  2.4211  0.9082
 6815TIP3    H241861   0.182   2.028   0.995  0.0472 -0.3402  0.0711
 6816TIP3   OH241862   2.435   5.565  11.875 -0.1510  0.1827  0.3997
 6816TIP3    H141863   2.435   5.483  11.924 -0.4155  1.2676  2.3138
 6816TIP3    H241864   2.343   5.593  11.874 -0.2888 -0.1592 -1.4259
 6817TIP3   OH241865   6.208   5.864  11.357  0.1221 -0.1261 -0.8181
 6817TIP3    H141866   6.200   5.940  11.299 -0.8009  0.8502  0.4982
 6817TIP3    H241867   6.301   5.856  11.374  0.2014  1.0562 -0.5838
 6818TIP3   OH241868   1.475   3.440  12.753 -0.2212  0.0824  0.1339
 6818TIP3    H141869   1.477   3.503  12.681 -1.9605 -0.3196 -0.3219
 6818TIP3    H241870   1.541   3.471  12.814 -1.1738  2.4980  0.0411
 6819TIP3   OH241871   2.963   1.114   5.321 -0.2507  0.2727  0.9813
 6819TIP3    H141872   2.942   1.023   5.301  0.1461 -0.0502  1.9441
 6819TIP3    H241873   3.056   1.122   5.300 -0.0303  0.1533  1.8553
 6820TIP3   OH241874   6.595   3.306   3.953  0.1219 -0.0247  0.0300
 6820TIP3    H141875   6.550   3.390   3.943 -0.7464 -0.4567  0.2165
 6820TIP3    H241876   6.625   3.284   3.864  0.8138  0.7198  0.0698
 6821TIP3   OH241877   5.026   2.340  11.696 -0.4060 -0.1455 -0.2894
 6821TIP3    H141878   4.971   2.355  11.619  1.0396  1.8436 -1.0073
 6821TIP3    H241879   5.112   2.373  11.672  0.5228 -0.9846  1.6291
 6822TIP3   OH241880   1.230   4.803  12.962  0.2073 -0.3301  0.4042
 6822TIP3    H141881   1.177   4.768  13.034  0.6221  0.3638  1.0542
 6822TIP3    H241882   1.315   4.821  13.001  0.4397  0.0529 -0.2612
 6823TIP3   OH241883   4.131   5.424   1.345 -0.1958 -0.1318 -0.6097
 6823TIP3    H141884   4.040   5.408   1.370 -0.2120 -1.0293 -1.2301
 6823TIP3    H241885   4.127   5.503   1.291 -0.3958  0.7321  0.6189
 6824TIP3   OH241886   6.599   1.092  12.339 -0.1805 -0.2792  0.3786
 6824TIP3    H141887   6.514   1.060  12.310 -0.2849  1.0947 -0.8989
 6824TIP3    H241888   6.653   1.013  12.345 -1.5451 -1.1934  1.3634
 6825TIP3   OH241889   6.626   1.596   3.497 -0.2034  0.0087  0.6274
 6825TIP3    H141890   6.707   1.567   3.454  0.9818  1.0460  2.0721
 6825TIP3    H241891   6.560   1.532   3.470  0.9540 -0.5389 -1.0507
 6826TIP3   OH241892   6.846   6.838   4.283 -0.0251 -0.3684  0.3674
 6826TIP3    H141893   6.766   6.800   4.321 -0.0114  0.1652  0.9343
 6826TIP3    H241894   6.822   6.855   4.191 -0.9848  0.9609  0.8383
 6827TIP3   OH241895   6.295   0.634   3.173 -0.0865 -0.5471  0.0799
 6827TIP3    H141896   6.271   0.544   3.190  3.9668 -1.6968  0.8618
 6827TIP3    H241897   6.327   0.667   3.257 -0.9438  1.4632 -0.3192
 6828TIP3   OH241898   1.634   6.260  12.953  0.1524  0.0807  0.2380
 6828TIP3    H141899   1.669   6.174  12.975 -1.0874  0.0350  2.2939
 6828TIP3    H241900   1.561   6.242  12.894 -0.1958 -0.3199  0.7780
 6829TIP3   OH241901   5.315   0.031  13.087 -0.1604 -0.5504  0.1620
 6829TIP3    H141902   5.373  -0.043  13.105  1.3841  0.0599 -1.8993
 6829TIP3    H241903   5.368   0.109  13.103 -0.9572  0.0624 -0.0793
 6830TIP3   OH241904   6.512   0.885   2.462  0.2074 -0.1256 -0.2146
 6830TIP3    H141905   6.481   0.916   2.377 -0.7281 -0.3437  0.0290
 6830TIP3    H241906   6.556   0.803   2.443  2.7695  1.2889 -0.8779
 6831TIP3   OH241907   2.817   3.900  15.112 -0.0449 -0.3796 -0.1253
 6831TIP3    H141908   2.897   3.865  15.073 -0.4635 -1.3087 -0.1700
 6831TIP3    H241909   2.841   3.921  15.202  0.7207  1.0550 -0.6365
 6832TIP3   OH241910   0.216   2.805  13.300  0.0042  0.3104  0.2330
 6832TIP3    H141911   0.215   2.757  13.217 -0.8571 -1.8582  1.4030
 6832TIP3    H241912   0.192   2.740  13.366  1.3693  1.7727  2.3181
 6833TIP3   OH241913   1.856   4.948   1.130  0.0305  0.0643  0.3668
 6833TIP3    H141914   1.933   4.917   1.083  0.2260  0.3136  0.5192
 6833TIP3    H241915   1.891   5.007   1.197 -0.1477 -1.1691  1.5815
 6834TIP3   OH241916   5.117   2.112  16.459 -0.4592 -0.0814 -0.5397
 6834TIP3    H141917   5.123   2.207  16.471 -0.0903 -0.0622 -0.8652
 6834TIP3    H241918   5.156   2.075  16.539  1.9501  0.0448 -1.5752
 6835TIP3   OH241919   0.914   0.068  11.415  0.2112 -0.2823 -0.3048
 6835TIP3    H141920   0.924   0.004  11.344  0.0530  0.2235 -0.7883
 6835TIP3    H241921   0.962   0.030  11.489 -0.5015 -1.3141 -0.3534
 6836TIP3   OH241922   6.163   5.699   2.262  0.1910 -0.0974 -0.4977
 6836TIP3    H141923   6.124   5.659   2.185 -1.4562  1.1507 -0.3705
 6836TIP3    H241924   6.243   5.648   2.278  0.2788 -0.7282 -2.6644
 6837TIP3   OH241925   0.020   3.134   1.464  1.1124 -0.5064 -0.0487
 6837TIP3    H141926   0.043   3.122   1.556  0.6762  0.3246  0.1791
 6837TIP3    H241927   0.096   3.103   1.416  2.1336  0.7967  0.6508
 6838TIP3   OH241928   1.752   3.582  15.332  0.1395 -0.5449 -0.3189
 6838TIP3    H141929   1.828   3.544  15.377  2.7774  0.3510 -3.5984
 6838TIP3    H241930   1.717   3.509  15.280 -1.1841 -0.8928  1.0050
 6839TIP3   OH241931   2.869   1.903  12.094 -0.1297 -0.0463  0.3439
 6839TIP3    H141932   2.895   1.989  12.061  1.1555 -0.8584 -0.8666
 6839TIP3    H241933   2.948   1.850  12.087 -1.1436 -1.5825  0.2062
 6840TIP3   OH241934   1.874   6.876   0.229 -0.4781 -0.4316  0.0093
 6840TIP3    H141935   1.816   6.949   0.252 -0.3146 -0.3011  0.0155
 6840TIP3    H241936   1.928   6.910   0.157 -0.7800 -0.7349 -0.3670
 6841TIP3   OH241937   6.100   5.013  12.272  0.7793  0.0917  0.2309
 6841TIP3    H141938   6.015   4.994  12.312  1.9025 -0.4542  2.4780
 6841TIP3    H241939   6.088   4.989  12.180 -1.3713 -0.3691  0.5714
 6842TIP3   OH241940   0.858   1.734   4.666  0.5652 -0.2454  0.4631
 6842TIP3    H141941   0.902   1.813   4.634  2.7265 -1.4128  0.3138
 6842TIP3    H241942   0.916   1.662   4.638 -0.9495 -1.8198  1.2127
 6843TIP3   OH241943   2.075   6.809  16.453  0.1853 -0.3872 -0.0932
 6843TIP3    H141944   2.015   6.869  16.499 -1.7742 -1.5884 -0.9567
 6843TIP3    H241945   2.091   6.739  16.517  1.1380  0.1940  0.3259
 6844TIP3   OH241946   1.630   4.763  11.230  0.5434 -0.2904  0.6342
 6844TIP3    H141947   1.700   4.829  11.234  0.1889  0.1090  0.3059
 6844TIP3    H241948   1.605   4.750  11.322 -0.2019  0.9243  0.6275
 6845TIP3   OH241949   1.500   5.620  13.320  0.4810 -0.0489  0.0202
 6845TIP3    H141950   1.543   5.703  13.300 -0.6600  0.6006  0.1740
 6845TIP3    H241951   1.409   5.643  13.337 -0.0844 -1.4457 -0.8558
 6846TIP3   OH241952   4.339   5.466  13.408 -0.1589 -0.1940  0.1912
 6846TIP3    H141953   4.296   5.391  13.448 -0.6491 -0.2661 -0.4590
 6846TIP3    H241954   4.365   5.435  13.321  0.1376  0.2190  0.1305
 6847TIP3   OH241955   5.142   1.788   0.244 -0.7949  0.1995 -0.0390
 6847TIP3    H141956   5.127   1.784   0.150 -0.5714  0.0308 -0.0693
 6847TIP3    H241957   5.111   1.704   0.277 -1.4721  0.5104  0.1292
 6848TIP3   OH241958   4.207   2.950   0.930 -0.0963 -0.8135  0.2180
 6848TIP3    H141959   4.301   2.959   0.918 -0.0620  4.2430  1.7928
 6848TIP3    H241960   4.169   2.982   0.849 -0.2940  1.1095  1.0189
 6849TIP3   OH241961   5.730   5.510   5.393  0.0421 -0.3554 -0.6074
 6849TIP3    H141962   5.690   5.427   5.420  1.0765 -0.7393 -0.1988
 6849TIP3    H241963   5.695   5.574   5.454  0.4375 -0.7841  0.0875
 6850TIP3   OH241964   3.273   6.648   9.983 -0.2945  0.4883 -0.2045
 6850TIP3    H141965   3.355   6.673   9.941  0.7624 -0.0920  1.4077
 6850TIP3    H241966   3.229   6.731  10.002 -0.6002  0.7668 -2.0120
 6851TIP3   OH241967   2.296   3.285  14.042 -0.1119 -0.2286  0.6491
 6851TIP3    H141968   2.228   3.352  14.045  2.1194  2.1636  2.0686
 6851TIP3    H241969   2.352   3.304  14.117  0.6518 -3.8133  1.1677
 6852TIP3   OH241970   4.519   1.924   4.952 -0.0866  0.9587  0.2315
 6852TIP3    H141971   4.431   1.912   4.988 -0.0054  0.2358  0.1977
 6852TIP3    H241972   4.506   1.985   4.879 -0.7580 -0.0795 -0.5399
 6853TIP3   OH241973   4.992   2.310  14.100  0.8494  0.0578 -0.3343
 6853TIP3    H141974   4.926   2.303  14.169  0.4456  1.2268 -0.5862
 6853TIP3    H241975   4.961   2.381  14.044  0.6872 -1.4259 -2.2497
 6854TIP3   OH241976   0.148   6.170  15.304  0.2417  0.6786 -0.7885
 6854TIP3    H141977   0.099   6.138  15.228  0.0604  1.3578 -0.9575
 6854TIP3    H241978   0.082   6.189  15.370  0.0035  3.8276 -1.8083
 6855TIP3   OH241979   1.171   2.606  13.035 -0.6705 -0.7156  0.6143
 6855TIP3    H141980   1.217   2.531  13.072  0.3269  0.1912  1.2906
 6855TIP3    H241981   1.139   2.655  13.111 -1.8003 -0.7435  0.1735
 6856TIP3   OH241982   2.019   2.301  16.386  0.2607  0.0222  0.3443
 6856TIP3    H141983   1.988   2.248  16.312  1.1452  1.1791 -0.9065
 6856TIP3    H241984   2.081   2.245  16.432  0.1242 -0.5238 -0.1296
 6857TIP3   OH241985   5.535   0.155   1.767 -0.0950  0.0287  0.3779
 6857TIP3    H141986   5.595   0.148   1.693  0.1119  0.4150  0.5025
 6857TIP3    H241987   5.517   0.249   1.775 -0.8431 -0.1010  0.2452
 6858TIP3   OH241988   0.997   0.277   2.671 -0.1281 -0.3370 -0.0803
 6858TIP3    H141989   0.958   0.289   2.584 -0.7739 -1.6948 -0.0132
 6858TIP3    H241990   0.986   0.183   2.689 -0.2521 -0.0299  1.5813
 6859TIP3   OH241991   3.223   5.797   9.993  0.3070 -0.7151  0.2173
 6859TIP3    H141992   3.255   5.866  10.051 -0.3864  0.0073 -0.2470
 6859TIP3    H241993   3.205   5.842   9.910 -0.1115 -1.4627 -0.1036
 6860TIP3   OH241994   4.656   2.774  12.320  0.1193 -0.4059 -0.0389
 6860TIP3    H141995   4.561   2.766  12.330  0.1212  0.9051  1.3092
 6860TIP3    H241996   4.667   2.840  12.251  0.1133 -2.3537 -2.0352
 6861TIP3   OH241997   5.157   4.636  13.437  0.4228  0.0039 -0.0002
 6861TIP3    H141998   5.107   4.690  13.376 -0.5356  0.4234  1.1140
 6861TIP3    H241999   5.248   4.652  13.414  0.1133  1.1819 -0.4697
 6862TIP3   OH242000   4.492   6.386  15.669  0.3917 -0.5200 -1.3237
 6862TIP3    H142001   4.408   6.381  15.715  0.3115  0.7474 -1.2986
 6862TIP3    H242002   4.496   6.306  15.616  0.0798 -1.5742  0.1771
 6863TIP3   OH242003   1.138   5.148  12.185  0.1170 -0.3943 -0.0849
 6863TIP3    H142004   1.046   5.128  12.204 -0.0956 -0.1452 -0.7986
 6863TIP3    H242005   1.154   5.106  12.101  0.0752  1.1645 -0.9108
 6864TIP3   OH242006   3.848   2.336   5.574 -0.0858 -0.3091  0.1835
 6864TIP3    H142007   3.859   2.427   5.601 -1.4071 -0.0849  0.0229
 6864TIP3    H242008   3.848   2.339   5.478  0.4221 -0.5570  0.1719
 6865TIP3   OH242009   5.730   3.043  12.361  0.2345 -0.1310  0.4951
 6865TIP3    H142010   5.804   3.042  12.421  1.3571 -0.0554 -0.8286
 6865TIP3    H242011   5.725   2.953  12.328  0.5781  0.1524 -0.3726
 6866TIP3   OH242012   3.726   5.831  12.492 -0.4091 -0.1548  0.2700
 6866TIP3    H142013   3.680   5.811  12.574 -0.3521  2.2198  0.9398
 6866TIP3    H242014   3.819   5.823  12.514 -0.3766  0.9705  0.6246
 6867TIP3   OH242015   1.970   4.815  14.002  0.3845  0.5563  0.8432
 6867TIP3    H142016   1.886   4.787  13.966  1.5571 -0.1509 -1.6012
 6867TIP3    H242017   2.023   4.836  13.925  2.9212 -0.4014  2.1973
 6868TIP3   OH242018   5.702   0.069  13.329 -0.1014 -0.2173 -0.2340
 6868TIP3    H142019   5.726   0.157  13.300 -4.3554  0.7328 -1.6763
 6868TIP3    H242020   5.766   0.011  13.288  3.6882  2.1213  1.8842
 6869TIP3   OH242021   2.209   6.006  14.211 -0.6168  0.1320  0.0399
 6869TIP3    H142022   2.214   5.999  14.116 -1.3847 -0.5029  0.0347
 6869TIP3    H242023   2.185   5.918  14.240 -0.1249  0.2554  0.8424
 6870TIP3   OH242024   5.855   3.976   0.215 -0.1062  0.0484 -0.2483
 6870TIP3    H142025   5.929   3.940   0.264 -0.5245 -1.9396 -0.9673
 6870TIP3    H242026   5.882   4.065   0.193  0.3535  0.8098  2.9601
 6871TIP3   OH242027   0.083   1.754   9.763  0.2302 -0.3767 -0.5376
 6871TIP3    H142028   0.093   1.670   9.718 -0.8612 -1.2559  0.7576
 6871TIP3    H242029   0.122   1.739   9.849  1.6641  1.0464 -0.9008
 6872TIP3   OH242030   6.847   5.342   1.771 -0.3143 -0.4154 -0.4524
 6872TIP3    H142031   6.925   5.322   1.821 -1.0737 -1.4163  0.3783
 6872TIP3    H242032   6.878   5.394   1.696  0.9173  0.6102  0.7270
 6873TIP3   OH242033   6.384   5.646  12.396  0.1751 -0.5932 -0.5562
 6873TIP3    H142034   6.464   5.698  12.402 -0.1515 -0.2644  1.5820
 6873TIP3    H242035   6.313   5.711  12.395 -0.1431 -0.9265 -0.0902
 6874TIP3   OH242036   4.940   6.513   5.038 -0.0001  0.0423  0.2068
 6874TIP3    H142037   4.972   6.596   5.073  0.7872 -0.5008  0.7900
 6874TIP3    H242038   4.891   6.538   4.960 -1.6524  1.2567  1.5741
 6875TIP3   OH242039   4.141   0.778  13.346  1.5852 -0.0770  0.1198
 6875TIP3    H142040   4.229   0.809  13.323  1.1908  1.5674  0.6673
 6875TIP3    H242041   4.128   0.808  13.436 -0.3884  1.7427 -0.6930
 6876TIP3   OH242042   2.036   5.640  11.501 -0.2057  0.1639  0.1971
 6876TIP3    H142043   2.088   5.719  11.490  0.3020 -0.0028  1.2993
 6876TIP3    H242044   1.990   5.653  11.584 -0.0304 -0.7452  0.4468
 6877TIP3   OH242045   0.785   2.567  16.597 -0.2755 -0.3610 -0.2502
 6877TIP3    H142046   0.774   2.548  16.504  1.1798 -1.1624 -0.2915
 6877TIP3    H242047   0.812   2.658  16.600  0.0721 -0.4463 -0.6567
 6878TIP3   OH242048   3.684   6.556   4.764 -0.2453  0.2975  0.2269
 6878TIP3    H142049   3.728   6.583   4.845  1.7826 -0.6750 -0.4794
 6878TIP3    H242050   3.754   6.552   4.699 -1.2722 -1.8661 -0.8593
 6879TIP3   OH242051   4.219   2.748  10.867  0.0781 -0.2070 -0.0941
 6879TIP3    H142052   4.265   2.724  10.947  1.7200  0.6754 -0.7323
 6879TIP3    H242053   4.236   2.674  10.808  0.5924  0.0552 -0.2825
 6880TIP3   OH242054   5.991   0.724   2.198 -0.1377 -0.3113 -0.2553
 6880TIP3    H142055   5.958   0.693   2.283 -1.2827 -0.6380 -0.8084
 6880TIP3    H242056   5.916   0.720   2.140 -0.0739  2.4906 -0.6476
 6881TIP3   OH242057   1.606   0.269  13.866 -0.0197  0.0675  0.3025
 6881TIP3    H142058   1.634   0.357  13.888 -0.6442 -0.0954  1.8766
 6881TIP3    H242059   1.658   0.212  13.922 -1.3791 -0.3934  1.1552
 6882TIP3   OH242060   6.512   1.929   5.636  0.3313 -0.2077  0.4651
 6882TIP3    H142061   6.512   2.023   5.653 -0.5805 -0.0091 -0.5998
 6882TIP3    H242062   6.605   1.906   5.630  0.7165  0.0612  3.4982
 6883TIP3   OH242063   2.563   6.893   2.906  0.3138 -0.3043  0.6965
 6883TIP3    H142064   2.519   6.903   2.821  1.6902 -0.5646 -0.0866
 6883TIP3    H242065   2.493   6.872   2.967 -0.5314 -1.6987 -0.6812
 6884TIP3   OH242066   5.072   4.348   3.414  0.1664  0.0867 -0.1790
 6884TIP3    H142067   5.042   4.306   3.333 -1.9076 -4.1564  2.3759
 6884TIP3    H242068   5.165   4.327   3.419 -0.2469 -2.0217 -0.3439
 6885TIP3   OH242069   5.325   4.749  10.293 -0.0894  0.5191  0.2203
 6885TIP3    H142070   5.380   4.671  10.305  0.7975  0.3409 -3.6294
 6885TIP3    H242071   5.385   4.815  10.257 -1.4768  1.9175  0.3853
 6886TIP3   OH242072   1.872   2.348   3.830  0.5445  0.3140 -0.1613
 6886TIP3    H142073   1.854   2.387   3.916 -0.2986  0.6130 -0.4660
 6886TIP3    H242074   1.967   2.353   3.821  0.6833 -0.0963  0.9294
 6887TIP3   OH242075   1.007   3.389  15.430 -0.2418 -0.0765  0.0416
 6887TIP3    H142076   1.080   3.402  15.369  0.0145 -0.9756  0.1496
 6887TIP3    H242077   1.039   3.427  15.513 -0.3346  0.5387 -0.1941
 6888TIP3   OH242078   1.400   6.397  10.540 -0.2849  0.6106 -0.4279
 6888TIP3    H142079   1.477   6.454  10.546  0.1090  0.3263 -2.1636
 6888TIP3    H242080   1.430   6.322  10.490 -1.3076 -0.2487  0.2127
 6889TIP3   OH242081   3.284   5.412   1.133  0.3829  0.4005  0.7348
 6889TIP3    H142082   3.349   5.379   1.071 -0.4916  0.3852 -0.2079
 6889TIP3    H242083   3.333   5.469   1.191  1.5880 -1.1209  1.2640
 6890TIP3   OH242084   5.955   4.746  16.072 -0.3793  0.2701 -0.0031
 6890TIP3    H142085   5.917   4.658  16.075 -0.3702  0.2551 -0.3127
 6890TIP3    H242086   5.944   4.774  15.981  0.7674  0.0874 -0.2021
 6891TIP3   OH242087   0.162   5.220   9.790  0.2906 -0.0911  0.0402
 6891TIP3    H142088   0.188   5.205   9.699  0.9382  0.4756  0.1201
 6891TIP3    H242089   0.203   5.304   9.812  0.7404 -0.5815  1.0892
 6892TIP3   OH242090   2.019   5.966   1.262  0.4123 -0.0106 -0.6638
 6892TIP3    H142091   1.954   5.985   1.331  0.6520  1.9971 -0.9313
 6892TIP3    H242092   1.974   5.988   1.181  1.2364  0.9649 -0.8816
 6893TIP3   OH242093   3.557   1.477  11.063  0.2256  0.5484 -0.2152
 6893TIP3    H142094   3.564   1.388  11.028  0.3603  0.6874 -0.5413
 6893TIP3    H242095   3.620   1.528  11.012  0.3447  0.7748  0.1558
 6894TIP3   OH242096   5.313   0.996  13.895 -0.4430 -0.6361 -0.2601
 6894TIP3    H142097   5.400   1.022  13.864 -1.0859  0.4866 -1.1920
 6894TIP3    H242098   5.325   0.980  13.989  0.5515  0.5404 -0.1613
 6895TIP3   OH242099   5.727   1.907  13.985 -0.2433  0.3493  0.0968
 6895TIP3    H142100   5.756   1.829  13.936  1.2578  1.3260 -0.6629
 6895TIP3    H242101   5.693   1.872  14.067 -1.2742 -1.2265 -0.9319
 6896TIP3   OH242102   1.562   2.605  14.304 -0.5135 -0.0871 -0.0708
 6896TIP3    H142103   1.475   2.583  14.272  0.2174 -0.8351 -1.6092
 6896TIP3    H242104   1.619   2.595  14.228  1.0590 -0.4764  1.1137
 6897TIP3   OH242105   2.452   0.196   5.237 -0.5709 -0.6552 -0.6256
 6897TIP3    H142106   2.427   0.108   5.267 -0.4027 -0.8083 -0.9313
 6897TIP3    H242107   2.469   0.245   5.318  2.3696 -1.7709 -0.4276
 6898TIP3   OH242108   0.265   1.523   3.601  0.6905 -0.0297  0.1024
 6898TIP3    H142109   0.239   1.470   3.676  0.2272  1.2925  0.9204
 6898TIP3    H242110   0.350   1.560   3.626 -0.4021  2.1048  0.9653
 6899TIP3   OH242111   1.446   2.874  13.752 -0.1751 -0.6521  0.2258
 6899TIP3    H142112   1.364   2.874  13.702 -0.6071  1.7002  0.8135
 6899TIP3    H242113   1.419   2.864  13.843  0.0558  0.9310  0.5055
 6900TIP3   OH242114   3.068   3.213  13.645  0.3326  0.4642  0.0735
 6900TIP3    H142115   3.117   3.228  13.565 -0.6438 -0.6639 -0.7714
 6900TIP3    H242116   2.976   3.217  13.618 -0.0174 -1.5340  0.7865
 6901TIP3   OH242117   1.205   0.021   2.963  1.1944  0.3679 -0.2662
 6901TIP3    H142118   1.129  -0.003   2.911  1.2675  0.5364 -0.4547
 6901TIP3    H242119   1.280  -0.013   2.914  1.1454 -1.7594  1.0099
 6902TIP3   OH242120   6.594   5.253   0.915 -0.3460 -0.1652  0.5104
 6902TIP3    H142121   6.656   5.206   0.860 -0.9264 -0.0473 -0.2729
 6902TIP3    H242122   6.648   5.301   0.978  0.3308 -0.4080  0.1237
 6903TIP3   OH242123   2.092   1.039   4.909  0.6329 -0.1787 -0.0439
 6903TIP3    H142124   2.095   0.965   4.969 -0.4914  0.3370  0.6751
 6903TIP3    H242125   2.179   1.078   4.915  0.6899 -0.4209  0.8745
 6904TIP3   OH242126   3.606   1.725   3.521 -0.6428  0.6921 -0.4197
 6904TIP3    H142127   3.683   1.751   3.470  0.7258 -2.1691  0.0022
 6904TIP3    H242128   3.532   1.740   3.461  0.4857  1.2419 -1.7381
 6905TIP3   OH242129   1.329   3.696  13.320  0.3809 -0.1835 -0.0754
 6905TIP3    H142130   1.335   3.741  13.405  2.3185 -0.1507 -0.1696
 6905TIP3    H242131   1.343   3.604  13.341 -1.3317 -0.4814 -0.1397
 6906TIP3   OH242132   2.549   2.978   3.660  0.3454  0.2039  0.0223
 6906TIP3    H142133   2.606   2.950   3.588  2.1627 -0.9035  1.8158
 6906TIP3    H242134   2.520   2.897   3.701 -0.9809  0.8213  0.3493
 6907TIP3   OH242135   6.132   5.796  13.314  0.2628 -0.3247  0.3261
 6907TIP3    H142136   6.075   5.871  13.331  1.2172  0.7139 -0.8720
 6907TIP3    H242137   6.220   5.827  13.336  0.7388 -0.8988 -0.7078
 6908TIP3   OH242138   5.087   5.523  11.373  0.1648  0.5881 -0.2277
 6908TIP3    H142139   5.096   5.509  11.467  0.2307 -0.9064 -0.4381
 6908TIP3    H242140   5.046   5.444  11.340  1.7381  0.3168 -1.7093
 6909TIP3   OH242141   6.268   5.759  11.088 -0.4717 -0.0507 -0.1106
 6909TIP3    H142142   6.338   5.806  11.042  0.9016 -2.5330 -0.7388
 6909TIP3    H242143   6.221   5.827  11.136  1.3855  1.9336 -0.9314
 6910TIP3   OH242144   6.519   6.583  11.812  0.3506 -0.2209 -0.6584
 6910TIP3    H142145   6.436   6.557  11.772  0.4435 -1.2065 -0.2335
 6910TIP3    H242146   6.542   6.510  11.870  2.0324 -0.4427 -1.5409
 6911TIP3   OH242147   3.226   5.670   2.054 -0.1793 -0.1507 -0.5567
 6911TIP3    H142148   3.169   5.734   2.096  1.1388  0.6020  0.1423
 6911TIP3    H242149   3.300   5.721   2.021  0.7336 -1.2662 -0.2930
 6912TIP3   OH242150   2.234   0.459   1.568 -0.2052 -0.2642  0.0291
 6912TIP3    H142151   2.154   0.432   1.523 -0.4483 -0.9421  0.8449
 6912TIP3    H242152   2.294   0.384   1.556 -0.4667 -0.6894  1.2933
 6913TIP3   OH242153   5.763   4.413  10.120  0.4136 -0.7539  0.1929
 6913TIP3    H142154   5.790   4.491  10.168  0.0523 -0.9698  0.7586
 6913TIP3    H242155   5.820   4.344  10.154  2.2816 -0.3446 -1.8809
 6914TIP3   OH242156   6.035   3.259   5.425  0.3316 -0.4462 -0.8694
 6914TIP3    H142157   6.096   3.186   5.440  0.1722 -0.3998  0.0757
 6914TIP3    H242158   5.954   3.216   5.397  0.3761 -0.6040 -0.7598
 6915TIP3   OH242159   4.703   0.780   0.613  0.3728 -0.5955  0.1730
 6915TIP3    H142160   4.718   0.770   0.707  1.3743 -0.7450  0.0137
 6915TIP3    H242161   4.610   0.802   0.605  0.0489 -1.5407  1.1250
 6916TIP3   OH242162   5.637   4.565  10.463 -1.0748 -0.3227  0.5079
 6916TIP3    H142163   5.605   4.533  10.547 -1.1627 -1.5381  0.0380
 6916TIP3    H242164   5.570   4.537  10.400  0.4731 -2.2260 -0.3859
 6917TIP3   OH242165   2.553   0.540  11.447 -0.6540 -0.1448  0.6999
 6917TIP3    H142166   2.533   0.634  11.456  0.2901 -0.0249  1.8172
 6917TIP3    H242167   2.550   0.524  11.353 -1.3948  0.8795  0.5294
 6918TIP3   OH242168   5.407   3.886  13.225  0.0129  0.2322  0.7196
 6918TIP3    H142169   5.399   3.857  13.316 -0.7329  0.1273  0.6323
 6918TIP3    H242170   5.320   3.920  13.204 -0.6418 -2.0637 -0.7359
 6919TIP3   OH242171   1.053   5.347  13.570  0.4779  0.4706 -0.2875
 6919TIP3    H142172   1.066   5.253  13.573 -1.9189  0.0987 -0.0816
 6919TIP3    H242173   1.141   5.384  13.581  1.4335 -1.7102 -0.2409
 6920TIP3   OH242174   4.140   0.029  15.964 -0.0182  0.0111  0.7442
 6920TIP3    H142175   4.121  -0.060  15.996  1.2729 -1.1512 -1.4879
 6920TIP3    H242176   4.066   0.081  15.995 -3.4112 -2.8103 -1.6767
 6921TIP3   OH242177   2.667   4.142  14.624  0.9204 -0.2593 -0.1460
 6921TIP3    H142178   2.645   4.073  14.562  2.4675  0.5086 -1.6519
 6921TIP3    H242179   2.698   4.096  14.701 -0.4984 -1.2383 -0.1221
 6922TIP3   OH242180   3.615   4.738  11.008 -0.3430  0.5885  0.1411
 6922TIP3    H142181   3.606   4.761  11.100 -1.5739  0.4503  0.0599
 6922TIP3    H242182   3.526   4.719  10.978  0.1094  0.0484 -0.9268
 6923TIP3   OH242183   1.366   2.774   3.059  0.4349 -0.4575 -0.2288
 6923TIP3    H142184   1.455   2.802   3.080  0.8428 -1.1080 -1.0326
 6923TIP3    H242185   1.354   2.694   3.110  0.7407 -1.0020 -0.9931
 6924TIP3   OH242186   4.489   4.412   0.352  0.0099 -0.0791 -0.1572
 6924TIP3    H142187   4.525   4.336   0.308  1.6802  0.1967  0.6703
 6924TIP3    H242188   4.516   4.403   0.444 -0.1708  1.2511  0.0556
 6925TIP3   OH242189   3.276   3.173   2.459  0.4382 -0.2414 -0.1467
 6925TIP3    H142190   3.224   3.128   2.393 -1.1774 -0.7956  1.4011
 6925TIP3    H242191   3.311   3.102   2.513  0.1565  0.2348  0.6830
 6926TIP3   OH242192   0.613   6.226   3.230 -0.6097  0.1549 -0.7527
 6926TIP3    H142193   0.704   6.249   3.210 -0.6791  1.4098  0.2694
 6926TIP3    H242194   0.608   6.132   3.210  1.5119 -0.4585  1.1191
 6927TIP3   OH242195   1.622   3.345  16.422 -0.2037 -0.1764 -0.1204
 6927TIP3    H142196   1.609   3.425  16.474  0.1115 -1.0103  1.3053
 6927TIP3    H242197   1.544   3.340  16.367 -1.0674  0.2103  1.0244
 6928TIP3   OH242198   4.083   6.775  11.602 -0.2857 -0.5733  0.2618
 6928TIP3    H142199   4.033   6.708  11.556 -1.2727  0.2990  0.0341
 6928TIP3    H242200   4.172   6.767  11.568 -0.7315 -0.7612 -0.8893
 6929TIP3   OH242201   4.765   3.649  11.717 -0.2428  0.2021  0.1213
 6929TIP3    H142202   4.673   3.623  11.726 -1.0008  1.9151 -1.9965
 6929TIP3    H242203   4.766   3.712  11.646  2.9195 -1.3696 -1.4376
 6930TIP3   OH242204   3.477   5.189  14.451  0.2163 -0.2659 -0.2043
 6930TIP3    H142205   3.449   5.097  14.447  0.0751 -0.1975 -1.4381
 6930TIP3    H242206   3.396   5.237  14.470  0.1901 -0.3640 -0.0693
 6931TIP3   OH242207   3.672   0.696   4.606  0.2722  0.0667  0.1611
 6931TIP3    H142208   3.656   0.603   4.622  1.4238 -0.2348 -0.3559
 6931TIP3    H242209   3.760   0.712   4.640 -0.0840  1.0889  0.6558
 6932TIP3   OH242210   2.441   3.117   3.094 -0.0728  0.1692  0.0962
 6932TIP3    H142211   2.480   3.199   3.123  0.9506 -0.2278 -0.1232
 6932TIP3    H242212   2.381   3.143   3.023  0.9807  0.6352 -0.6545
 6933TIP3   OH242213   5.040   2.277  12.549 -0.8677 -0.2531 -0.2790
 6933TIP3    H142214   5.016   2.234  12.467 -0.5571 -0.4010 -0.2929
 6933TIP3    H242215   4.957   2.292  12.594 -0.9729 -0.9917 -0.2125
 6934TIP3   OH242216   0.116   3.032   2.855  0.1211  0.2885 -0.3213
 6934TIP3    H142217   0.186   3.044   2.790  1.8590  0.9034  1.5799
 6934TIP3    H242218   0.161   2.999   2.933 -1.9165 -0.5077  0.5728
 6935TIP3   OH242219   1.999   5.202   4.641 -0.6121 -0.0775 -0.1739
 6935TIP3    H142220   2.046   5.129   4.680 -0.7314 -0.4005 -0.6223
 6935TIP3    H242221   1.931   5.224   4.705 -0.9072 -0.7037 -0.2620
 6936TIP3   OH242222   5.939   0.961  11.243 -0.0199 -0.2375 -0.2257
 6936TIP3    H142223   5.854   0.946  11.282 -0.7569  1.7323 -0.9066
 6936TIP3    H242224   5.922   1.024  11.173  2.1325  1.0181  0.2807
 6937TIP3   OH242225   6.143   2.348  15.466  0.2289  0.5462  0.3284
 6937TIP3    H142226   6.237   2.335  15.454  0.2402  0.7101  0.2420
 6937TIP3    H242227   6.105   2.328  15.380  0.1413  0.0815  0.4669
 6938TIP3   OH242228   2.567   3.282   2.097  0.0802 -0.7888  0.3468
 6938TIP3    H142229   2.547   3.268   2.190  1.4997  0.7807  0.9436
 6938TIP3    H242230   2.659   3.307   2.096  0.1053 -0.8477 -1.5172
 6939TIP3   OH242231   4.999   2.529   3.475 -0.1836 -0.0791 -0.1777
 6939TIP3    H142232   5.004   2.442   3.513 -1.8471 -0.3654 -0.4965
 6939TIP3    H242233   5.025   2.517   3.384 -1.3994 -0.4846 -0.4963
 6940TIP3   OH242234   0.161   3.233  12.193 -0.0636 -0.6298 -0.4234
 6940TIP3    H142235   0.197   3.322  12.194 -1.6356  0.0238  0.0099
 6940TIP3    H242236   0.089   3.235  12.255  1.4538 -2.9284  1.5868
 6941TIP3   OH242237   1.575   3.217   5.205 -0.6467 -0.4849  0.4366
 6941TIP3    H142238   1.537   3.261   5.129  0.0846  3.4620  2.1594
 6941TIP3    H242239   1.500   3.198   5.261 -0.8005  0.3907  0.5338
 6942TIP3   OH242240   4.492   2.290   2.303 -0.2186  0.2175 -0.1380
 6942TIP3    H142241   4.538   2.281   2.219 -0.6311  0.1490 -0.3555
 6942TIP3    H242242   4.527   2.372   2.340  1.1239 -0.5495  0.3576
 6943TIP3   OH242243   6.553   6.031  15.174  0.3872 -0.4757 -0.2782
 6943TIP3    H142244   6.536   5.996  15.262 -0.0026 -0.2520 -0.2618
 6943TIP3    H242245   6.579   6.122  15.189  0.9778 -0.6326 -0.3498
 6944TIP3   OH242246   5.761   1.742  13.405  0.3496 -0.2205 -0.1943
 6944TIP3    H142247   5.675   1.782  13.398  0.5136  0.1467 -0.1638
 6944TIP3    H242248   5.797   1.778  13.486  0.9955  0.5525 -0.8059
 6945TIP3   OH242249   1.844   5.411  15.817  0.4397  0.1034  0.0070
 6945TIP3    H142250   1.866   5.441  15.729 -0.0726  1.9608  0.4754
 6945TIP3    H242251   1.914   5.350  15.840 -0.2115 -1.6279 -2.2330
 6946TIP3   OH242252   4.827   5.545  13.658  0.0322 -0.2366  0.0645
 6946TIP3    H142253   4.795   5.616  13.602  1.2321  0.4474  0.2147
 6946TIP3    H242254   4.918   5.568  13.676 -0.3886 -0.2164  2.5919
 6947TIP3   OH242255   5.526   1.616  14.224 -0.1190  0.1415 -0.1468
 6947TIP3    H142256   5.446   1.576  14.260 -0.2614  1.2619  0.8432
 6947TIP3    H242257   5.498   1.655  14.141  0.1616 -2.2759 -1.4882
 6948TIP3   OH242258   2.519   3.622   4.642  0.2839  0.4361  0.0598
 6948TIP3    H142259   2.504   3.642   4.549  0.2524  0.5562  0.0918
 6948TIP3    H242260   2.450   3.559   4.664  0.3031  0.3926 -0.0031
 6949TIP3   OH242261   2.614   5.436  13.489 -0.6932  0.1334  0.5082
 6949TIP3    H142262   2.700   5.435  13.532 -0.5676 -0.7276  0.2466
 6949TIP3    H242263   2.602   5.527  13.463  0.0278  0.3147  0.7840
 6950TIP3   OH242264   3.253   3.187  16.391 -0.3191  0.2500  0.1922
 6950TIP3    H142265   3.295   3.212  16.309 -0.5233 -0.8511 -0.2561
 6950TIP3    H242266   3.187   3.123  16.366  1.1839 -1.9157  1.4412
 6951TIP3   OH242267   4.129   1.656   4.265  0.0520 -0.5480 -0.2018
 6951TIP3    H142268   4.128   1.681   4.357 -3.5898  3.4456 -0.9488
 6951TIP3    H242269   4.057   1.593   4.256  1.2323 -1.9411 -0.2112
 6952TIP3   OH242270   3.481   3.084  12.034  0.5198 -0.4413  0.2155
 6952TIP3    H142271   3.500   3.126  12.118 -0.5876  0.5768 -0.0218
 6952TIP3    H242272   3.556   3.105  11.978  1.2268 -1.0628  0.9040
 6953TIP3   OH242273   3.621   2.079   5.303  0.4417  0.1115  0.2705
 6953TIP3    H142274   3.568   2.001   5.318 -1.2240  1.4398  1.7770
 6953TIP3    H242275   3.671   2.060   5.224 -2.0498 -1.3759 -1.0840
 6954TIP3   OH242276   5.085   4.487   4.531 -0.4534 -0.4781 -0.5485
 6954TIP3    H142277   5.084   4.471   4.437  1.7704  0.7517 -0.8361
 6954TIP3    H242278   5.114   4.404   4.569 -2.6268 -1.4072 -0.7655
 6955TIP3   OH242279   4.488   4.412   0.624  0.2308 -0.1212 -0.7486
 6955TIP3    H142280   4.436   4.341   0.661  0.5833  0.6135  1.2402
 6955TIP3    H242281   4.425   4.483   0.609 -0.1986 -0.9020 -3.1129
 6956TIP3   OH242282   3.318   4.505   5.814 -0.5902  0.7258  0.0235
 6956TIP3    H142283   3.336   4.459   5.732  0.1890  2.6950 -0.9628
 6956TIP3    H242284   3.355   4.449   5.881 -1.4491 -1.0531 -0.9148
 6957TIP3   OH242285   1.921   3.814  10.580 -0.3432 -0.0860  1.0280
 6957TIP3    H142286   2.009   3.835  10.612 -0.2610 -0.9659  1.4321
 6957TIP3    H242287   1.922   3.718  10.571 -0.0187  0.1091 -2.6307
 6958TIP3   OH242288   2.797   0.355   0.052 -0.0024  0.8651 -0.0194
 6958TIP3    H142289   2.871   0.374   0.109  0.2502 -0.9789  0.3501
 6958TIP3    H242290   2.818   0.397  -0.032  1.7017 -0.0117 -0.0661
 6959TIP3   OH242291   6.592   2.437   3.585  0.1404  0.1306  1.1423
 6959TIP3    H142292   6.637   2.400   3.509 -0.2023 -0.7092  1.3419
 6959TIP3    H242293   6.535   2.505   3.549  1.1466  0.8251  0.8275
 6960TIP3   OH242294   4.847   2.437   5.480  0.3096 -0.5074  0.1085
 6960TIP3    H142295   4.853   2.524   5.520  3.8295 -0.7935  0.4799
 6960TIP3    H242296   4.792   2.387   5.541 -0.1340  0.9265  0.9311
 6961TIP3   OH242297   3.929   4.181  14.942 -0.2744  0.2818 -0.1514
 6961TIP3    H142298   3.881   4.213  15.018 -1.9106  0.6873 -1.2967
 6961TIP3    H242299   4.021   4.184  14.969 -0.4539  3.8904  0.6152
 6962TIP3   OH242300   6.516   0.520   1.610 -0.1511  0.6595 -0.1295
 6962TIP3    H142301   6.553   0.525   1.698 -1.3805 -0.4227  0.4772
 6962TIP3    H242302   6.464   0.440   1.610 -0.9242  1.1258 -1.5547
 6963TIP3   OH242303   3.577   0.890   1.020  0.2058  0.0939 -0.5077
 6963TIP3    H142304   3.500   0.896   0.964  0.4910 -0.3548 -0.9644
 6963TIP3    H242305   3.589   0.796   1.035  0.3848  0.1870 -0.0499
 6964TIP3   OH242306   6.414   1.246  14.161  0.0765 -0.2110  0.5044
 6964TIP3    H142307   6.360   1.264  14.239  0.1503 -0.6556  0.6599
 6964TIP3    H242308   6.504   1.255  14.192  0.0960  1.0881  0.1085
 6965TIP3   OH242309   2.812   4.107   3.584  0.1534  0.1476 -0.0422
 6965TIP3    H142310   2.816   4.196   3.549  0.8993 -0.2437 -0.9938
 6965TIP3    H242311   2.835   4.050   3.510  1.1888 -0.7384  0.9099
 6966TIP3   OH242312   6.196   5.324  12.061  0.6281  0.0208  0.1048
 6966TIP3    H142313   6.199   5.291  11.971 -0.8637  1.7428 -0.6449
 6966TIP3    H242314   6.257   5.398  12.061 -0.6464  1.0935  0.0048
 6967TIP3   OH242315   5.398   4.973   2.275 -0.1330 -0.1824 -0.2828
 6967TIP3    H142316   5.400   4.907   2.206  0.9867  0.6046 -1.0339
 6967TIP3    H242317   5.466   4.945   2.336 -0.6730 -0.5141  0.1812
 6968TIP3   OH242318   3.427   0.993  14.296 -0.2425 -0.1537 -0.5016
 6968TIP3    H142319   3.341   0.975  14.258  0.3067  0.8775 -2.3697
 6968TIP3    H242320   3.484   0.925  14.261  0.0770  0.2291 -0.7260
 6969TIP3   OH242321   2.292   3.327   0.781  0.0682  0.0484 -0.5724
 6969TIP3    H142322   2.375   3.358   0.819 -0.0516  0.6390 -0.7786
 6969TIP3    H242323   2.318   3.254   0.725  0.5258  0.5428 -1.0236
 6970TIP3   OH242324   2.340   4.972   2.164  0.3998 -0.1694 -0.4038
 6970TIP3    H142325   2.401   4.902   2.140  1.5234  0.4886  0.4359
 6970TIP3    H242326   2.331   5.025   2.085 -1.1354 -1.6994 -1.3221
 6971TIP3   OH242327   4.590   5.549   4.744  0.2627 -0.1456  0.5108
 6971TIP3    H142328   4.634   5.553   4.660  0.6090  0.5849  0.7179
 6971TIP3    H242329   4.613   5.463   4.779 -1.3231 -1.2088 -0.8929
 6972TIP3   OH242330   1.115   2.004   2.771 -0.0299 -0.4520 -0.1722
 6972TIP3    H142331   1.192   1.960   2.805  0.1117 -0.2290 -0.2011
 6972TIP3    H242332   1.133   2.015   2.677 -1.1339 -2.5858 -0.7016
 6973TIP3   OH242333   6.828   5.601   5.965 -0.5731 -0.1701  0.2486
 6973TIP3    H142334   6.857   5.624   6.053 -0.4944  0.5546  0.0410
 6973TIP3    H242335   6.868   5.515   5.948 -2.6562 -1.5458  1.8815
 6974TIP3   OH242336   1.056   0.221  16.663 -0.4064  0.3203 -0.4906
 6974TIP3    H142337   1.076   0.204  16.571  0.2587 -1.8757 -0.0078
 6974TIP3    H242338   1.141   0.235  16.705 -0.7898  2.7846 -0.4103
 6975TIP3   OH242339   0.774   0.953  12.003 -0.4195 -0.7559 -0.5099
 6975TIP3    H142340   0.756   0.884  11.939  2.8474  0.3042 -2.8325
 6975TIP3    H242341   0.829   1.016  11.956 -1.6286  2.5206  2.0500
 6976TIP3   OH242342   5.517   3.018  12.152 -0.0414  0.4028 -0.1542
 6976TIP3    H142343   5.604   3.026  12.189 -0.6065  2.3320  0.8595
 6976TIP3    H242344   5.463   2.984  12.224 -0.6262  1.6990  0.0360
 6977TIP3   OH242345   5.044   0.714   1.712 -0.1709  0.6199  0.3472
 6977TIP3    H142346   5.063   0.679   1.625  0.4273  0.3755  0.5705
 6977TIP3    H242347   5.086   0.653   1.773 -2.0314 -0.1908  0.9038
 6978TIP3   OH242348   6.711   5.013   5.571 -0.1818 -0.2270 -0.4699
 6978TIP3    H142349   6.712   5.078   5.641 -2.4223 -2.4015  1.7585
 6978TIP3    H242350   6.631   5.031   5.522 -0.1178 -0.5177 -0.6855
 6979TIP3   OH242351   4.930   4.235  12.713  0.5555 -0.2798  0.2136
 6979TIP3    H142352   4.841   4.271  12.722  0.3306 -0.9775  0.8589
 6979TIP3    H242353   4.980   4.306  12.674 -0.0109  0.5521  0.9571
 6980TIP3   OH242354   1.158   0.207  11.317 -0.3344 -0.6483 -0.2422
 6980TIP3    H142355   1.064   0.210  11.335  0.0570 -1.2280  2.2161
 6980TIP3    H242356   1.181   0.115  11.327 -0.0465 -1.2276 -4.4924
 6981TIP3   OH242357   5.422   1.367   4.897 -0.2340 -0.2246  0.0238
 6981TIP3    H142358   5.327   1.353   4.894  0.0506 -2.6318  0.0081
 6981TIP3    H242359   5.437   1.413   4.979 -1.2948 -1.1606  0.7718
 6982TIP3   OH242360   5.207   5.793   0.915 -0.3696  0.1341  0.3309
 6982TIP3    H142361   5.118   5.800   0.948 -1.1091 -0.2812 -1.4701
 6982TIP3    H242362   5.237   5.884   0.906 -1.0567  0.3197 -0.1515
 6983TIP3   OH242363   5.938   2.148  15.533 -0.1117 -0.1503 -0.2609
 6983TIP3    H142364   6.010   2.209  15.552 -0.5931  0.2174  0.4523
 6983TIP3    H242365   5.871   2.202  15.492  0.7587 -0.8722 -2.8066
 6984TIP3   OH242366   2.779   3.539  15.563  0.6581  0.0117  0.2586
 6984TIP3    H142367   2.734   3.467  15.607  0.6516 -1.1983 -1.6110
 6984TIP3    H242368   2.870   3.511  15.560  0.2526 -1.3878 -2.9749
 6985TIP3   OH242369   5.638   1.952   4.809  0.4141 -0.2504  0.3153
 6985TIP3    H142370   5.714   1.896   4.794  0.5768 -0.1044  0.5912
 6985TIP3    H242371   5.566   1.906   4.766  0.5905 -0.5602  0.3465
 6986TIP3   OH242372   5.240   6.222  14.142 -0.6426  0.2846 -0.3092
 6986TIP3    H142373   5.233   6.137  14.184  0.0744 -0.5434 -1.7970
 6986TIP3    H242374   5.185   6.215  14.064 -0.3404  1.0816 -0.6102
 6987TIP3   OH242375   4.814   2.331  12.700 -0.3755 -0.0739 -0.0250
 6987TIP3    H142376   4.864   2.379  12.766 -0.6754  1.5393 -0.9097
 6987TIP3    H242377   4.793   2.247  12.741 -1.2240  1.1552  2.2100
 6988TIP3   OH242378   6.002   0.388  13.099  0.3478 -0.3069 -0.2059
 6988TIP3    H142379   6.001   0.375  13.193  1.8981 -1.2632 -0.2830
 6988TIP3    H242380   6.063   0.460  13.085 -0.1283  0.0527 -0.4632
 6989TIP3   OH242381   6.018   2.775   6.021  0.0943  0.0398 -0.0921
 6989TIP3    H142382   5.995   2.856   5.976  0.0524 -0.0311 -0.1965
 6989TIP3    H242383   6.113   2.771   6.016  0.0011 -0.9718 -1.9166
 6990TIP3   OH242384   2.742   1.918   1.921 -0.6544 -0.1582 -0.4771
 6990TIP3    H142385   2.733   1.986   1.989  0.2354  0.4812 -0.9706
 6990TIP3    H242386   2.785   1.963   1.848 -0.2298 -1.2098 -0.8915
 6991TIP3   OH242387   0.585   6.533  10.963 -0.5550 -0.2272  0.3474
 6991TIP3    H142388   0.532   6.607  10.992  0.0192 -0.1238  1.1459
 6991TIP3    H242389   0.625   6.499  11.043 -1.4662 -1.9218  0.1336
 6992TIP3   OH242390   3.933   1.360  11.303  0.2696 -0.4866 -0.0731
 6992TIP3    H142391   3.988   1.336  11.378 -1.7124 -1.3660  1.1625
 6992TIP3    H242392   3.888   1.280  11.280 -1.7161  0.5479  0.0274
 6993TIP3   OH242393   0.685   2.403   2.272 -0.5896  0.3519 -0.8842
 6993TIP3    H142394   0.689   2.468   2.342 -2.1464  1.2228 -1.5521
 6993TIP3    H242395   0.777   2.382   2.254 -0.1625  0.2019  1.2896
 6994TIP3   OH242396   3.189   3.990   5.249 -0.0595  0.2959  0.0302
 6994TIP3    H142397   3.246   4.067   5.242  0.6491 -0.3127 -1.1258
 6994TIP3    H242398   3.138   3.990   5.168  0.9878 -1.2415 -0.6688
 6995TIP3   OH242399   2.478   1.187  10.938  0.1480 -0.1957 -0.0626
 6995TIP3    H142400   2.549   1.137  10.979  0.2489 -0.6449 -0.7617
 6995TIP3    H242401   2.459   1.139  10.857 -1.8555 -0.8517  0.7216
 6996TIP3   OH242402   0.625   5.890   3.320  0.0091  0.0179  0.0475
 6996TIP3    H142403   0.603   5.829   3.390  1.0547  0.4076  0.7350
 6996TIP3    H242404   0.706   5.856   3.283 -0.2888  0.0783 -0.6703
 6997TIP3   OH242405   5.551   1.608  11.850 -0.4770  0.0165  0.5735
 6997TIP3    H142406   5.557   1.521  11.890 -2.2115  0.4415  1.8740
 6997TIP3    H242407   5.476   1.603  11.791 -0.5033  0.5914  0.5513
 6998TIP3   OH242408   4.530   5.960   2.926  0.5934 -0.1532  0.5400
 6998TIP3    H142409   4.617   5.923   2.945  0.4926 -0.3996  0.5265
 6998TIP3    H242410   4.523   6.035   2.986  1.3408  0.6702 -0.3650
 6999TIP3   OH242411   4.612   5.911   5.228  0.0905 -0.2925 -0.3008
 6999TIP3    H142412   4.621   5.823   5.265  0.7810  0.1319  0.6153
 6999TIP3    H242413   4.561   5.959   5.294 -1.7913 -0.4402 -1.5948
 7000TIP3   OH242414   0.078   1.883   2.499 -0.6041  0.0977 -0.0509
 7000TIP3    H142415   0.137   1.842   2.436  0.5570  1.4152  0.1272
 7000TIP3    H242416   0.022   1.940   2.445  1.1292  2.0993  0.1147
 7001TIP3   OH242417   0.581   6.836   3.548  0.2326 -0.2595  0.5307
 7001TIP3    H142418   0.550   6.788   3.471  0.3114 -1.2761  1.1204
 7001TIP3    H242419   0.644   6.899   3.513 -1.6889  1.1570 -0.5717
 7002TIP3   OH242420   6.821   1.508   3.267 -0.3310  0.3994  0.6726
 7002TIP3    H142421   6.780   1.483   3.185 -0.3506  0.8720  0.5346
 7002TIP3    H242422   6.867   1.590   3.247 -0.1058  0.3715  1.0601
 7003TIP3   OH242423   2.025   4.352   4.183 -0.2660  0.0744  0.0655
 7003TIP3    H142424   2.089   4.283   4.167 -1.0691 -0.5932 -0.3431
 7003TIP3    H242425   2.062   4.403   4.256  0.4379 -0.6525  0.2257
 7004TIP3   OH242426   4.292   2.875  13.817  0.5358 -0.0654 -0.1578
 7004TIP3    H142427   4.327   2.938  13.754 -1.0493  0.7716 -0.2626
 7004TIP3    H242428   4.354   2.802  13.815  1.7908  0.9766 -0.9005
 7005TIP3   OH242429   5.862   4.823   2.812  0.1294  1.0579 -0.1499
 7005TIP3    H142430   5.901   4.736   2.822 -0.2794  0.9557  0.6823
 7005TIP3    H242431   5.777   4.806   2.771 -1.5773  0.6071  3.2203
 7006TIP3   OH242432   0.592   4.806   5.186  0.1454 -0.1611 -0.8414
 7006TIP3    H142433   0.581   4.808   5.281  0.7576 -1.5532 -0.7137
 7006TIP3    H242434   0.534   4.735   5.158 -0.6885  0.8034 -1.6264
 7007TIP3   OH242435   4.618   4.216  11.390  0.0103  0.5576 -0.3445
 7007TIP3    H142436   4.547   4.273  11.360 -3.0592 -2.2338  0.9982
 7007TIP3    H242437   4.612   4.139  11.333  1.4136 -0.1641  0.4235
 7008TIP3   OH242438   1.552   1.422  10.308 -0.3005  0.7211  0.5193
 7008TIP3    H142439   1.476   1.415  10.250 -1.0025 -1.4902  1.5885
 7008TIP3    H242440   1.625   1.392  10.255 -0.6319  0.4208  0.2226
 7009TIP3   OH242441   6.043   3.327   2.841 -0.0651  0.3137  0.1204
 7009TIP3    H142442   6.101   3.343   2.767 -1.1345 -0.3146 -0.8929
 7009TIP3    H242443   5.970   3.388   2.829  0.4461  1.2445  1.4937
 7010TIP3   OH242444   0.317   2.502  13.218 -0.2068 -0.2594  0.0671
 7010TIP3    H142445   0.298   2.533  13.306 -0.7306 -0.2870 -0.0369
 7010TIP3    H242446   0.246   2.440  13.198  0.5585 -1.1800  0.0971
 7011TIP3   OH242447   3.330   0.337  14.714 -0.7091 -0.1144 -0.5012
 7011TIP3    H142448   3.304   0.410  14.771  1.8011 -0.7155  1.5899
 7011TIP3    H242449   3.406   0.369  14.666  0.3013 -1.2089  0.2920
 7012TIP3   OH242450   3.333   6.682  10.651  0.3814 -0.0350 -0.0552
 7012TIP3    H142451   3.426   6.694  10.666  0.3179 -0.6979  0.8972
 7012TIP3    H242452   3.309   6.606  10.703 -0.3481 -0.9686 -1.6563
 7013TIP3   OH242453   2.725   0.488   2.948 -0.1012 -0.2683  0.7035
 7013TIP3    H142454   2.730   0.576   2.911 -0.0108 -0.7749 -0.5373
 7013TIP3    H242455   2.747   0.500   3.040  2.5090  0.6737  0.0568
 7014TIP3   OH242456   1.291   3.356  13.327 -0.1974  0.0874 -0.8786
 7014TIP3    H142457   1.292   3.407  13.407 -1.2351 -2.0067  0.5672
 7014TIP3    H242458   1.382   3.331  13.313 -0.0321  0.3310 -0.2603
 7015TIP3   OH242459   1.664   4.576  11.056 -0.0671 -0.0595  0.3052
 7015TIP3    H142460   1.679   4.634  10.981 -0.0852  1.4504  1.4024
 7015TIP3    H242461   1.646   4.636  11.129 -0.6614 -1.4864  1.3925
 7016TIP3   OH242462   3.563   2.311  16.059  0.2556 -0.4004 -0.2493
 7016TIP3    H142463   3.571   2.400  16.093  0.0181 -0.6635  0.5253
 7016TIP3    H242464   3.648   2.291  16.022  0.3750  0.0737 -0.2295
 7017TIP3   OH242465   3.934   4.269   4.447 -0.0962 -0.3732  0.4366
 7017TIP3    H142466   3.961   4.186   4.407  2.7984 -0.1151  1.5796
 7017TIP3    H242467   3.930   4.251   4.540  1.1828  0.8506  0.7676
 7018TIP3   OH242468   4.851   0.186  10.980  0.0682  0.5314 -0.6026
 7018TIP3    H142469   4.763   0.222  10.982  0.0547  0.4650  0.3555
 7018TIP3    H242470   4.879   0.185  11.072  0.6720 -0.4225 -0.7872
 7019TIP3   OH242471   3.509   2.624  14.409  0.0198 -0.7630 -0.7380
 7019TIP3    H142472   3.565   2.609  14.333  0.3902 -0.5227 -0.5156
 7019TIP3    H242473   3.570   2.633  14.482 -0.3553 -1.5823 -0.3082
 7020TIP3   OH242474   4.819   6.816  10.907  0.6344  0.8384 -0.0663
 7020TIP3    H142475   4.770   6.834  10.826  2.5555 -1.9145 -2.0219
 7020TIP3    H242476   4.848   6.902  10.937  0.0511  1.9408 -2.4474
 7021TIP3   OH242477   0.740   0.841   0.063 -0.8573  0.2493 -0.0874
 7021TIP3    H142478   0.656   0.886   0.061 -1.2999 -0.2982  2.5991
 7021TIP3    H242479   0.762   0.835   0.156  0.8328 -2.0042 -0.5440
 7022TIP3   OH242480   5.309   2.413  12.820 -0.1809 -0.1950  0.8707
 7022TIP3    H142481   5.231   2.464  12.844  0.7661  1.1384  1.2632
 7022TIP3    H242482   5.382   2.466  12.852  1.0795  0.3739 -2.5213
 7023TIP3   OH242483   0.429   0.615  13.079 -0.0452  0.5905  0.1703
 7023TIP3    H142484   0.451   0.594  12.988  0.6417 -0.6059  0.5860
 7023TIP3    H242485   0.334   0.627  13.078  0.1562  2.6130 -1.0565
 7024TIP3   OH242486   6.870   1.648  15.808 -0.0079 -0.3986  0.0914
 7024TIP3    H142487   6.782   1.647  15.769 -0.6468  1.0226  1.3775
 7024TIP3    H242488   6.880   1.561  15.845 -0.3027 -1.0260 -1.2469
 7025TIP3   OH242489   1.151   6.691  14.015 -0.6083 -0.3367 -0.1410
 7025TIP3    H142490   1.134   6.603  14.048  1.5479 -1.3829 -1.6403
 7025TIP3    H242491   1.141   6.685  13.920 -0.8003  1.1632 -0.2536
 7026TIP3   OH242492   4.790   4.079   3.908 -0.0614  0.1670 -0.2877
 7026TIP3    H142493   4.716   4.101   3.852 -0.4711  1.2325  0.6255
 7026TIP3    H242494   4.786   3.984   3.917 -1.7481  0.2594  0.2978
 7027TIP3   OH242495   1.593   0.348  15.148  0.0989 -0.3906 -0.0428
 7027TIP3    H142496   1.608   0.397  15.067 -1.4052  1.5677  0.7793
 7027TIP3    H242497   1.668   0.371  15.203  0.2895 -0.4118 -0.2906
 7028TIP3   OH242498   4.596   3.725   0.737 -0.3595 -0.2628  0.2893
 7028TIP3    H142499   4.591   3.804   0.791  0.5016 -0.1146  0.1679
 7028TIP3    H242500   4.505   3.706   0.714 -0.6426  0.2443  0.9645
 7029TIP3   OH242501   5.475   5.953  13.060 -0.6189  0.0086 -0.0049
 7029TIP3    H142502   5.517   5.956  12.974  0.0177  2.4981  0.3148
 7029TIP3    H242503   5.445   5.863  13.069 -1.8505 -0.0597 -3.3668
 7030TIP3   OH242504   1.950   2.779  14.298 -0.0960 -0.1000  0.1030
 7030TIP3    H142505   2.041   2.749  14.301 -0.3365 -0.9315 -0.4335
 7030TIP3    H242506   1.954   2.861  14.249  0.2254 -0.8375 -1.1869
 7031TIP3   OH242507   5.917   0.174  10.067  0.3607 -0.1544  0.4451
 7031TIP3    H142508   5.931   0.266  10.088 -0.7841 -0.0559  0.8642
 7031TIP3    H242509   5.825   0.169  10.041  0.8759 -0.8614 -1.4156
 7032TIP3   OH242510   3.880   1.844   2.130  0.2078  0.5296 -0.1575
 7032TIP3    H142511   3.961   1.885   2.160  0.3200  0.6798 -0.6491
 7032TIP3    H242512   3.810   1.899   2.165  0.2822 -0.0346  0.9217
 7033TIP3   OH242513   1.098   2.635  16.191 -0.7253  0.2529  0.1374
 7033TIP3    H142514   1.174   2.586  16.224  0.1298  0.8346 -0.8815
 7033TIP3    H242515   1.025   2.574  16.200 -0.2777 -0.0955  1.7487
 7034TIP3   OH242516   0.816   3.699   2.490 -0.0601  0.5426 -0.1974
 7034TIP3    H142517   0.853   3.655   2.413  0.5690  1.8857 -0.6890
 7034TIP3    H242518   0.876   3.770   2.508 -0.3295  0.3889  1.4226
 7035TIP3   OH242519   6.222   6.254   2.684  0.0716  0.3936 -0.3682
 7035TIP3    H142520   6.248   6.294   2.766 -0.1476  0.2665 -0.2345
 7035TIP3    H242521   6.304   6.226   2.643  0.0427 -2.3341  1.2210
 7036TIP3   OH242522   1.602   5.498  15.264  0.1643 -0.5428  0.4059
 7036TIP3    H142523   1.642   5.502  15.178  1.0111 -1.3550  0.7415
 7036TIP3    H242524   1.660   5.551  15.320 -0.1647 -0.3356  0.5532
 7037TIP3   OH242525   1.987   4.271  15.202  0.2091  0.4426  0.6778
 7037TIP3    H142526   1.896   4.245  15.214  0.7901 -1.2291  1.7556
 7037TIP3    H242527   2.017   4.295  15.290  1.4019 -1.1989  0.7752
 7038TIP3   OH242528   3.940   2.374   0.329  0.6672  0.2205  0.4778
 7038TIP3    H142529   3.845   2.382   0.330  0.8428  4.0970  0.1543
 7038TIP3    H242530   3.964   2.378   0.237  1.1961 -0.5756  0.5672
 7039TIP3   OH242531   3.762   2.988  15.069  0.5387 -0.1057 -0.2606
 7039TIP3    H142532   3.848   3.015  15.036  1.1119 -1.9346 -0.3622
 7039TIP3    H242533   3.782   2.944  15.152 -0.2896 -0.6013 -0.3189
 7040TIP3   OH242534   1.909   0.289  13.067 -0.5311  0.5994  0.2201
 7040TIP3    H142535   1.845   0.294  13.138 -0.1028  1.5566  0.5548
 7040TIP3    H242536   1.944   0.200  13.073 -0.4001  0.7090  1.2987
 7041TIP3   OH242537   2.742   2.682  13.099 -0.4464 -0.3605 -0.2598
 7041TIP3    H142538   2.673   2.708  13.038 -1.1717  0.1868  0.7661
 7041TIP3    H242539   2.823   2.705  13.054 -1.0046  2.2788 -0.0701
 7042TIP3   OH242540   2.453   0.802  12.316  0.0325 -0.0910  0.6355
 7042TIP3    H142541   2.411   0.775  12.234  0.0673  1.3735  0.0967
 7042TIP3    H242542   2.383   0.845  12.365 -0.0749 -1.2827  1.5522
 7043TIP3   OH242543   4.263   4.272   5.543  0.0697 -0.1424  0.2408
 7043TIP3    H142544   4.270   4.366   5.525 -0.0891 -0.1307  0.2349
 7043TIP3    H242545   4.317   4.259   5.621 -2.0513  0.4543  1.8914
 7044TIP3   OH242546   3.754   3.922   5.188  0.1195 -0.2346 -0.0339
 7044TIP3    H142547   3.817   3.946   5.120 -1.4452  1.0120 -1.1208
 7044TIP3    H242548   3.752   3.827   5.187  3.3019 -0.4421  1.3272
 7045TIP3   OH242549   2.390   0.086   0.473  0.2955 -0.1753 -0.2312
 7045TIP3    H142550   2.296   0.093   0.487  0.2089 -1.1449 -0.2310
 7045TIP3    H242551   2.404  -0.007   0.451  1.5552 -0.6061  2.0734
 7046TIP3   OH242552   1.887   1.054   1.067 -0.1526 -0.4619  0.1232
 7046TIP3    H142553   1.808   1.001   1.052  0.9964 -1.9141 -1.1002
 7046TIP3    H242554   1.907   1.041   1.160 -0.5706 -1.2139  0.1173
 7047TIP3   OH242555   6.266   3.442   5.414  0.2543  0.3089  0.0031
 7047TIP3    H142556   6.178   3.407   5.397 -0.4938  1.7559  0.7039
 7047TIP3    H242557   6.312   3.432   5.331 -0.9114  0.4752 -0.6858
 7048TIP3   OH242558   4.300   5.587  13.720 -0.1345 -0.3703  0.3277
 7048TIP3    H142559   4.337   5.501  13.740  0.1961 -0.4990 -0.7734
 7048TIP3    H242560   4.210   5.582  13.752  0.4753 -0.3898  2.1651
 7049TIP3   OH242561   4.353   3.520   5.192 -0.4441  0.1321  0.3035
 7049TIP3    H142562   4.424   3.519   5.128 -1.1376  0.1887 -0.4924
 7049TIP3    H242563   4.328   3.428   5.202 -1.1358  0.2316 -0.4367
 7050TIP3   OH242564   6.513   2.393   1.525 -0.8074  0.3291 -0.3497
 7050TIP3    H142565   6.439   2.453   1.534 -0.1001  1.0960  0.5294
 7050TIP3    H242566   6.590   2.449   1.525 -0.1069 -0.5726  0.7439
 7051TIP3   OH242567   5.224   4.266   0.275  0.3169 -0.7461 -0.5514
 7051TIP3    H142568   5.294   4.258   0.210 -0.1526 -0.3441 -1.1134
 7051TIP3    H242569   5.182   4.350   0.256 -0.3798 -1.0241 -0.2824
 7052TIP3   OH242570   6.241   2.470   1.289  0.1768 -0.0484  0.4268
 7052TIP3    H142571   6.161   2.497   1.245  1.3656  2.1305 -0.5916
 7052TIP3    H242572   6.294   2.430   1.220 -0.0009 -1.5213  1.1015
 7053TIP3   OH242573   0.070   1.188   1.785  0.0429 -0.0803  0.2738
 7053TIP3    H142574   0.102   1.114   1.734 -1.1705 -0.0269 -0.6230
 7053TIP3    H242575  -0.002   1.153   1.836 -0.1967  0.3614  0.2448
 7054TIP3   OH242576   0.512   3.711  10.615 -0.6969  0.0827 -0.2515
 7054TIP3    H142577   0.571   3.655  10.665 -1.7211 -0.1769  0.7147
 7054TIP3    H242578   0.537   3.698  10.524 -0.1795 -1.0742  0.0415
 7055TIP3   OH242579   5.085   3.135   1.669  0.0746  0.5211 -0.0805
 7055TIP3    H142580   5.048   3.222   1.653 -1.1357  0.1771  0.6879
 7055TIP3    H242581   5.179   3.149   1.667 -0.0817  1.7143 -0.6707
 7056TIP3   OH242582   5.832   2.701  10.794 -0.0509 -0.2856 -0.4902
 7056TIP3    H142583   5.815   2.629  10.855 -1.4646  0.5504  0.1566
 7056TIP3    H242584   5.901   2.752  10.837 -1.4605  0.6453  0.7858
 7057TIP3   OH242585   5.210   2.289  12.086  0.6079 -0.0662 -0.3083
 7057TIP3    H142586   5.301   2.290  12.055  0.0976  0.2588 -1.9022
 7057TIP3    H242587   5.178   2.378  12.068 -0.6891 -0.8089 -1.9707
 7058TIP3   OH242588   1.901   0.193  11.852 -0.5067 -0.4112  0.2232
 7058TIP3    H142589   1.820   0.238  11.878 -0.6192  1.4786 -2.8378
 7058TIP3    H242590   1.966   0.223  11.915 -1.5504  0.5493  0.8991
 7059TIP3   OH242591   3.510   1.779   1.533  0.1598  0.6837  0.2212
 7059TIP3    H142592   3.523   1.810   1.623 -0.3175 -0.3673  0.6719
 7059TIP3    H242593   3.473   1.854   1.487 -0.3081  1.0064  1.0983
 7060TIP3   OH242594   2.876   6.349  16.020  0.2087 -0.0592 -0.1594
 7060TIP3    H142595   2.874   6.272  16.077 -0.4654 -0.6799 -0.9897
 7060TIP3    H242596   2.854   6.422  16.077 -1.3502 -0.7869  0.2316
 7061TIP3   OH242597   6.238   5.465  14.662  0.8875  0.2361  0.4585
 7061TIP3    H142598   6.147   5.465  14.694  0.5081 -1.3816 -0.4805
 7061TIP3    H242599   6.282   5.400  14.716  1.3191  0.5130  0.4417
 7062TIP3   OH242600   2.539   5.803  11.946  0.0917 -0.0806 -0.2410
 7062TIP3    H142601   2.502   5.715  11.938 -1.0447  0.4091 -0.6650
 7062TIP3    H242602   2.621   5.791  11.993 -1.2529 -1.0797  2.0362
 7063TIP3   OH242603   5.971   5.158   4.160 -0.0928 -0.5673 -0.0795
 7063TIP3    H142604   5.941   5.243   4.191  0.9122 -0.8404  1.8266
 7063TIP3    H242605   5.974   5.103   4.239  1.2728 -1.7409 -0.8889
 7064TIP3   OH242606   6.879   5.487  15.632 -0.3274  0.6403  0.2635
 7064TIP3    H142607   6.920   5.536  15.703  2.7653  0.6340 -1.3493
 7064TIP3    H242608   6.828   5.419  15.676  1.3955  0.6752  2.5140
 7065TIP3   OH242609   6.803   0.507   4.723  0.3446  0.2913 -0.7302
 7065TIP3    H142610   6.828   0.549   4.805 -0.1288  1.0891 -0.9834
 7065TIP3    H242611   6.803   0.414   4.743  3.3235  0.2022 -0.6472
 7066TIP3   OH242612   0.846   4.509  14.354  0.1142  0.0999 -0.3873
 7066TIP3    H142613   0.772   4.565  14.331 -1.4611 -2.2688 -1.3785
 7066TIP3    H242614   0.921   4.551  14.311 -0.3880  2.9933  1.2868
 7067TIP3   OH242615   0.525   6.427  11.718 -0.1971 -0.0656  0.4207
 7067TIP3    H142616   0.495   6.516  11.734 -3.1398 -1.1881  1.8020
 7067TIP3    H242617   0.582   6.407  11.793 -1.8513 -0.2591  1.6694
 7068TIP3   OH242618   4.460   6.646   2.863  0.2153 -0.1944  0.2816
 7068TIP3    H142619   4.478   6.740   2.860 -1.9739  0.2474 -1.3639
 7068TIP3    H242620   4.532   6.610   2.915  1.5359  2.2701  0.3323
 7069TIP3   OH242621   0.605   3.834   6.136  0.1000 -0.3949  0.2640
 7069TIP3    H142622   0.695   3.850   6.110  0.0325  1.5288  1.0690
 7069TIP3    H242623   0.612   3.797   6.224  0.1184 -1.2640 -0.0924
 7070TIP3   OH242624   4.891   1.622   0.690  0.5847 -0.2286  0.5394
 7070TIP3    H142625   4.874   1.663   0.605 -0.4884 -0.6045  0.5546
 7070TIP3    H242626   4.898   1.529   0.670  0.4565 -0.3031  0.8482
 7071TIP3   OH242627   3.877   1.486  12.409  0.4739  0.2472 -0.2091
 7071TIP3    H142628   3.875   1.520  12.498  0.2614 -0.0183 -0.1133
 7071TIP3    H242629   3.929   1.550  12.360 -0.1891  0.8826 -0.1030
 7072TIP3   OH242630   4.631   3.774  13.142 -0.1840 -0.3900  0.0347
 7072TIP3    H142631   4.539   3.764  13.165  0.5036 -2.5080  2.5106
 7072TIP3    H242632   4.657   3.686  13.112  1.4319 -0.4253  1.3884
 7073TIP3   OH242633   0.759   3.364   4.538  0.1145  0.3774 -0.4347
 7073TIP3    H142634   0.727   3.454   4.535 -0.4438  0.1678 -1.0638
 7073TIP3    H242635   0.695   3.313   4.488 -0.1979 -0.5759  0.8771
 7074TIP3   OH242636   3.813   5.148   0.095 -0.1668 -0.0885  0.4343
 7074TIP3    H142637   3.867   5.069   0.100 -0.8520 -0.5221  1.2858
 7074TIP3    H242638   3.785   5.152   0.004  0.5128 -0.3944  0.2043
 7075TIP3   OH242639   2.066   1.864  13.810 -0.3455 -0.2193  0.3683
 7075TIP3    H142640   2.085   1.848  13.903  0.0506  0.2649  0.3704
 7075TIP3    H242641   2.060   1.959  13.803  1.8412 -0.0850 -0.5157
 7076TIP3   OH242642   1.312   1.614  13.507  0.1529  0.4945  0.1700
 7076TIP3    H142643   1.330   1.660  13.588 -0.4320 -0.7078  1.0131
 7076TIP3    H242644   1.316   1.521  13.531 -0.6005  0.1284 -1.0440
 7077TIP3   OH242645   2.183   2.392  14.121  0.1032  1.1003  0.4280
 7077TIP3    H142646   2.245   2.429  14.184  0.6654  3.0953 -1.1702
 7077TIP3    H242647   2.236   2.371  14.044 -0.8519  0.7168 -0.1499
 7078TIP3   OH242648   6.492   6.764  10.553  0.1237  0.4525  0.1712
 7078TIP3    H142649   6.570   6.746  10.606  0.5664  0.1298 -0.5741
 7078TIP3    H242650   6.503   6.709  10.475  0.0586  1.7812 -0.8033
 7079TIP3   OH242651   6.839   3.212   3.430  0.1000 -0.1002  0.4994
 7079TIP3    H142652   6.885   3.132   3.406  0.5379  0.5179 -0.7805
 7079TIP3    H242653   6.801   3.244   3.348  0.8702  1.5930  0.7721
 7080TIP3   OH242654   1.460   4.831  11.951 -0.7952 -0.3463 -0.2195
 7080TIP3    H142655   1.524   4.902  11.952  0.1301 -1.0582 -2.5175
 7080TIP3    H242656   1.376   4.874  11.968 -0.1430  1.1510 -0.6240
 7081TIP3   OH242657   3.973   3.192  10.415  0.5783  0.1596  0.2244
 7081TIP3    H142658   4.059   3.221  10.384  0.4857  1.3765  1.0342
 7081TIP3    H242659   3.936   3.144  10.340  2.1425 -0.8406  0.0361
 7082TIP3   OH242660   0.262   4.013  10.486 -0.3012 -0.1032 -0.1620
 7082TIP3    H142661   0.175   4.045  10.510 -0.7759 -0.5887 -1.2010
 7082TIP3    H242662   0.274   4.041  10.395 -0.2212 -1.7756 -0.6922
 7083TIP3   OH242663   1.491   6.115   4.500 -0.1068 -0.4048 -0.0148
 7083TIP3    H142664   1.399   6.096   4.516 -0.7694  0.8052 -2.0487
 7083TIP3    H242665   1.529   6.127   4.587 -1.5474 -2.1847  0.9296
 7084TIP3   OH242666   4.008   2.455  13.947 -0.6389  0.4942 -0.0046
 7084TIP3    H142667   3.915   2.445  13.969 -0.4524 -0.3752  0.4342
 7084TIP3    H242668   4.007   2.507  13.867 -1.6196 -0.9838 -1.0130
 7085TIP3   OH242669   5.783   6.632  13.795 -0.3046  0.5550 -0.3843
 7085TIP3    H142670   5.791   6.664  13.705  0.4396 -1.4462 -1.0864
 7085TIP3    H242671   5.852   6.677  13.843  2.5200 -1.7826 -1.9329
 7086TIP3   OH242672   3.563   2.133  16.264  0.0216 -0.1521  0.2525
 7086TIP3    H142673   3.485   2.114  16.316 -0.1632 -0.2126 -0.0397
 7086TIP3    H242674   3.538   2.208  16.211  0.7267  0.8747  1.3471
 7087TIP3   OH242675   6.202   2.584   4.311  0.1895  0.3090 -0.2247
 7087TIP3    H142676   6.200   2.599   4.217  1.1787 -0.4462 -0.3913
 7087TIP3    H242677   6.279   2.528   4.324 -1.7096 -2.3253  0.6253
 7088TIP3   OH242678   0.727   0.058  12.327  0.1081  0.0414 -0.4076
 7088TIP3    H142679   0.730   0.006  12.408 -1.4944  1.6387  0.7559
 7088TIP3    H242680   0.659   0.123  12.343  1.0885  1.6419 -2.3364
 7089TIP3   OH242681   6.673   3.812  12.879  0.0172 -0.0323  0.0446
 7089TIP3    H142682   6.760   3.826  12.841  0.1429 -1.4213 -0.2076
 7089TIP3    H242683   6.633   3.899  12.878  0.5203  0.2285 -2.0379
 7090TIP3   OH242684   1.658   0.131   0.799  0.9102 -0.1914 -0.1225
 7090TIP3    H142685   1.725   0.073   0.762  1.4299  0.5878 -0.4442
 7090TIP3    H242686   1.655   0.109   0.892  0.7296 -1.0777 -0.3285
 7091TIP3   OH242687   3.491   0.627  13.867 -0.1160  0.0391  0.1486
 7091TIP3    H142688   3.405   0.603  13.833 -0.4393  0.8250  0.4085
 7091TIP3    H242689   3.510   0.560  13.933 -0.3873 -0.3092 -0.1187
 7092TIP3   OH242690   1.752   1.121  12.727  0.4809 -0.4315  0.1809
 7092TIP3    H142691   1.799   1.065  12.666 -1.4855 -1.7040 -0.2739
 7092TIP3    H242692   1.792   1.104  12.812  0.0718 -2.4396  0.0140
 7093TIP3   OH242693   2.856   2.352  10.050 -0.0911  0.7575  0.0292
 7093TIP3    H142694   2.844   2.275  10.105  0.6386  2.0391  2.0575
 7093TIP3    H242695   2.950   2.370  10.053 -0.4002  2.4158  0.5724
 7094TIP3   OH242696   0.938   6.358  11.326  0.6516 -0.0121  0.0063
 7094TIP3    H142697   0.984   6.277  11.301 -1.2475 -1.0996 -0.1254
 7094TIP3    H242698   0.868   6.329  11.384 -0.1027  1.5467 -0.0831
 7095TIP3   OH242699   1.424   2.414   0.261 -0.3606  0.3617 -0.3629
 7095TIP3    H142700   1.422   2.318   0.267 -1.1459  0.3759 -0.3774
 7095TIP3    H242701   1.366   2.444   0.331 -0.3641  0.8225 -0.5632
 7096TIP3   OH242702   0.493   3.421  12.527 -0.5908  0.2107  0.9914
 7096TIP3    H142703   0.572   3.465  12.494 -1.6355 -0.0147 -2.2334
 7096TIP3    H242704   0.505   3.329  12.503 -1.9315  0.2308  0.1554
 7097TIP3   OH242705   5.694   4.452  16.570 -0.6101  0.5524 -0.5673
 7097TIP3    H142706   5.653   4.491  16.647 -3.0501 -2.1145 -0.3476
 7097TIP3    H242707   5.656   4.365  16.564  3.0210 -1.1283 -2.1373
 7098TIP3   OH242708   2.372   2.458   3.612  0.2725  0.1381 -0.4488
 7098TIP3    H142709   2.436   2.388   3.629 -0.7350 -0.7887 -0.3859
 7098TIP3    H242710   2.326   2.430   3.533  0.1365  0.9401 -0.6551
 7099TIP3   OH242711   0.952   2.197  14.023 -0.1655 -0.0254  0.3037
 7099TIP3    H142712   0.921   2.224  13.937  1.0451  0.3448 -0.0384
 7099TIP3    H242713   0.931   2.271  14.081 -1.3637 -0.4510  0.4310
 7100TIP3   OH242714   4.407   2.068  11.259  0.7849 -0.5456  0.1684
 7100TIP3    H142715   4.434   2.027  11.342  1.9042 -0.3337 -0.0662
 7100TIP3    H242716   4.486   2.113  11.229  0.8919 -1.9887 -1.8532
 7101TIP3   OH242717   4.551   0.931  12.770 -0.5134 -0.2796  0.1298
 7101TIP3    H142718   4.479   0.954  12.711  0.8202  0.8022 -1.1552
 7101TIP3    H242719   4.612   0.883  12.714 -0.2325 -1.2167  1.2115
 7102TIP3   OH242720   4.564   0.206   3.296 -0.2512 -0.0324 -0.2833
 7102TIP3    H142721   4.546   0.298   3.279  1.4192  0.4481  0.2848
 7102TIP3    H242722   4.481   0.161   3.281 -0.7382  1.3520 -2.0095
 7103TIP3   OH242723   6.287   3.421  16.174  0.3000 -0.0008  0.1086
 7103TIP3    H142724   6.357   3.355  16.171 -0.8408 -1.3790  2.0004
 7103TIP3    H242725   6.334   3.504  16.173  1.7433 -0.5651 -4.6502
 7104TIP3   OH242726   5.425   0.919  10.329  0.3874 -0.5599 -0.0290
 7104TIP3    H142727   5.345   0.957  10.364 -0.8031 -1.9388 -1.1284
 7104TIP3    H242728   5.472   0.887  10.406 -1.0567 -1.4830  0.5073
 7105TIP3   OH242729   0.329   6.148  13.875  0.4000 -0.1918 -0.0681
 7105TIP3    H142730   0.409   6.114  13.835 -0.4946 -1.6138 -0.7300
 7105TIP3    H242731   0.353   6.236  13.906  2.0919 -0.4338 -0.5858
 7106TIP3   OH242732   2.146   1.059   2.959  0.3892  0.3748  0.2110
 7106TIP3    H142733   2.180   1.058   2.870  0.3374  1.0680  0.1810
 7106TIP3    H242734   2.078   0.991   2.959  0.0101  0.7391 -0.4320
 7107TIP3   OH242735   3.686   5.744   1.580 -0.0937  0.5235 -0.0008
 7107TIP3    H142736   3.777   5.770   1.595  0.5020 -1.5164  0.2179
 7107TIP3    H242737   3.688   5.697   1.497 -1.4070  2.3090 -1.1205
 7108TIP3   OH242738   6.848   0.447   5.683  0.0341  0.4599 -0.2509
 7108TIP3    H142739   6.802   0.530   5.696 -3.1510 -1.1757  0.0110
 7108TIP3    H242740   6.862   0.413   5.772 -1.5663 -0.6199 -0.3553
 7109TIP3   OH242741   6.036   5.653   3.633  0.0238  0.4349 -0.2344
 7109TIP3    H142742   6.014   5.686   3.721 -0.1679 -0.6611  0.1567
 7109TIP3    H242743   6.108   5.591   3.648 -2.2726 -2.5067 -0.2561
 7110TIP3   OH242744   3.680   6.744   0.216  0.4688  0.6686  0.2411
 7110TIP3    H142745   3.734   6.785   0.148  0.0015 -0.0412 -0.5911
 7110TIP3    H242746   3.668   6.654   0.185  1.3990 -0.0999  1.9642
 7111TIP3   OH242747   3.244   0.555  13.806  0.2970  0.2951  0.4919
 7111TIP3    H142748   3.240   0.499  13.883  0.7348 -0.3035  0.0852
 7111TIP3    H242749   3.152   0.577  13.788  0.1927  0.4636  1.1918
 7112TIP3   OH242750   3.687   5.089  13.942 -0.0736 -0.0669  0.4008
 7112TIP3    H142751   3.697   5.179  13.973 -1.1933  0.7195 -1.4060
 7112TIP3    H242752   3.741   5.085  13.863 -1.2771 -0.4917 -0.4221
 7113TIP3   OH242753   2.849   2.908   4.695  0.7908 -0.6311  0.0710
 7113TIP3    H142754   2.833   2.867   4.780  1.1434 -0.9357 -0.0084
 7113TIP3    H242755   2.761   2.927   4.661  0.6592  0.5709  1.0151
 7114TIP3   OH242756   3.943   2.710   3.307  0.2181  0.6209 -0.5569
 7114TIP3    H142757   3.886   2.673   3.240  0.4117  1.1918 -1.0445
 7114TIP3    H242758   3.885   2.727   3.381  0.4252 -2.4318  0.4659
 7115TIP3   OH242759   6.161   4.051  16.518 -1.5282  0.2148  0.3234
 7115TIP3    H142760   6.196   3.989  16.582 -1.9741  0.2347  0.5865
 7115TIP3    H242761   6.068   4.032  16.514 -1.7401  1.1434  0.7020
 7116TIP3   OH242762   5.912   6.166   1.652  0.3944  0.3698  0.1398
 7116TIP3    H142763   5.979   6.142   1.716  0.6830 -1.5032 -0.8034
 7116TIP3    H242764   5.931   6.111   1.576 -2.7500 -0.9377  0.1599
 7117TIP3   OH242765   6.781   3.743  16.489 -0.0582 -0.0287  0.1095
 7117TIP3    H142766   6.752   3.778  16.404 -0.4253 -1.3610 -0.3390
 7117TIP3    H242767   6.841   3.809  16.523 -2.1371  1.9577  0.1858
 7118TIP3   OH242768   0.010   2.833   0.539  0.4394 -0.1372 -0.6486
 7118TIP3    H142769   0.092   2.882   0.527  1.3777 -1.2467  0.7278
 7118TIP3    H242770   0.039   2.749   0.577 -1.2612 -0.9843 -1.1631
 7119TIP3   OH242771   4.921   5.613  16.133  0.6957  0.4119  0.2782
 7119TIP3    H142772   4.839   5.614  16.084  0.5157  0.1690  0.5794
 7119TIP3    H242773   4.938   5.705  16.152  1.3000  0.6192 -1.1350
 7120TIP3   OH242774   2.633   5.688   0.279 -0.0656  0.4693 -0.3366
 7120TIP3    H142775   2.685   5.608   0.289 -0.8656 -0.0557 -0.3283
 7120TIP3    H242776   2.698   5.758   0.274  0.6232 -0.0188  1.1399
 7121TIP3   OH242777   6.661   2.836  10.729  0.2011 -0.3443  0.4880
 7121TIP3    H142778   6.665   2.815  10.636 -1.0262  0.3215  0.2675
 7121TIP3    H242779   6.603   2.912  10.734  0.1633 -0.4420  1.7997
 7122TIP3   OH242780   2.300   1.649  12.773  0.1389 -1.1007 -0.1130
 7122TIP3    H142781   2.290   1.590  12.698  1.3407  1.0978 -2.1196
 7122TIP3    H242782   2.391   1.637  12.801  0.2462 -0.5479 -0.2201
 7123TIP3   OH242783   4.477   3.230   1.610  0.1425 -0.1366  0.4432
 7123TIP3    H142784   4.498   3.296   1.544  1.5116 -0.2066  0.7772
 7123TIP3    H242785   4.560   3.216   1.656 -0.4471 -1.1494  1.2162
 7124TIP3   OH242786   4.535   2.884   0.445 -0.5148 -0.0932 -0.1509
 7124TIP3    H142787   4.605   2.907   0.506 -1.6497  0.1574  1.1022
 7124TIP3    H242788   4.523   2.790   0.458 -2.4104  0.3490  1.9072
 7125TIP3   OH242789   0.010   6.081   2.947  0.3971 -0.6864 -0.5023
 7125TIP3    H142790   0.097   6.044   2.934  0.8258 -1.4010  3.4139
 7125TIP3    H242791  -0.015   6.056   3.035 -2.5204  2.0958 -0.3318
 7126TIP3   OH242792   0.725   2.841   4.128 -0.2298  0.4884 -0.3637
 7126TIP3    H142793   0.736   2.819   4.036  0.0316  0.1688 -0.2593
 7126TIP3    H242794   0.661   2.777   4.160 -0.8081  1.0099 -0.4752
 7127TIP3   OH242795   1.741   0.263   3.028 -0.0007 -0.0584 -0.0928
 7127TIP3    H142796   1.662   0.279   2.977 -1.3496 -1.8561  1.3457
 7127TIP3    H242797   1.803   0.225   2.965 -0.1695  1.4339 -1.2406
 7128TIP3   OH242798   6.127   3.412  11.808 -0.1649  0.5510  0.4253
 7128TIP3    H142799   6.152   3.394  11.717  0.8330  0.8951  0.6263
 7128TIP3    H242800   6.065   3.485  11.801  0.0550  0.7019  0.0324
 7129TIP3   OH242801   2.573   1.911  10.567 -0.4069  0.1323  0.1182
 7129TIP3    H142802   2.485   1.875  10.579 -0.8594  0.7551 -1.0821
 7129TIP3    H242803   2.597   1.948  10.652 -1.4726  0.2833  0.3625
 7130TIP3   OH242804   0.227   1.019  10.398 -0.3567  0.1674  0.3784
 7130TIP3    H142805   0.219   1.105  10.355  0.5382  0.4569  0.7568
 7130TIP3    H242806   0.187   0.958  10.337  0.4042  0.6431 -0.6419
 7131TIP3   OH242807   4.827   1.682   2.828  0.1001 -0.0983 -0.4482
 7131TIP3    H142808   4.751   1.628   2.848  0.9391 -1.6557 -1.2553
 7131TIP3    H242809   4.840   1.672   2.734  0.7086  0.9605 -0.4942
 7132TIP3   OH242810   3.100   3.742   2.843 -0.5320  0.2536  0.4008
 7132TIP3    H142811   3.053   3.754   2.925 -0.6137 -1.5986  0.6626
 7132TIP3    H242812   3.192   3.739   2.870 -0.3539  1.8915  0.1165
 7133TIP3   OH242813   2.806   3.645   2.075  0.0186  0.3925 -0.5086
 7133TIP3    H142814   2.829   3.552   2.085 -0.1632  0.5056  1.3508
 7133TIP3    H242815   2.744   3.646   2.002 -0.2452 -1.0130 -0.3467
 7134TIP3   OH242816   5.033   3.926   3.499 -0.4718  0.2871  0.1014
 7134TIP3    H142817   5.125   3.930   3.472 -0.5157  1.1710  0.0578
 7134TIP3    H242818   5.020   4.006   3.551 -1.2958  0.3160 -0.1423
 7135TIP3   OH242819   2.387   1.446   1.274 -0.5266 -0.3271 -0.1266
 7135TIP3    H142820   2.464   1.501   1.258 -0.6296 -0.1534 -0.0246
 7135TIP3    H242821   2.381   1.391   1.196 -0.8786  0.3424 -0.5785
 7136TIP3   OH242822   1.759   3.059   4.044 -0.0019 -0.0486  0.4415
 7136TIP3    H142823   1.666   3.079   4.038  0.4445  2.3448  0.6415
 7136TIP3    H242824   1.763   2.963   4.042 -2.3644 -0.1960 -0.7723
 7137TIP3   OH242825   3.524   1.813   1.810 -0.4440 -0.5718  0.6803
 7137TIP3    H142826   3.613   1.818   1.843 -0.6384  5.0897  1.2997
 7137TIP3    H242827   3.471   1.856   1.878 -3.2873 -1.5689 -0.7367
 7138TIP3   OH242828   5.909   2.874  11.535 -0.0305 -0.6110  0.2630
 7138TIP3    H142829   5.995   2.909  11.557 -0.2100  0.8514 -1.1795
 7138TIP3    H242830   5.857   2.950  11.510 -1.2831 -1.6209 -0.3389
 7139TIP3   OH242831   2.658   2.918  16.291  0.0365  0.1815 -0.1105
 7139TIP3    H142832   2.640   3.011  16.278 -2.8234 -0.2667  0.0188
 7139TIP3    H242833   2.636   2.901  16.382  0.2038 -0.6854 -0.2139
 7140TIP3   OH242834   2.227   4.617  12.041  0.4051 -0.0419 -0.1383
 7140TIP3    H142835   2.240   4.651  11.952 -0.9627 -0.7827 -0.6446
 7140TIP3    H242836   2.134   4.629  12.058  0.8225  0.9930  1.6054
 7141TIP3   OH242837   1.972   4.374   1.869 -0.3711  0.0971  0.3743
 7141TIP3    H142838   1.941   4.346   1.956 -0.9517  0.9916  0.4697
 7141TIP3    H242839   1.973   4.293   1.818 -2.7115 -0.0506  0.4341
 7142TIP3   OH242840   0.979   6.832  11.144  0.1667  0.5745  0.5252
 7142TIP3    H142841   1.025   6.845  11.061  0.3331 -0.1634  0.4924
 7142TIP3    H242842   1.012   6.748  11.177 -1.6675 -0.3820  0.1243
 7143TIP3   OH242843   4.684   5.013   1.110  0.1030  0.0878 -0.0692
 7143TIP3    H142844   4.751   5.061   1.159  2.0337 -2.0318 -0.4418
 7143TIP3    H242845   4.609   5.010   1.169  1.0911  0.6816  1.2834
 7144TIP3   OH242846   1.141   5.758  12.376 -0.0822 -0.0963  0.2032
 7144TIP3    H142847   1.187   5.840  12.395  1.3681 -0.7270 -0.4851
 7144TIP3    H242848   1.203   5.690  12.398 -1.2994 -1.0379  0.8240
 7145TIP3   OH242849   2.329   5.944  13.587 -0.5063  0.5827  0.4958
 7145TIP3    H142850   2.318   5.922  13.494 -1.3050  2.4793  0.0708
 7145TIP3    H242851   2.240   5.962  13.617 -0.1392  1.0213  1.3460
 7146TIP3   OH242852   6.706   0.196  10.300  0.6059  0.0688 -0.3250
 7146TIP3    H142853   6.643   0.169  10.367  1.2152  0.4672  0.4285
 7146TIP3    H242854   6.659   0.261  10.248 -0.0010 -0.5229 -0.5319
 7147TIP3   OH242855   2.300   2.692  15.206 -0.0120  0.2386  0.2837
 7147TIP3    H142856   2.385   2.730  15.186 -0.3485  0.5935 -0.5154
 7147TIP3    H242857   2.301   2.607  15.162 -0.1173  0.2991  0.1639
 7148TIP3   OH242858   3.698   3.151  14.588  0.0952 -0.5958 -0.6161
 7148TIP3    H142859   3.793   3.161  14.590  0.0994 -0.5928 -0.7719
 7148TIP3    H242860   3.672   3.189  14.504  0.2892 -3.3627 -2.0511
 7149TIP3   OH242861   1.173   5.987  14.430  0.0216 -0.3043 -0.4716
 7149TIP3    H142862   1.259   5.958  14.460 -0.6690 -0.9285  1.0156
 7149TIP3    H242863   1.114   5.916  14.455 -1.2319  0.9595  0.3142
 7150TIP3   OH242864   6.791   5.141  13.721 -0.4547  0.9728 -0.3275
 7150TIP3    H142865   6.750   5.098  13.647  0.5033  1.6095 -1.2525
 7150TIP3    H242866   6.883   5.153  13.695 -0.3620  2.2635  0.4679
 7151TIP3   OH242867   1.515   2.517   3.109  0.2606 -0.3422  0.1283
 7151TIP3    H142868   1.585   2.559   3.159  1.9583 -3.5549  0.7309
 7151TIP3    H242869   1.559   2.481   3.032 -0.8690 -1.7583  0.1067
 7152TIP3   OH242870   5.240   5.889   1.499 -0.3505 -0.1694  0.1620
 7152TIP3    H142871   5.266   5.864   1.411 -0.3132 -0.5168  0.2691
 7152TIP3    H242872   5.321   5.920   1.540 -0.7312  1.8717 -0.5460
 7153TIP3   OH242873   0.278   0.692  12.427  0.4838  0.1181 -0.3668
 7153TIP3    H142874   0.343   0.643  12.479  1.7350  1.3919 -0.6799
 7153TIP3    H242875   0.202   0.634  12.425  1.7637 -1.6818 -0.4131
 7154TIP3   OH242876   3.296   5.580   9.836 -0.0159  0.2841 -0.3538
 7154TIP3    H142877   3.301   5.665   9.879 -0.5494  0.3364 -0.3915
 7154TIP3    H242878   3.350   5.523   9.890  1.3109  0.9078 -0.9786
 7155TIP3   OH242879   6.274   2.804   9.641 -0.2048  0.1435  0.0313
 7155TIP3    H142880   6.339   2.762   9.584  0.5256 -1.2575  1.8076
 7155TIP3    H242881   6.324   2.838   9.715 -1.3034  0.5499  0.6204
 7156TIP3   OH242882   0.121   6.604   3.153  0.4836 -0.4151 -0.1489
 7156TIP3    H142883   0.099   6.513   3.130 -1.3030 -0.1483  0.3192
 7156TIP3    H242884   0.146   6.600   3.245  0.7402 -0.4711 -0.2194
 7157TIP3   OH242885   0.673   3.583  11.605 -0.1720 -0.1946 -0.1726
 7157TIP3    H142886   0.662   3.510  11.544 -1.7746 -0.7478  0.6839
 7157TIP3    H242887   0.705   3.541  11.686  0.4495  0.2959 -0.1603
 7158TIP3   OH242888   0.204   6.179   1.811  0.3067  0.9257  0.0342
 7158TIP3    H142889   0.180   6.091   1.840 -0.2096  0.6327 -1.1980
 7158TIP3    H242890   0.122   6.218   1.782  0.7031  1.4040 -0.4681
 7159TIP3   OH242891   2.407   6.685   1.826 -0.5877 -0.4414  0.0849
 7159TIP3    H142892   2.430   6.656   1.738 -0.0381  2.0042 -0.6553
 7159TIP3    H242893   2.429   6.778   1.828  0.1552 -0.5552  3.0716
 7160TIP3   OH242894   3.120   5.717   4.694  0.2340  0.2332 -0.6359
 7160TIP3    H142895   3.144   5.695   4.784 -1.1642 -0.3045 -0.3574
 7160TIP3    H242896   3.035   5.760   4.702 -1.0331 -1.8942 -1.8291
 7161TIP3   OH242897   6.880   2.928  11.376  0.8095  0.0980  0.1269
 7161TIP3    H142898   6.828   2.931  11.296  2.3938  2.0380 -0.9231
 7161TIP3    H242899   6.948   2.862  11.358  1.0006  0.3340 -0.0165
 7162TIP3   OH242900   1.404   6.765  15.980  0.6498 -0.9754  0.5980
 7162TIP3    H142901   1.324   6.729  16.018  0.9628 -2.0109  0.3076
 7162TIP3    H242902   1.452   6.803  16.054 -1.6073  2.8088  0.3960
 7163TIP3   OH242903   3.485   3.551   2.942  0.0533 -0.7812  0.1006
 7163TIP3    H142904   3.493   3.457   2.930  1.3931 -0.8176  1.0517
 7163TIP3    H242905   3.418   3.578   2.879  0.8026 -2.1203 -1.3325
 7164TIP3   OH242906   5.602   1.096  11.497 -0.1264  0.7520 -0.2967
 7164TIP3    H142907   5.657   1.020  11.519 -1.9372 -0.3443  0.7477
 7164TIP3    H242908   5.616   1.109  11.403 -0.5759 -1.6309 -0.7698
 7165TIP3   OH242909   0.198   2.261  16.002  0.3551  0.3249  0.1219
 7165TIP3    H142910   0.200   2.182  16.057  0.4711  1.5042  1.9029
 7165TIP3    H242911   0.183   2.228  15.914  2.4917 -1.8775  0.4562
 7166TIP3   OH242912   5.614   1.818   2.448 -0.5858 -0.4893  0.6249
 7166TIP3    H142913   5.540   1.762   2.469  1.3210 -3.0159  1.1257
 7166TIP3    H242914   5.602   1.842   2.356 -1.3601 -1.9213  0.3294
 7167TIP3   OH242915   1.757   5.009   0.304 -0.1803 -0.0082  0.8564
 7167TIP3    H142916   1.829   4.957   0.267  0.3075  0.7702  0.6924
 7167TIP3    H242917   1.719   5.054   0.229 -1.4242 -1.0848  0.8074
 7168TIP3   OH242918   4.368   3.641  13.869  0.4337 -0.1759 -0.0583
 7168TIP3    H142919   4.278   3.609  13.876 -0.2764  1.6538 -0.1168
 7168TIP3    H242920   4.411   3.582  13.807 -0.4635 -1.5944  0.6282
 7169TIP3   OH242921   0.137   0.540   5.245 -0.0800  0.4659 -0.6176
 7169TIP3    H142922   0.097   0.619   5.282 -0.9870 -0.3148  0.1396
 7169TIP3    H242923   0.161   0.488   5.321  1.4745  0.4494 -1.0904
 7170TIP3   OH242924   2.926   0.713   3.809  0.1433 -0.1986  0.0963
 7170TIP3    H142925   2.865   0.654   3.852 -0.2259  0.5036  0.5576
 7170TIP3    H242926   2.993   0.655   3.771 -0.6980 -0.9565 -0.2597
 7171TIP3   OH242927   0.006   1.862  13.833  0.1610 -0.4526 -0.2009
 7171TIP3    H142928  -0.064   1.808  13.870 -1.2271  1.0581 -0.4956
 7171TIP3    H242929   0.044   1.808  13.764  0.2001 -1.8183  0.8377
 7172TIP3   OH242930   6.464   6.643   2.336  0.2619 -0.1088  0.6033
 7172TIP3    H142931   6.457   6.598   2.252  0.2320  0.7450  0.1327
 7172TIP3    H242932   6.396   6.603   2.391 -0.8538  0.4496 -0.3228
 7173TIP3   OH242933   1.585   6.272   1.319 -0.4579 -0.1772 -0.2164
 7173TIP3    H142934   1.509   6.329   1.329 -0.5068 -0.3534  0.4532
 7173TIP3    H242935   1.639   6.315   1.253 -0.9410  0.1578 -0.3979
 7174TIP3   OH242936   4.705   0.001   0.653  0.0242  0.0587 -0.1959
 7174TIP3    H142937   4.671  -0.060   0.718 -0.4094 -0.4495 -0.8898
 7174TIP3    H242938   4.635   0.065   0.640 -0.4077 -0.5860 -1.1090
 7175TIP3   OH242939   5.455   0.868  14.533 -0.4769 -0.1994 -0.4573
 7175TIP3    H142940   5.467   0.883  14.627  0.4974  0.0036 -0.6042
 7175TIP3    H242941   5.458   0.773  14.524  2.5434 -0.1853 -0.6239
 7176TIP3   OH242942   6.837   2.407  14.256  0.3654  0.0162  0.0406
 7176TIP3    H142943   6.840   2.393  14.350  1.2204  0.7144  0.1238
 7176TIP3    H242944   6.904   2.349  14.220 -1.2464 -1.7084 -0.3560
 7177TIP3   OH242945   6.506   0.709   1.142  0.1788  0.0098  0.3273
 7177TIP3    H142946   6.561   0.734   1.217  0.4947  1.2129 -0.2857
 7177TIP3    H242947   6.547   0.629   1.108 -0.0376 -0.6221  1.4950
 7178TIP3   OH242948   0.552   5.455  14.864 -0.6115  0.5148 -0.1448
 7178TIP3    H142949   0.511   5.429  14.946 -0.2669  0.2715 -0.0454
 7178TIP3    H242950   0.630   5.503  14.891  0.7574 -1.5109 -0.2855
 7179TIP3   OH242951   2.965   5.022  11.400 -0.2814  0.0843  0.0312
 7179TIP3    H142952   2.977   5.091  11.334  0.0538 -0.7503 -0.7951
 7179TIP3    H242953   3.045   4.969  11.394 -0.4138 -0.2146  0.8567
 7180TIP3   OH242954   6.238   0.697  11.028  0.3461 -0.3904  0.4023
 7180TIP3    H142955   6.161   0.697  11.084 -0.3122 -1.0460 -0.4797
 7180TIP3    H242956   6.205   0.677  10.940  1.3558  0.5907 -0.2313
 7181TIP3   OH242957   1.583   6.270  10.747 -0.3005  0.5952 -0.4522
 7181TIP3    H142958   1.561   6.336  10.682  1.1945 -0.2552 -1.8883
 7181TIP3    H242959   1.679   6.273  10.754 -0.2646 -0.8186  0.0905
 7182TIP3   OH242960   4.076   6.119   4.527  0.0141 -0.3940 -0.2311
 7182TIP3    H142961   4.016   6.057   4.486  0.8157 -1.5109  0.2417
 7182TIP3    H242962   4.155   6.114   4.474 -0.6037  1.8735 -1.5167
 7183TIP3   OH242963   4.291   6.302  11.094  0.0714 -0.2874 -0.5300
 7183TIP3    H142964   4.346   6.342  11.162  1.9207  0.2949 -2.2568
 7183TIP3    H242965   4.353   6.278  11.025 -1.5827 -1.9411 -1.5342
 7184TIP3   OH242966   0.123   6.510  13.103 -0.3687 -0.0750 -0.0771
 7184TIP3    H142967   0.051   6.561  13.138 -0.4098  1.0021 -1.6486
 7184TIP3    H242968   0.081   6.443  13.049 -0.2363 -0.5898  0.4424
 7185TIP3   OH242969   4.274   4.049  15.541 -0.0096 -0.4404  0.4196
 7185TIP3    H142970   4.193   4.000  15.523  0.2281 -0.5447 -0.4117
 7185TIP3    H242971   4.246   4.121  15.597 -1.4880  2.0265 -3.1463
 7186TIP3   OH242972   4.642   0.781  12.272  0.5287  0.0359  0.1358
 7186TIP3    H142973   4.643   0.685  12.274  0.3478  0.0380  2.2135
 7186TIP3    H242974   4.733   0.806  12.287  0.3993  0.1747  0.7210
 7187TIP3   OH242975   6.168   5.984  15.139  0.1745 -0.4863  0.0461
 7187TIP3    H142976   6.156   6.016  15.228  1.0579 -2.6331  0.9973
 7187TIP3    H242977   6.235   6.042  15.102 -0.3947  0.5924  0.6517
 7188TIP3   OH242978   5.311   2.404   3.727  0.4270  0.5103  0.0730
 7188TIP3    H142979   5.337   2.485   3.684  0.0909  1.0517  0.8428
 7188TIP3    H242980   5.385   2.344   3.716  0.4431  0.7238 -1.0022
 7189TIP3   OH242981   0.738   0.816  16.221  0.2923  0.1937  0.4086
 7189TIP3    H142982   0.794   0.850  16.291  2.2382  1.0670 -1.4780
 7189TIP3    H242983   0.654   0.859  16.236  0.8082  0.7762  1.8809
 7190TIP3   OH242984   0.574   5.515   3.772 -0.0162  0.4919  0.5904
 7190TIP3    H142985   0.573   5.422   3.748 -0.1031  0.0898  2.0604
 7190TIP3    H242986   0.615   5.518   3.858 -3.1597  1.3567  2.2349
 7191TIP3   OH242987   5.958   2.475   5.337  0.1639 -0.3192  0.5799
 7191TIP3    H142988   5.968   2.477   5.433  0.2695  0.1131  0.5633
 7191TIP3    H242989   5.869   2.506   5.321 -0.5033 -2.1085  0.6184
 7192TIP3   OH242990   4.032   1.437   6.203  0.8862 -0.5281  0.0669
 7192TIP3    H142991   3.999   1.377   6.136 -1.1924  1.5431 -0.9082
 7192TIP3    H242992   4.097   1.491   6.156 -1.0574  1.3750 -0.6079
 7193TIP3   OH242993   2.364   0.015  13.480  0.5752  0.0774 -0.1166
 7193TIP3    H142994   2.438   0.041  13.425  0.8748 -0.8270 -0.1681
 7193TIP3    H242995   2.381   0.055  13.565  3.0709 -2.9580  0.9990
 7194TIP3   OH242996   2.197   1.864   2.015  0.6566  0.0075  0.3268
 7194TIP3    H142997   2.115   1.901   2.048  0.1467 -0.0931 -0.7681
 7194TIP3    H242998   2.255   1.939   2.004  0.5138  0.1535  0.5545
 7195TIP3   OH242999   4.286   2.542  13.754 -0.5682 -0.0505  0.5260
 7195TIP3    H143000   4.358   2.481  13.770 -1.3926 -0.7879  1.5749
 7195TIP3    H243001   4.304   2.578  13.667  0.2745 -1.3293  0.1376
 7196TIP3   OH243002   2.492   3.665  14.695 -0.0912  0.0620 -0.0023
 7196TIP3    H143003   2.547   3.611  14.751 -2.2681 -0.5306  1.7509
 7196TIP3    H243004   2.513   3.637  14.606  1.2254 -1.2846  0.6872
 7197TIP3   OH243005   6.276   2.209   1.559 -0.2596  0.1047 -0.0971
 7197TIP3    H143006   6.208   2.202   1.626  0.4874  0.2589  0.6866
 7197TIP3    H243007   6.350   2.248   1.603  0.4926 -0.4341 -0.8404
 7198TIP3   OH243008   6.652   5.639   2.672 -0.3841  0.1589 -0.2347
 7198TIP3    H143009   6.717   5.594   2.726 -1.8323 -0.0700  1.4290
 7198TIP3    H243010   6.697   5.716   2.638  0.7310  0.0436  0.9073
 7199TIP3   OH243011   4.483   0.777   1.856  0.0273 -0.1255  0.1672
 7199TIP3    H143012   4.537   0.725   1.797  0.2144 -0.2857  0.4772
 7199TIP3    H243013   4.545   0.815   1.918 -0.0968  0.5230 -0.0919
 7200TIP3   OH243014   2.271   1.528  15.142 -0.5177  0.2762 -0.1020
 7200TIP3    H143015   2.182   1.545  15.174 -0.7289  1.3635 -1.1845
 7200TIP3    H243016   2.317   1.611  15.156  0.3704 -0.3125  0.5487
 7201TIP3   OH243017   5.870   2.995   1.910  0.3441 -0.1229 -0.2511
 7201TIP3    H143018   5.908   2.914   1.943  2.6972 -0.2928 -3.0547
 7201TIP3    H243019   5.919   3.065   1.954 -0.5951 -0.1903  0.9557
 7202TIP3   OH243020   1.109   3.894  11.943 -0.1656 -0.2388  0.5952
 7202TIP3    H143021   1.150   3.945  12.013 -0.6474  1.7772 -0.5067
 7202TIP3    H243022   1.138   3.937  11.863 -1.1143 -1.3345 -0.3606
 7203TIP3   OH243023   2.209   1.378  10.578 -0.4402 -0.5141  0.3904
 7203TIP3    H143024   2.225   1.471  10.596 -1.1164 -0.4703  0.8152
 7203TIP3    H243025   2.208   1.372  10.482  1.2200 -0.3831  0.3382
 7204TIP3   OH243026   5.903   6.312  15.684 -0.7624 -0.5009 -0.0865
 7204TIP3    H143027   5.990   6.346  15.662 -0.0926 -2.1698 -0.2236
 7204TIP3    H243028   5.875   6.363  15.760 -0.1061  0.7230 -0.6418
 7205TIP3   OH243029   2.548   6.523  11.217  0.3593 -0.5933 -0.0672
 7205TIP3    H143030   2.513   6.491  11.300  0.9862 -0.0322  0.4333
 7205TIP3    H243031   2.575   6.445  11.170 -0.3495 -0.9422  0.0917
 7206TIP3   OH243032   4.167   1.494  14.023 -0.2680 -0.1789  0.2489
 7206TIP3    H143033   4.184   1.402  14.043 -0.4045 -0.2406  0.0869
 7206TIP3    H243034   4.078   1.495  13.988 -0.1843 -0.0161  0.0392
 7207TIP3   OH243035   2.779   5.786  15.710 -0.1376 -0.2568 -0.1362
 7207TIP3    H143036   2.762   5.759  15.620  0.1261 -0.1800 -0.2104
 7207TIP3    H243037   2.867   5.823  15.708  1.2056 -3.1186  0.7426
 7208TIP3   OH243038   4.495   1.794  15.563  0.4428  0.2892 -0.5111
 7208TIP3    H143039   4.559   1.863  15.545  2.3329 -1.3479 -0.4340
 7208TIP3    H243040   4.491   1.743  15.483 -1.4449  0.8134 -0.8012
 7209TIP3   OH243041   6.682   3.330   2.332  0.2752 -0.3431 -0.0477
 7209TIP3    H143042   6.745   3.300   2.267 -0.5802  1.0762 -1.6313
 7209TIP3    H243043   6.606   3.273   2.319  1.0541 -1.8782  1.6766
 7210TIP3   OH243044   3.255   0.557   3.890  0.1478 -0.3666  0.4129
 7210TIP3    H143045   3.195   0.540   3.963  0.3579 -1.8195  0.2608
 7210TIP3    H243046   3.217   0.509   3.816 -1.2652  2.7964 -1.1087
 7211TIP3   OH243047   3.033   1.786   0.341  0.2882  0.2420 -0.0505
 7211TIP3    H143048   2.969   1.845   0.299  1.7477  0.4726 -2.1031
 7211TIP3    H243049   3.114   1.837   0.344  0.7618 -0.5390  1.2286
 7212TIP3   OH243050   5.291   2.593  15.350  0.1734 -0.8108  0.0032
 7212TIP3    H143051   5.365   2.539  15.323  0.1632 -0.9135  0.1763
 7212TIP3    H243052   5.316   2.682  15.327 -0.0750 -0.9566 -0.8754
 7213TIP3   OH243053   6.568   1.740   5.879 -0.0516  0.2447  0.2956
 7213TIP3    H143054   6.580   1.797   5.803 -0.3356  1.2772  1.0075
 7213TIP3    H243055   6.479   1.758   5.908  0.0357 -0.1931  0.8284
 7214TIP3   OH243056   0.899   4.857   0.486  0.1670 -0.0464 -0.2286
 7214TIP3    H143057   0.957   4.860   0.562  1.5590 -0.1493 -1.2401
 7214TIP3    H243058   0.816   4.824   0.520  0.0675  1.9268  1.6286
 7215TIP3   OH243059   5.846   3.165  14.958 -0.3891 -0.1168 -0.0270
 7215TIP3    H143060   5.911   3.225  14.994  1.2078 -0.5717 -1.9059
 7215TIP3    H243061   5.864   3.081  15.002 -0.5055  0.0329  0.3089
 7216TIP3   OH243062   3.781   5.890  11.554 -0.7493  0.3924 -0.0579
 7216TIP3    H143063   3.827   5.945  11.491  0.2776  0.1327  0.4474
 7216TIP3    H243064   3.765   5.808  11.506  0.2046  0.1220  0.0534
 7217TIP3   OH243065   3.123   4.870   4.772  0.1729  0.0674  0.1450
 7217TIP3    H143066   3.185   4.841   4.839  2.3040 -0.7185 -1.9898
 7217TIP3    H243067   3.044   4.893   4.820  2.0381  0.9930  3.0611
 7218TIP3   OH243068   1.223   3.148   4.475  0.5181  0.0595  0.4556
 7218TIP3    H143069   1.151   3.209   4.484  0.2926 -0.1133 -0.0816
 7218TIP3    H243070   1.205   3.079   4.538  0.5428  0.3280  0.7561
 7219TIP3   OH243071   6.130   0.417  12.258 -0.0717 -0.3430  0.2585
 7219TIP3    H143072   6.038   0.403  12.283 -0.5065  0.2073 -0.9597
 7219TIP3    H243073   6.128   0.425  12.163  0.9984  1.4305  0.3373
 7220TIP3   OH243074   1.716   3.917   5.580  0.2117 -0.1202 -0.3414
 7220TIP3    H143075   1.741   3.827   5.601 -2.9198 -1.4362 -1.6511
 7220TIP3    H243076   1.668   3.947   5.658  0.6978  0.2056 -0.1619
 7221TIP3   OH243077   1.707   0.450   1.651  0.5424  0.2378 -0.3891
 7221TIP3    H143078   1.680   0.440   1.742 -0.9095 -0.7577 -0.8893
 7221TIP3    H243079   1.737   0.541   1.645 -1.6842  1.0967  0.5263
 7222TIP3   OH243080   0.664   1.021   3.826  0.0527 -0.0372  0.7707
 7222TIP3    H143081   0.701   0.949   3.774  1.0078 -0.3342  1.8428
 7222TIP3    H243082   0.584   0.984   3.863  1.1941 -1.0431  2.3812
 7223TIP3   OH243083   1.961   4.710   3.098  0.6490 -0.7675 -0.6470
 7223TIP3    H143084   2.040   4.656   3.091  0.1690 -1.8509  1.3913
 7223TIP3    H243085   1.961   4.740   3.189  0.1067  1.4732 -1.3391
 7224TIP3   OH243086   5.796   2.667   3.429 -0.6295 -0.4262  0.0785
 7224TIP3    H143087   5.811   2.573   3.438  2.1438 -0.1155 -0.4318
 7224TIP3    H243088   5.840   2.706   3.504 -1.9284  0.4769  0.3979
 7225TIP3   OH243089   0.793   0.556   1.710  0.6940 -0.5086  0.3143
 7225TIP3    H143090   0.770   0.645   1.683  1.9882  0.3481  1.8551
 7225TIP3    H243091   0.861   0.528   1.648 -0.2069 -0.7247 -0.5974
 7226TIP3   OH243092   6.435   5.282   4.907 -0.2013  0.0802 -0.9018
 7226TIP3    H143093   6.434   5.228   4.986 -0.6240 -0.4477 -1.2584
 7226TIP3    H243094   6.426   5.372   4.939 -0.8367 -0.1652 -0.3777
 7227TIP3   OH243095   6.829   5.883  13.361 -0.1167  0.3034 -0.2281
 7227TIP3    H143096   6.854   5.814  13.299 -0.3647  0.4628 -0.5107
 7227TIP3    H243097   6.785   5.838  13.432  0.2914  0.1011 -0.1018
 7228TIP3   OH243098   2.505   4.209   3.979 -0.4621 -0.4452  0.0292
 7228TIP3    H143099   2.593   4.197   4.014 -0.5393  1.8869  1.2434
 7228TIP3    H243100   2.515   4.280   3.916 -1.4607 -0.1945  0.1481
 7229TIP3   OH243101   3.955   3.679   0.178 -0.3148 -0.6223 -0.5459
 7229TIP3    H143102   4.039   3.716   0.150 -0.0654 -0.0033  0.8879
 7229TIP3    H243103   3.891   3.713   0.116  0.3335 -0.1320 -0.9522
 7230TIP3   OH243104   4.275   5.346   2.619  0.2948 -0.3586  0.0709
 7230TIP3    H143105   4.296   5.301   2.537 -0.7700 -1.2974  0.2913
 7230TIP3    H243106   4.234   5.279   2.673 -1.4243  0.8900  0.3883
 7231TIP3   OH243107   4.510   4.444   1.308  0.0268 -0.7077  0.0968
 7231TIP3    H143108   4.544   4.392   1.235  1.2092  0.3469 -0.1322
 7231TIP3    H243109   4.588   4.467   1.359 -0.6865 -0.6688  1.2017
 7232TIP3   OH243110   4.816   1.299   3.013  0.6869 -0.1182 -0.1915
 7232TIP3    H143111   4.759   1.343   3.077  0.3195  0.5261 -0.9434
 7232TIP3    H243112   4.823   1.209   3.045 -0.5516 -0.1434  0.0616
 7233TIP3   OH243113   6.828   6.020  14.076 -0.2096 -0.5941  0.2534
 7233TIP3    H143114   6.818   6.115  14.068 -2.2152 -0.6967  0.8951
 7233TIP3    H243115   6.762   5.984  14.017  0.0940 -1.5719  0.4985
 7234TIP3   OH243116   2.640   4.899  13.515  0.3498 -0.2269  0.2289
 7234TIP3    H143117   2.681   4.816  13.537 -0.1337 -1.6057 -3.4382
 7234TIP3    H243118   2.706   4.946  13.465 -1.1304 -0.8653 -2.4861
 7235TIP3   OH243119   3.809   4.537  10.996  0.1560  0.0657 -0.4417
 7235TIP3    H143120   3.786   4.472  10.931 -0.4085 -0.9708  0.7629
 7235TIP3    H243121   3.753   4.612  10.976 -0.7912 -0.6424 -0.4774
 7236TIP3   OH243122   3.194   6.131  13.099  0.1201 -0.4813 -0.2206
 7236TIP3    H143123   3.147   6.074  13.159 -1.0937  0.6934 -0.0049
 7236TIP3    H243124   3.244   6.190  13.156 -1.3779  0.9250 -0.2670
 7237TIP3   OH243125   0.036   5.935   5.502  0.1160 -0.1640  0.4754
 7237TIP3    H143126  -0.011   5.892   5.573 -2.3503 -1.2638 -1.6738
 7237TIP3    H243127  -0.030   5.986   5.456  2.2444  3.1653  0.7230
 7238TIP3   OH243128   1.377   2.557   3.766 -0.2815  0.2279 -0.0403
 7238TIP3    H143129   1.291   2.566   3.809 -0.9242 -1.0351 -0.9800
 7238TIP3    H243130   1.356   2.547   3.673  0.8704 -0.3088 -0.2539
 7239TIP3   OH243131   0.896   6.890  12.600 -0.7020 -0.1833 -0.1919
 7239TIP3    H143132   0.936   6.810  12.567 -0.4456 -0.7750  1.4856
 7239TIP3    H243133   0.961   6.958  12.583 -0.3146 -0.5809 -0.3023
 7240TIP3   OH243134   4.754   0.285  13.624  0.0337  0.4735 -0.0309
 7240TIP3    H143135   4.792   0.232  13.695  0.3752 -0.7815 -1.1119
 7240TIP3    H243136   4.663   0.258  13.621  0.3045 -0.3964 -0.8579
 7241TIP3   OH243137   3.180   2.186  11.196 -0.6485  0.4444 -0.3217
 7241TIP3    H143138   3.267   2.177  11.236  0.8792  3.1214 -2.6367
 7241TIP3    H243139   3.119   2.183  11.270  1.7028  1.8749  1.8596
 7242TIP3   OH243140   6.171   3.585  10.100 -0.6009  0.2191 -0.4978
 7242TIP3    H143141   6.264   3.588  10.078 -0.6672  1.9072 -0.7335
 7242TIP3    H243142   6.158   3.659  10.159 -1.4759 -1.0444  0.9448
 7243TIP3   OH243143   3.518   5.661   3.553  0.2813  0.1986  0.1000
 7243TIP3    H143144   3.455   5.707   3.609 -0.1427  0.8631 -0.8961
 7243TIP3    H243145   3.498   5.691   3.465  0.4193 -1.4379 -0.5239
 7244TIP3   OH243146   2.702   4.426   2.583  0.1201  0.2429  0.1330
 7244TIP3    H143147   2.689   4.502   2.525 -0.5137 -0.5283 -0.7627
 7244TIP3    H243148   2.619   4.416   2.629 -0.6040 -1.1987 -1.3669
 7245TIP3   OH243149   1.625   4.441  11.962 -0.1929 -0.1602  0.1529
 7245TIP3    H143150   1.652   4.362  12.008  2.0329 -0.6279 -1.7474
 7245TIP3    H243151   1.624   4.416  11.870 -0.6274  1.7314 -0.3990
 7246TIP3   OH243152   3.418   2.321  14.384 -0.0321  0.2771  0.5406
 7246TIP3    H143153   3.410   2.226  14.376 -0.1142  0.2772  0.6152
 7246TIP3    H243154   3.485   2.345  14.320 -0.8995  0.3149 -0.3879
 7247TIP3   OH243155   0.208   4.538  11.267 -0.4217  0.0922  0.2039
 7247TIP3    H143156   0.287   4.593  11.272 -0.8088  0.7193 -0.4197
 7247TIP3    H243157   0.215   4.480  11.343  0.3432  0.5466  0.4970
 7248TIP3   OH243158   5.632   6.133   4.471  0.3622 -0.0488  0.7100
 7248TIP3    H143159   5.552   6.081   4.482  0.7025 -0.3285  2.1111
 7248TIP3    H243160   5.602   6.224   4.472 -0.3170 -0.1134 -2.4049
 7249TIP3   OH243161   6.525   3.347   0.632  0.0288 -0.3486  0.1458
 7249TIP3    H143162   6.588   3.358   0.560 -0.8174  0.1809 -0.5270
 7249TIP3    H243163   6.493   3.436   0.649 -1.0605 -0.7029 -0.0066
 7250TIP3   OH243164   3.077   3.936  14.960  0.8257 -0.0165 -0.1485
 7250TIP3    H143165   3.084   4.029  14.981  2.1164  0.3586 -2.0277
 7250TIP3    H243166   3.038   3.934  14.873  1.5256 -1.2139 -0.4482
 7251TIP3   OH243167   4.896   2.616  13.491  0.2258 -0.2554 -0.0387
 7251TIP3    H143168   4.867   2.683  13.553 -0.8645 -0.1939 -0.5855
 7251TIP3    H243169   4.867   2.533  13.529  0.7069 -0.3320  0.1628
 7252TIP3   OH243170   1.907   2.689  14.014 -0.2472  0.2090 -0.5139
 7252TIP3    H143171   1.981   2.734  13.973  1.0661 -1.3199  0.1046
 7252TIP3    H243172   1.837   2.695  13.948  0.2043  2.1590 -0.8882
 7253TIP3   OH243173   3.617   5.742  16.187 -0.0417  0.5191  0.1782
 7253TIP3    H143174   3.593   5.738  16.280 -2.8246  0.2338 -0.4693
 7253TIP3    H243175   3.661   5.659  16.170  1.0370  0.8135  1.3193
 7254TIP3   OH243176   3.934   0.359   1.295  0.5378 -0.9638 -0.2739
 7254TIP3    H143177   3.853   0.368   1.346  1.9811 -0.9939  2.1530
 7254TIP3    H243178   3.907   0.377   1.204 -2.4812 -2.5895  0.1814
 7255TIP3   OH243179   0.259   1.735  13.402  0.3126 -0.0737  0.4722
 7255TIP3    H143180   0.170   1.701  13.396 -0.3149  1.1324  2.3121
 7255TIP3    H243181   0.314   1.656  13.400 -0.7399 -0.8334 -0.8320
 7256TIP3   OH243182   6.443   6.265   0.143 -0.0911  0.2563  0.0871
 7256TIP3    H143183   6.405   6.322   0.077  1.3388 -1.1159 -2.0431
 7256TIP3    H243184   6.369   6.216   0.178 -0.9602  1.4457 -0.0106
 7257TIP3   OH243185   2.335   1.110   4.949 -0.2505 -0.3128  0.2287
 7257TIP3    H143186   2.387   1.181   4.911 -0.6476 -0.1130  0.0487
 7257TIP3    H243187   2.341   1.123   5.043 -2.2129  1.3927  0.2071
 7258TIP3   OH243188   3.624   3.599   4.701 -0.0854 -0.5581  0.0853
 7258TIP3    H143189   3.612   3.515   4.745 -1.8074 -0.7706 -0.7082
 7258TIP3    H243190   3.605   3.664   4.768 -0.2560 -0.8397  0.3122
 7259TIP3   OH243191   1.321   1.365  13.616 -0.0748 -0.5335  0.4978
 7259TIP3    H143192   1.323   1.270  13.632  1.2693 -0.2484  2.4649
 7259TIP3    H243193   1.397   1.381  13.560  0.1074 -0.5404  0.7413
 7260TIP3   OH243194   2.779   6.619  10.979 -0.3827 -0.4672 -0.3776
 7260TIP3    H143195   2.785   6.558  10.905  1.3753  0.0115 -0.6656
 7260TIP3    H243196   2.695   6.664  10.966 -1.3264 -2.2103 -0.6199
 7261TIP3   OH243197   4.563   3.918  16.566  0.0237 -0.8232  0.3637
 7261TIP3    H143198   4.630   3.982  16.544  0.0691 -1.0207 -0.0854
 7261TIP3    H243199   4.481   3.968  16.565  0.2615 -0.3416  1.9770
 7262TIP3   OH243200   1.674   0.999  15.735  0.1688 -0.5188 -0.0495
 7262TIP3    H143201   1.635   0.912  15.748 -0.9680  0.1779  1.5606
 7262TIP3    H243202   1.600   1.056  15.718  1.0375 -0.0760 -2.8463
 7263TIP3   OH243203   5.144   1.094   4.557  0.7286  0.2857 -0.2789
 7263TIP3    H143204   5.094   1.032   4.504 -1.2934  1.8035 -0.2990
 7263TIP3    H243205   5.083   1.166   4.572  2.5466  1.6762  0.8328
 7264TIP3   OH243206   0.404   3.415   0.049  0.2952  0.7226  0.1908
 7264TIP3    H143207   0.416   3.323   0.074 -0.2557  0.7276  0.4951
 7264TIP3    H243208   0.373   3.457   0.129  0.8516  1.2414  0.1373
 7265TIP3   OH243209   1.364   0.243  13.748  0.7894 -0.0454 -0.1072
 7265TIP3    H143210   1.454   0.252  13.779  0.5037 -0.5909  0.9133
 7265TIP3    H243211   1.352   0.149  13.736 -0.8148 -0.4522  3.5343
 7266TIP3   OH243212   0.250   6.314   1.199 -0.1023  0.2754 -0.0744
 7266TIP3    H143213   0.276   6.378   1.265 -4.2252 -1.2131  3.5076
 7266TIP3    H243214   0.304   6.237   1.218  1.9642  1.2340 -1.6833
 7267TIP3   OH243215   4.085   5.838  16.562  0.1785  0.0654 -0.3080
 7267TIP3    H143216   4.006   5.828  16.615  0.8832  0.0449  0.7738
 7267TIP3    H243217   4.053   5.855  16.473 -1.0292 -0.4607  0.0124
 7268TIP3   OH243218   5.806   2.046  12.276  0.4453 -0.7120  0.4569
 7268TIP3    H143219   5.720   2.082  12.297  0.0260 -0.4791 -1.4496
 7268TIP3    H243220   5.798   2.017  12.185  2.3876 -0.6835  0.2381
 7269TIP3   OH243221   0.287   3.148   2.686 -0.3058 -0.4268  0.4186
 7269TIP3    H143222   0.301   3.196   2.605  2.0369 -0.5042  0.7103
 7269TIP3    H243223   0.374   3.144   2.727 -1.5180  0.2659  3.3111
 7270TIP3   OH243224   2.593   2.027   0.892  0.1752 -0.5854  0.2939
 7270TIP3    H143225   2.525   2.090   0.868  0.6757 -0.6130 -1.2996
 7270TIP3    H243226   2.631   2.063   0.972 -0.0866  0.7299 -0.1478
 7271TIP3   OH243227   4.089   5.867   3.872 -0.4495  0.2174 -0.0420
 7271TIP3    H143228   4.127   5.898   3.790  0.2446  0.5237  0.3885
 7271TIP3    H243229   4.160   5.819   3.914 -0.5886  0.6453  0.6967
 7272TIP3   OH243230   1.269   2.546   2.763 -0.0783  0.4981 -0.0661
 7272TIP3    H143231   1.215   2.621   2.787 -0.6300  0.8637 -2.2390
 7272TIP3    H243232   1.242   2.476   2.822 -2.3845  0.8921 -0.5815
 7273TIP3   OH243233   6.086   5.926   0.574  0.2983  0.1264 -0.3008
 7273TIP3    H143234   6.057   6.013   0.547 -0.9547 -0.5926 -1.3636
 7273TIP3    H243235   6.095   5.877   0.493  1.2454 -0.6747  0.2657
 7274TIP3   OH243236   6.571   4.922  15.784  0.0705  0.2413  0.2629
 7274TIP3    H143237   6.484   4.957  15.802 -1.0520 -2.7139  1.1432
 7274TIP3    H243238   6.612   4.915  15.870 -0.0388 -1.2381  0.2138
 7275TIP3   OH243239   5.796   4.066   6.379  0.1387 -0.6668 -0.5980
 7275TIP3    H143240   5.754   3.986   6.347 -0.7807 -0.3885 -0.1310
 7275TIP3    H243241   5.826   4.043   6.467  1.2870 -0.9661 -1.0585
 7276TIP3   OH243242   3.429   2.312   3.605 -0.2458  0.7380 -0.5102
 7276TIP3    H143243   3.461   2.347   3.688 -0.1993  0.4062 -0.3870
 7276TIP3    H243244   3.345   2.270   3.627 -1.1690  2.2779 -0.9647
 7277TIP3   OH243245   3.741   2.660   0.440  0.3149 -0.3504 -0.3118
 7277TIP3    H143246   3.768   2.607   0.515  0.1007 -0.0205  0.0026
 7277TIP3    H243247   3.813   2.653   0.378  1.2023  0.6402  0.5780
 7278TIP3   OH243248   1.459   4.469   1.385  0.1105 -0.1061 -0.4895
 7278TIP3    H143249   1.482   4.427   1.302  0.5512  0.4020 -0.6280
 7278TIP3    H243250   1.480   4.403   1.451 -0.1271 -0.4680 -0.7679
 7279TIP3   OH243251   5.051   3.147  12.781 -0.5444 -0.0524  0.2938
 7279TIP3    H143252   5.009   3.157  12.866 -1.8715  1.7360 -0.5059
 7279TIP3    H243253   5.072   3.054  12.775 -0.9037 -0.3067  2.3320
 7280TIP3   OH243254   2.482   1.774   1.917 -0.0563  0.2350 -0.0008
 7280TIP3    H143255   2.565   1.818   1.905  0.1524 -0.4346 -1.2411
 7280TIP3    H243256   2.417   1.835   1.883 -0.2922  1.3947  2.3303
 7281TIP3   OH243257   6.870   0.542  11.809 -0.1884 -0.3399 -0.3554
 7281TIP3    H143258   6.840   0.562  11.898 -0.3478  0.4001 -0.5663
 7281TIP3    H243259   6.945   0.485  11.821  0.8718  1.1297  0.3241
 7282TIP3   OH243260   3.221   2.818  16.059  0.4616  0.0515 -0.2850
 7282TIP3    H143261   3.187   2.729  16.045  0.5964  0.1768 -1.4792
 7282TIP3    H243262   3.147   2.875  16.040  0.1825  0.2063  1.1075
 7283TIP3   OH243263   1.668   4.553   5.482  0.1888 -0.1068 -0.2895
 7283TIP3    H143264   1.683   4.564   5.576  0.5619 -1.0744 -0.2234
 7283TIP3    H243265   1.574   4.538   5.475  0.0597  0.5757 -0.1439
 7284TIP3   OH243266   5.168   0.553  12.139 -0.1764  0.0719 -0.2078
 7284TIP3    H143267   5.086   0.599  12.158  0.2534 -0.6480  4.6999
 7284TIP3    H243268   5.172   0.484  12.205  4.4161  0.1463 -0.1372
 7285TIP3   OH243269   0.719   1.474  11.934  0.0776 -0.2107  0.4489
 7285TIP3    H143270   0.641   1.432  11.898  1.7887 -3.2500 -0.1168
 7285TIP3    H243271   0.760   1.517  11.859  0.1587 -0.7314  0.1857
 7286TIP3   OH243272   6.599   0.729  14.845 -0.0400  0.2140 -0.3312
 7286TIP3    H143273   6.548   0.799  14.888 -2.0233 -0.8170 -0.8716
 7286TIP3    H243274   6.644   0.774  14.773 -1.6880  0.9234 -0.9915
 7287TIP3   OH243275   4.892   1.774  12.329 -0.2793  0.4322 -0.0137
 7287TIP3    H143276   4.849   1.786  12.244 -0.6585 -2.2244 -0.2579
 7287TIP3    H243277   4.939   1.856  12.342 -0.5497  1.1088 -2.5810
 7288TIP3   OH243278   6.598   5.516  13.582  0.2793  0.5225  0.1819
 7288TIP3    H143279   6.662   5.455  13.547 -0.1988  0.3164 -0.3552
 7288TIP3    H243280   6.538   5.533  13.509 -1.1755 -0.4941  1.0946
 7289TIP3   OH243281   1.584   2.953   1.653 -0.1106  0.0461  0.0550
 7289TIP3    H143282   1.559   3.041   1.681 -0.3590  0.2360 -0.7315
 7289TIP3    H243283   1.561   2.896   1.727 -0.6495  0.5395  0.2732
 7290TIP3   OH243284   5.932   4.231   0.071 -0.3973  0.4808  0.0129
 7290TIP3    H143285   5.872   4.304   0.084  0.9323  1.6394 -0.0277
 7290TIP3    H243286   6.000   4.267   0.013  0.4787 -0.6727  0.2996
 7291TIP3   OH243287   6.323   5.667  15.130 -1.0983  0.6221  0.1826
 7291TIP3    H143288   6.327   5.761  15.146 -0.1608  0.7517 -0.6960
 7291TIP3    H243289   6.284   5.631  15.210  2.3020  1.3216  2.4134
 7292TIP3   OH243290   3.338   3.644   1.299  0.0078 -0.5116  0.5169
 7292TIP3    H143291   3.371   3.555   1.307 -0.4255 -0.7782 -0.5924
 7292TIP3    H243292   3.245   3.638   1.323 -0.4169 -0.6665 -1.0800
 7293TIP3   OH243293   6.524   2.155  11.606 -0.3012 -0.3547  0.4396
 7293TIP3    H143294   6.537   2.161  11.512 -0.2618 -1.1484  0.3908
 7293TIP3    H243295   6.510   2.246  11.634 -0.9414 -0.1759 -0.4208
 7294TIP3   OH243296   3.369   1.185   0.374 -0.2981 -0.5011 -0.7937
 7294TIP3    H143297   3.423   1.207   0.450  1.0457 -2.3445 -1.1435
 7294TIP3    H243298   3.321   1.265   0.355  2.0157  1.1269 -0.2053
 7295TIP3   OH243299   4.355   3.290  15.324 -0.3977 -0.0323  0.3826
 7295TIP3    H143300   4.385   3.378  15.299 -0.1910  0.2252  1.5089
 7295TIP3    H243301   4.320   3.254  15.243  0.0392  0.8734 -0.2311
 7296TIP3   OH243302   2.293   5.262   5.324 -0.0902  0.2890 -0.2971
 7296TIP3    H143303   2.312   5.207   5.400  0.7466  1.5963  0.4944
 7296TIP3    H243304   2.240   5.207   5.267 -0.4941 -0.8337  1.0983
 7297TIP3   OH243305   2.326   4.944  11.306  0.0178 -0.3153 -0.1761
 7297TIP3    H143306   2.255   4.900  11.352  1.1378 -0.8772  1.0892
 7297TIP3    H243307   2.284   5.018  11.263 -1.5482 -1.4041 -0.6066
 7298TIP3   OH243308   5.296   1.466  13.164 -0.1910  0.5192  0.0783
 7298TIP3    H143309   5.299   1.431  13.253 -2.2913 -0.8613 -0.3199
 7298TIP3    H243310   5.240   1.405  13.116 -1.8094  2.9542 -1.3758
 7299TIP3   OH243311   5.961   6.631   1.538 -0.1251  0.6495  0.3005
 7299TIP3    H143312   5.922   6.669   1.617 -1.0124 -0.3563  0.3719
 7299TIP3    H243313   5.934   6.690   1.468 -3.8634 -1.1401 -0.0220
 7300TIP3   OH243314   5.273   6.135   5.444  0.4081 -0.1655  0.0013
 7300TIP3    H143315   5.304   6.109   5.530  2.5760  1.5733 -0.1588
 7300TIP3    H243316   5.348   6.121   5.386 -0.1060  1.2130 -1.0643
 7301TIP3   OH243317   3.726   4.538  11.973  0.0833 -0.1468 -0.2676
 7301TIP3    H143318   3.782   4.462  11.988  1.5343  0.6352 -1.4391
 7301TIP3    H243319   3.728   4.585  12.056  0.4024 -0.6296  0.0054
 7302TIP3   OH243320   1.222   3.134   5.192  0.1231  0.2929 -0.3359
 7302TIP3    H143321   1.178   3.069   5.248  1.4329 -2.0007 -1.8043
 7302TIP3    H243322   1.269   3.081   5.127 -1.5556  2.7520 -3.8757
 7303TIP3   OH243323   0.255   5.361   3.832  0.3059 -0.6072 -0.5436
 7303TIP3    H143324   0.240   5.266   3.828 -0.5046 -0.4613 -1.2952
 7303TIP3    H243325   0.246   5.382   3.925 -0.5588 -1.1241 -0.4960
 7304TIP3   OH243326   0.364   2.020   3.722 -0.7910  0.0310  0.1683
 7304TIP3    H143327   0.274   2.052   3.727 -1.2363 -1.0326 -0.7487
 7304TIP3    H243328   0.361   1.935   3.766 -0.9530 -1.4335 -2.5157
 7305TIP3   OH243329   0.475   2.911   3.431  0.2013  0.1470  0.3773
 7305TIP3    H143330   0.493   2.978   3.365 -0.4631 -0.5651 -0.5561
 7305TIP3    H243331   0.395   2.868   3.400  1.1054 -1.6845  0.4629
 7306TIP3   OH243332   5.489   0.354  12.851 -0.4907 -0.5047 -0.0098
 7306TIP3    H143333   5.567   0.409  12.840 -0.8756  0.3634  1.3118
 7306TIP3    H243334   5.459   0.337  12.762 -0.3229  1.3898 -0.4784
 7307TIP3   OH243335   4.526   1.659   4.665  0.2687 -0.3753  0.0048
 7307TIP3    H143336   4.466   1.613   4.607  0.9179  0.0172 -1.0026
 7307TIP3    H243337   4.496   1.750   4.662  1.2552 -0.0512 -1.0100
 7308TIP3   OH243338   4.094   0.721   4.894 -0.0327  0.5395  0.4458
 7308TIP3    H143339   4.028   0.735   4.962  0.7867  0.9013  1.1730
 7308TIP3    H243340   4.158   0.663   4.934  0.7439  1.1951  0.1801
 7309TIP3   OH243341   5.761   2.783   2.504  0.4910  0.0766 -0.7386
 7309TIP3    H143342   5.734   2.867   2.540  1.1082  0.9290 -2.1426
 7309TIP3    H243343   5.703   2.719   2.544 -0.1046  1.1974  0.2330
 7310TIP3   OH243344   4.162   0.959  12.584  0.2845 -0.1397  0.1583
 7310TIP3    H143345   4.081   0.932  12.541  0.7728  0.9893 -1.6195
 7310TIP3    H243346   4.231   0.936  12.521  1.4004 -1.3868  1.7747
 7311TIP3   OH243347   5.569   0.706  14.163  0.4800  0.2256  0.4519
 7311TIP3    H143348   5.552   0.615  14.190 -1.3676  0.8880  1.7355
 7311TIP3    H243349   5.575   0.702  14.068  0.8132 -1.2949  0.5059
 7312TIP3   OH243350   5.626   0.191   3.858 -0.1490 -0.0124 -0.0183
 7312TIP3    H143351   5.594   0.229   3.940 -0.2911 -1.1477  0.4628
 7312TIP3    H243352   5.718   0.171   3.875  0.3433  1.4262 -0.7601
 7313TIP3   OH243353   3.072   2.946  14.381 -0.2833 -0.3880  0.0348
 7313TIP3    H143354   3.099   2.938  14.289  2.8872  1.0906  0.7253
 7313TIP3    H243355   3.141   2.904  14.431 -0.9152  0.5986  1.8434
 7314TIP3   OH243356   3.997   1.123  15.970  0.0205 -0.3248  0.0629
 7314TIP3    H143357   4.032   1.034  15.974  0.4666 -0.1050  1.9783
 7314TIP3    H243358   4.011   1.150  15.879  0.9781 -1.7513 -0.2526
 7315TIP3   OH243359   4.906   2.489   2.587  0.1840 -0.4686 -0.3147
 7315TIP3    H143360   4.944   2.406   2.559  1.3886  0.2911 -1.0327
 7315TIP3    H243361   4.840   2.508   2.521  0.6009 -0.3792 -0.7113
 7316TIP3   OH243362   2.210   6.714   1.495  0.5002 -0.5685 -0.2029
 7316TIP3    H143363   2.178   6.731   1.407 -0.0226  0.6757  0.1991
 7316TIP3    H243364   2.160   6.637   1.524 -0.7008  0.1301 -0.3265
 7317TIP3   OH243365   1.224   3.867   1.450 -0.1542  0.6893  0.0473
 7317TIP3    H143366   1.129   3.868   1.439 -0.3192 -0.3750  1.1085
 7317TIP3    H243367   1.258   3.918   1.377 -1.5365  0.9518 -0.4331
 7318TIP3   OH243368   0.242   4.787   3.961  0.3876  0.1088 -0.3064
 7318TIP3    H143369   0.294   4.707   3.957 -0.5642 -0.5769  0.6507
 7318TIP3    H243370   0.227   4.802   4.054 -2.1230 -0.4058 -0.5571
 7319TIP3   OH243371   3.260   5.147   3.675  0.6016  0.4036 -0.0066
 7319TIP3    H143372   3.215   5.161   3.591  2.4458  0.5031 -1.0281
 7319TIP3    H243373   3.259   5.232   3.717  0.9558  0.7131 -0.6124
 7320TIP3   OH243374   1.075   3.587   5.036 -0.2298 -0.0245  0.0422
 7320TIP3    H143375   1.074   3.520   4.968  2.2445 -0.0103 -0.1004
 7320TIP3    H243376   1.121   3.546   5.109 -2.0032  0.2904  1.4113
 7321TIP3   OH243377   1.045   3.276  11.188 -0.5519 -0.3172  0.3378
 7321TIP3    H143378   1.089   3.346  11.236 -0.3744  0.2516 -0.6238
 7321TIP3    H243379   0.972   3.249  11.245 -0.4408  0.4329  0.8449
 7322TIP3   OH243380   1.390   2.200   5.559  0.2967 -0.3464  0.1925
 7322TIP3    H143381   1.373   2.249   5.478 -0.3875  2.8220  2.0602
 7322TIP3    H243382   1.304   2.170   5.588  0.3064 -0.0674  0.5261
 7323TIP3   OH243383   0.745   3.116   5.794 -0.1612  0.2379 -0.4606
 7323TIP3    H143384   0.653   3.124   5.769 -0.4634  1.3513  0.8787
 7323TIP3    H243385   0.745   3.057   5.869 -0.0217  1.4984  0.5739
 7324TIP3   OH243386   5.827   1.236   0.431  0.4523 -0.8358 -0.7268
 7324TIP3    H143387   5.876   1.166   0.389  2.0171  1.3509 -2.8153
 7324TIP3    H243388   5.738   1.204   0.437  0.8998 -2.5939 -2.5886
 7325TIP3   OH243389   2.691   2.747  11.410 -0.4923 -0.5364 -0.6565
 7325TIP3    H143390   2.721   2.759  11.319 -0.0686  0.3923 -0.4095
 7325TIP3    H243391   2.711   2.831  11.452  0.9823 -1.5440  0.7606
 7326TIP3   OH243392   5.907   1.598  10.057  0.8090  0.0648  0.2432
 7326TIP3    H143393   5.927   1.671   9.999  1.2248 -0.0580  0.2235
 7326TIP3    H243394   5.860   1.637  10.130  0.6473  0.2841  0.0246
 7327TIP3   OH243395   3.836   6.194   2.681 -0.3400  0.5505  0.0118
 7327TIP3    H143396   3.793   6.256   2.739 -0.1412  1.2169 -0.5435
 7327TIP3    H243397   3.835   6.236   2.595  0.0120 -0.1088 -0.3279
 7328TIP3   OH243398   4.035   4.558   5.294  0.2025 -0.3676 -0.2302
 7328TIP3    H143399   4.086   4.558   5.213  0.8114 -1.8023  0.1042
 7328TIP3    H243400   4.100   4.570   5.364  0.5860 -4.3333  0.3655
 7329TIP3   OH243401   4.239   4.022  10.496 -0.0290  0.2212 -0.5165
 7329TIP3    H143402   4.319   4.040  10.447 -0.0641  0.0314 -0.6447
 7329TIP3    H243403   4.234   3.927  10.500  1.8458  0.1152  2.8783
 7330TIP3   OH243404   4.386   0.892  14.363  0.5787 -0.0676 -0.2548
 7330TIP3    H143405   4.479   0.883  14.385  0.1452  0.4192  2.0615
 7330TIP3    H243406   4.348   0.806  14.383  0.2285  0.2821  0.6279
 7331TIP3   OH243407   5.895   1.124   3.671 -0.0366  0.4758 -0.0177
 7331TIP3    H143408   5.822   1.062   3.678  1.3066 -1.1485  0.3750
 7331TIP3    H243409   5.965   1.084   3.722  1.4528  1.5111 -1.1541
 7332TIP3   OH243410   4.812   1.792  13.679 -0.9393 -0.4363  0.5307
 7332TIP3    H143411   4.787   1.835  13.598  2.4235  0.3733 -0.2448
 7332TIP3    H243412   4.865   1.857  13.726  1.1734 -2.3875  1.0682
 7333TIP3   OH243413   1.255   0.918  15.771 -0.6836  0.2982 -0.1946
 7333TIP3    H143414   1.177   0.970  15.790 -1.4457 -1.1576  0.8977
 7333TIP3    H243415   1.314   0.936  15.844  0.4014  2.0399 -1.4400
 7334TIP3   OH243416   1.214   5.156   1.396 -0.5246  0.1020 -0.2949
 7334TIP3    H143417   1.164   5.198   1.465 -0.0505 -1.9503  1.4281
 7334TIP3    H243418   1.296   5.206   1.390 -0.6760  0.4427  0.4728
 7335TIP3   OH243419   6.227   4.582  12.895  0.1098  0.2234 -0.0935
 7335TIP3    H143420   6.164   4.511  12.884 -1.5257  1.9900 -4.0426
 7335TIP3    H243421   6.175   4.655  12.930  1.3141  0.1374  2.0004
 7336TIP3   OH243422   6.858   3.719  13.620  0.2574  0.0181  0.4566
 7336TIP3    H143423   6.850   3.627  13.644  3.2674 -0.1288  1.2139
 7336TIP3    H243424   6.915   3.719  13.543 -0.2989  1.2262  0.0133
 7337TIP3   OH243425   0.862   5.639   1.568 -0.4288 -0.2379 -0.0292
 7337TIP3    H143426   0.882   5.550   1.599 -0.0477 -0.9200 -2.0218
 7337TIP3    H243427   0.887   5.637   1.475  0.2060  2.1763  0.0343
 7338TIP3   OH243428   0.238   4.482   0.408 -0.5578  0.0001 -0.0393
 7338TIP3    H143429   0.164   4.536   0.437 -1.2264 -1.8622  2.0723
 7338TIP3    H243430   0.198   4.414   0.353 -0.1461  0.0325 -0.3833
 7339TIP3   OH243431   2.976   2.383   3.202 -0.7286 -0.3581  0.8743
 7339TIP3    H143432   2.983   2.407   3.294  0.0787 -1.1399  1.0319
 7339TIP3    H243433   3.006   2.461   3.155 -0.0719 -0.3354  1.3097
 7340TIP3   OH243434   3.848   1.566   1.246  0.6068  0.2073 -0.0923
 7340TIP3    H143435   3.829   1.494   1.306 -0.9818 -0.3332 -1.1666
 7340TIP3    H243436   3.926   1.538   1.198 -1.0999 -1.7796 -1.8853
 7341TIP3   OH243437   6.768   1.336   4.896 -0.3085 -0.6820 -0.7585
 7341TIP3    H143438   6.748   1.404   4.833  0.2658 -0.3021 -0.5393
 7341TIP3    H243439   6.701   1.269   4.883 -0.9132 -0.0390 -0.9246
 7342TIP3   OH243440   0.156   6.253  11.264 -0.3075  0.0040 -0.1133
 7342TIP3    H143441   0.155   6.274  11.171  2.2316 -1.5040 -0.5877
 7342TIP3    H243442   0.159   6.158  11.268 -0.0146  0.0399  1.4881
 7343TIP3   OH243443   1.031   0.990   4.627  0.1411  0.1957  0.2455
 7343TIP3    H143444   1.092   0.924   4.595 -0.0048  0.8874 -1.5760
 7343TIP3    H243445   0.948   0.969   4.585 -0.0505  1.1560  0.1056
 7344TIP3   OH243446   1.762   0.077   2.648  0.6795  0.1148  0.2938
 7344TIP3    H143447   1.760   0.166   2.613  0.8548 -0.0206 -0.0617
 7344TIP3    H243448   1.681   0.037   2.616 -0.5357  0.8276  2.2882
 7345TIP3   OH243449   0.368   6.302   4.424  0.1701 -0.0366 -0.0758
 7345TIP3    H143450   0.446   6.253   4.450  0.6487  0.8547  0.1880
 7345TIP3    H243451   0.364   6.376   4.485 -2.0124 -1.1384  1.2719
 7346TIP3   OH243452   0.095   1.249  14.837  0.6526 -0.2883  0.5557
 7346TIP3    H143453   0.115   1.157  14.856 -0.4494 -0.4391  1.0475
 7346TIP3    H243454   0.175   1.296  14.863  1.1340 -1.0781  0.5343
 7347TIP3   OH243455   5.113   2.650  13.339 -0.4014 -0.2649 -0.0772
 7347TIP3    H143456   5.080   2.697  13.262 -1.6527 -1.2113 -0.1608
 7347TIP3    H243457   5.034   2.628  13.389  0.4083  0.6371  1.6942
 7348TIP3   OH243458   4.909   1.897  14.349 -0.0146  0.6241  0.1970
 7348TIP3    H143459   4.932   1.919  14.259  0.1444 -1.4215 -0.3233
 7348TIP3    H243460   4.992   1.902  14.396  0.8995 -2.5739 -0.7833
 7349TIP3   OH243461   3.921   4.541   1.165  0.0405 -0.3505 -0.1979
 7349TIP3    H143462   3.964   4.481   1.225 -0.5689 -3.4408 -2.6018
 7349TIP3    H243463   3.830   4.513   1.164 -0.4517  1.1709 -0.7872
 7350TIP3   OH243464   0.250   0.043   0.070  0.2117  0.3048 -0.4996
 7350TIP3    H143465   0.275   0.049   0.162  0.4339  0.2665 -0.5575
 7350TIP3    H243466   0.184  -0.027   0.068  0.9886 -0.4398 -0.5322
 7351TIP3   OH243467   6.232   1.851  13.512 -0.4724  0.2315  0.0272
 7351TIP3    H143468   6.256   1.838  13.420  0.4411  1.6796  0.0405
 7351TIP3    H243469   6.299   1.910  13.547  0.1658 -1.5491  2.0794
 7352TIP3   OH243470   5.805   3.407  13.234  0.2047  0.0629  0.6857
 7352TIP3    H143471   5.834   3.494  13.260 -0.6616  1.0435 -1.4143
 7352TIP3    H243472   5.886   3.359  13.215  0.6352  0.9089  0.3784
 7353TIP3   OH243473   3.073   2.149  15.286  0.3718  0.5023 -0.9669
 7353TIP3    H143474   3.162   2.141  15.321  0.5663 -2.0582 -1.8437
 7353TIP3    H243475   3.017   2.126  15.360  0.5853 -0.6850 -1.1631
 7354TIP3   OH243476   1.255   5.206  10.402  0.3143 -0.5536  0.4050
 7354TIP3    H143477   1.294   5.197  10.315 -0.5147  2.8542 -0.4856
 7354TIP3    H243478   1.321   5.250  10.454 -0.4655  0.6971  0.3753
 7355TIP3   OH243479   5.210   0.697   4.186  0.6389  0.6060  0.7287
 7355TIP3    H143480   5.223   0.780   4.232  1.8123  0.9671 -0.1966
 7355TIP3    H243481   5.280   0.695   4.121  1.5641 -1.7907  1.6940
 7356TIP3   OH243482   1.741   4.057  10.967 -0.1296  0.9029 -0.8935
 7356TIP3    H143483   1.778   3.977  10.930  0.8512  0.9715 -0.1013
 7356TIP3    H243484   1.686   4.093  10.897 -2.3423 -1.5467 -0.5895
 7357TIP3   OH243485   4.702   2.289   0.660  0.0498  0.6038 -0.9111
 7357TIP3    H143486   4.613   2.317   0.679  0.1344  0.5693 -0.4570
 7357TIP3    H243487   4.739   2.359   0.607 -0.5938  0.1252 -2.0188
 7358TIP3   OH243488   3.362   6.004  14.743 -0.4044  0.2369 -0.0551
 7358TIP3    H143489   3.292   6.069  14.746 -0.0675  0.5894  0.1013
 7358TIP3    H243490   3.322   5.929  14.698 -1.3223 -0.0967  1.2536
 7359TIP3   OH243491   1.513   6.219  14.579  0.1931  0.3678 -0.0172
 7359TIP3    H143492   1.484   6.177  14.661  2.4336  0.9328  1.1342
 7359TIP3    H243493   1.533   6.309  14.603 -1.8383  1.4237 -1.8754
 7360TIP3   OH243494   2.595   1.783  14.472  0.6496 -0.1579  0.3770
 7360TIP3    H143495   2.514   1.811  14.514  0.2780  0.2330 -0.5719
 7360TIP3    H243496   2.600   1.689  14.491  0.3463 -0.0445  1.0409
 7361TIP3   OH243497   2.246   5.522  13.669  0.0702 -0.1976 -0.4875
 7361TIP3    H143498   2.210   5.541  13.582 -0.4884 -1.5557 -0.5771
 7361TIP3    H243499   2.171   5.526  13.728  0.2241 -0.5214 -0.2672
 7362TIP3   OH243500   0.058   5.897   0.136 -0.1005  0.0144  0.0416
 7362TIP3    H143501   0.004   5.920   0.212 -1.4601 -1.0726 -0.5449
 7362TIP3    H243502   0.142   5.872   0.173 -0.5009  0.2289  1.1348
 7363TIP3   OH243503   1.277   0.404  16.516  0.0911  0.1071  0.8615
 7363TIP3    H143504   1.334   0.332  16.487  0.5444  1.3736 -1.5881
 7363TIP3    H243505   1.334   0.481  16.517 -1.4682  1.4059 -1.5731
 7364TIP3   OH243506   0.085   6.726   0.123 -0.2084  0.2174 -0.6164
 7364TIP3    H143507   0.070   6.701   0.214 -0.0551  2.4399  0.0810
 7364TIP3    H243508   0.006   6.697   0.077  1.0914 -4.0143 -0.5812
 7365TIP3   OH243509   4.710   2.051   3.639  0.1413  0.2696 -0.2567
 7365TIP3    H143510   4.754   2.097   3.711 -0.0284  1.3841 -0.8500
 7365TIP3    H243511   4.673   2.121   3.585 -0.7804 -0.5928 -0.7706
 7366TIP3   OH243512   4.104   2.982  10.913 -0.1386 -0.2779 -0.2232
 7366TIP3    H143513   4.137   2.894  10.898 -1.1710 -0.7709  0.2177
 7366TIP3    H243514   4.164   3.040  10.867  0.0252 -1.2830 -1.3067
 7367TIP3   OH243515   5.430   1.792   5.568 -0.1490 -0.2899  0.0451
 7367TIP3    H143516   5.419   1.771   5.661  4.0489  0.9882  1.0305
 7367TIP3    H243517   5.494   1.729   5.537  1.0511  1.3788 -1.0285
 7368TIP3   OH243518   0.058   6.127  13.419  0.3802 -0.4681 -0.2777
 7368TIP3    H143519  -0.001   6.061  13.382 -2.2804  1.2861  0.5012
 7368TIP3    H243520   0.050   6.116  13.514 -0.6460  1.2726 -0.1003
 7369TIP3   OH243521   1.257   4.848  13.536 -0.0974 -0.3621 -0.2333
 7369TIP3    H143522   1.265   4.767  13.485 -1.3797  0.2567 -1.4661
 7369TIP3    H243523   1.335   4.898  13.513  0.1582 -0.7823 -0.3010
 7370TIP3   OH243524   2.260   2.768   2.263 -0.9118  0.1070  0.1331
 7370TIP3    H143525   2.254   2.858   2.293 -0.8921 -0.0850  0.7344
 7370TIP3    H243526   2.180   2.754   2.212 -1.8947 -0.1154  1.6572
 7371TIP3   OH243527   0.589   4.580   4.519 -0.4476  0.1459  0.0088
 7371TIP3    H143528   0.519   4.589   4.455 -3.4497 -1.1798  2.8107
 7371TIP3    H243529   0.566   4.640   4.590  0.5102 -1.2304  1.5782
 7372TIP3   OH243530   0.627   0.069   1.608 -0.0754 -0.3958  0.2459
 7372TIP3    H143531   0.643   0.060   1.702  0.7148  0.8098  0.2471
 7372TIP3    H243532   0.698   0.125   1.577 -1.3757  0.7732 -0.7304
 7373TIP3   OH243533   5.518   0.858   5.387  0.5720  0.2560  0.0110
 7373TIP3    H143534   5.567   0.849   5.468 -0.0501  0.8058  0.4554
 7373TIP3    H243535   5.563   0.800   5.325  0.0656 -1.4314  1.1777
 7374TIP3   OH243536   0.628   0.450  13.617  0.2486 -0.3280  0.3487
 7374TIP3    H143537   0.685   0.375  13.599 -2.1336 -1.7593 -1.8282
 7374TIP3    H243538   0.593   0.433  13.705  0.7473 -1.0388  0.4194
 7375TIP3   OH243539   0.698   1.257  12.290  0.4033  0.0250  0.1917
 7375TIP3    H143540   0.613   1.248  12.334  0.6407 -0.6235  0.5209
 7375TIP3    H243541   0.757   1.200  12.338  0.4084 -1.6040 -1.6155
 7376TIP3   OH243542   6.380   2.910   5.102 -0.0329  0.0026 -0.2593
 7376TIP3    H143543   6.465   2.952   5.112  1.1178 -2.3429  0.5543
 7376TIP3    H243544   6.377   2.884   5.010 -0.5315  1.3043 -0.6397
 7377TIP3   OH243545   0.636   6.567   0.871 -0.4480 -0.1976  0.4637
 7377TIP3    H143546   0.568   6.559   0.938  0.1848  0.1436  1.1624
 7377TIP3    H243547   0.705   6.618   0.913  0.6050 -1.2435  0.0511
 7378TIP3   OH243548   1.507   1.860  16.332  0.4975 -0.3612  0.1973
 7378TIP3    H143549   1.450   1.937  16.333 -0.1941 -0.8692  0.6336
 7378TIP3    H243550   1.594   1.894  16.354  0.9049  0.8245 -2.7148
 7379TIP3   OH243551   0.735   0.474  11.619 -0.3132  0.0522  0.2546
 7379TIP3    H143552   0.698   0.561  11.606 -0.2672  0.4240  2.3354
 7379TIP3    H243553   0.795   0.483  11.693 -0.1684 -1.7207  0.4168
 7380TIP3   OH243554   1.844   4.629   2.266  0.0886 -0.4212  0.0020
 7380TIP3    H143555   1.879   4.656   2.351 -0.9805 -0.5528  0.5076
 7380TIP3    H243556   1.822   4.537   2.278 -0.8824 -0.2190 -0.1238
 7381TIP3   OH243557   3.117   0.802   1.584 -0.3253  0.4496  0.2246
 7381TIP3    H143558   3.068   0.882   1.597  0.3298  0.6133  2.0729
 7381TIP3    H243559   3.206   0.831   1.563 -0.2533  0.2067  0.1861
 7382TIP3   OH243560   4.922   6.268  16.524 -0.0761 -0.1133  0.1750
 7382TIP3    H143561   4.954   6.340  16.470 -0.5015 -1.1145 -1.4960
 7382TIP3    H243562   4.998   6.239  16.574  1.7975 -2.2784 -3.4874
 7383TIP3   OH243563   2.591   2.822   0.154  0.0037  0.3325 -0.1137
 7383TIP3    H143564   2.550   2.904   0.127  1.2788  1.1268  0.2768
 7383TIP3    H243565   2.683   2.844   0.164  0.3107 -1.0815  0.3241
 7384TIP3   OH243566   3.261   5.536   3.406  0.5045  0.5514  0.2131
 7384TIP3    H143567   3.326   5.545   3.337 -3.4042  2.8365 -3.7011
 7384TIP3    H243568   3.255   5.623   3.446 -0.1938  0.4085  0.4422
 7385TIP3   OH243569   4.812   6.804   1.368 -0.1999  0.0507 -0.3842
 7385TIP3    H143570   4.873   6.742   1.327 -0.7827  0.6480 -2.2318
 7385TIP3    H243571   4.783   6.759   1.448  1.9734 -0.6083  0.1041
 7386TIP3   OH243572   1.317   4.861  16.480 -0.5699 -0.4471 -0.0902
 7386TIP3    H143573   1.292   4.943  16.521 -1.4415 -0.8837  0.2724
 7386TIP3    H243574   1.235   4.813  16.469 -0.0383 -1.4116  0.0199
 7387TIP3   OH243575   3.775   4.046  15.530  0.5394  0.0201 -0.1906
 7387TIP3    H143576   3.731   4.086  15.605 -0.7052 -0.7549 -0.4801
 7387TIP3    H243577   3.752   4.101  15.456  2.1758  1.0733  0.0364
 7388TIP3   OH243578   1.310   2.751   4.838 -0.0249 -0.5529  0.1995
 7388TIP3    H143579   1.306   2.704   4.755 -1.1738 -1.4132  0.7278
 7388TIP3    H243580   1.233   2.722   4.887  0.1856  0.5555  1.2475
 7389TIP3   OH243581   5.885   1.458  10.754 -0.7893  0.3929 -0.5662
 7389TIP3    H143582   5.851   1.522  10.691 -1.2493 -0.7646 -1.5409
 7389TIP3    H243583   5.930   1.394  10.700 -0.7328 -0.3529  0.3471
 7390TIP3   OH243584   4.179   1.208  14.084  0.7401  0.5381  0.5628
 7390TIP3    H143585   4.264   1.176  14.112  0.2333 -1.3971  0.1011
 7390TIP3    H243586   4.157   1.153  14.009 -1.0556  0.7370  0.8925
 7391TIP3   OH243587   2.460   0.555   4.637 -0.0843  0.2993 -0.2344
 7391TIP3    H143588   2.399   0.489   4.604 -1.4821  0.8507  1.0696
 7391TIP3    H243589   2.487   0.521   4.723 -0.7439  1.3268  0.4044
 7392TIP3   OH243590   1.949   1.970   2.674  0.4212  0.7268  0.0915
 7392TIP3    H143591   1.917   1.905   2.737  0.2817  0.1759 -0.5404
 7392TIP3    H243592   2.024   1.928   2.632  0.8056  1.2762  0.2174
 7393TIP3   OH243593   0.686   2.687  13.035 -0.1636  0.2084 -0.1093
 7393TIP3    H143594   0.655   2.766  13.080  0.5044  0.6591 -0.4230
 7393TIP3    H243595   0.750   2.649  13.095  0.3098  0.4974 -0.4326
 7394TIP3   OH243596   2.654   3.195   3.975  0.3505 -0.4057  0.0185
 7394TIP3    H143597   2.749   3.192   3.960  0.8818 -2.7407  2.9753
 7394TIP3    H243598   2.644   3.256   4.048 -0.5272  0.2085 -0.5991
 7395TIP3   OH243599   5.725   5.025  15.885  0.0802 -0.4440  0.2583
 7395TIP3    H143600   5.744   5.052  15.975 -0.7759  0.3630  0.2191
 7395TIP3    H243601   5.799   4.970  15.860  2.7234  2.9047 -0.0920
 7396TIP3   OH243602   2.199   2.321   5.866  0.1476 -0.4354  0.4685
 7396TIP3    H143603   2.160   2.235   5.880 -0.4971 -0.3012 -0.4498
 7396TIP3    H243604   2.125   2.379   5.851  0.6324  0.0272 -0.2075
 7397TIP3   OH243605   2.892   0.186   3.260 -0.5860 -0.1266 -0.0177
 7397TIP3    H143606   2.797   0.189   3.260 -0.6100 -0.7002  0.1370
 7397TIP3    H243607   2.913   0.092   3.257 -0.0130  0.0268 -2.6790
 7398TIP3   OH243608   4.135   0.837   3.491  0.3223 -0.4498  0.1263
 7398TIP3    H143609   4.229   0.841   3.473  0.2618  0.5859 -0.0059
 7398TIP3    H243610   4.104   0.765   3.437  0.9448 -0.4191 -0.2880
 7399TIP3   OH243611   0.258   0.348  14.527  0.1898 -0.3258  0.0894
 7399TIP3    H143612   0.218   0.316  14.446 -1.0979 -1.7003  1.2091
 7399TIP3    H243613   0.277   0.440  14.510  0.4705 -0.7100 -1.9502
 7400TIP3   OH243614   6.128   0.520   3.510 -0.3919 -0.3207  0.3429
 7400TIP3    H143615   6.155   0.448   3.453  1.2014 -1.9148  2.8985
 7400TIP3    H243616   6.034   0.529   3.495  0.0714  0.0759 -3.1723
 7401TIP3   OH243617   4.231   3.629  15.688  0.1705 -0.4479 -0.4222
 7401TIP3    H143618   4.315   3.675  15.697  0.3333 -0.6696 -0.7829
 7401TIP3    H243619   4.204   3.646  15.597 -0.3761 -0.0429 -0.1882
 7402TIP3   OH243620   3.493   5.729   4.426  0.3451  0.1934  0.7459
 7402TIP3    H143621   3.437   5.667   4.473  1.3656 -1.5038 -0.1913
 7402TIP3    H243622   3.575   5.730   4.475  0.5999  0.2036  0.3274
 7403TIP3   OH243623   0.256   4.915   4.601  0.1711 -0.3221 -0.1619
 7403TIP3    H143624   0.211   4.970   4.536  0.8887 -0.1419 -0.5125
 7403TIP3    H243625   0.197   4.840   4.614 -0.1988 -0.1217 -0.6615
 7404TIP3   OH243626   2.887   5.861   4.755  0.2889  0.2323  0.1998
 7404TIP3    H143627   2.860   5.882   4.844 -0.9032 -1.3149  0.2391
 7404TIP3    H243628   2.813   5.889   4.700  0.2840 -0.3937 -0.1190
 7405TIP3   OH243629   2.592   6.393  14.088 -0.7444 -0.3741 -0.3411
 7405TIP3    H143630   2.662   6.336  14.054  3.6845  3.0015  2.0879
 7405TIP3    H243631   2.563   6.350  14.168 -0.6485 -1.2725 -0.7741
 7406TIP3   OH243632   2.222   4.615   4.909 -0.0090 -0.6688  0.3872
 7406TIP3    H143633   2.289   4.548   4.921 -1.1102 -1.7284  0.7908
 7406TIP3    H243634   2.237   4.677   4.981 -1.1966 -2.4154  2.2458
 7407TIP3   OH243635   5.210   0.421  12.843  0.5013  0.0698 -0.3833
 7407TIP3    H143636   5.304   0.431  12.828  0.8506 -0.7140  1.0997
 7407TIP3    H243637   5.201   0.418  12.938 -1.1709  1.3420 -0.4523
 7408TIP3   OH243638   5.829   0.826  12.454  0.2595 -0.2723 -1.0162
 7408TIP3    H143639   5.797   0.771  12.527 -0.3279  2.6135  1.0902
 7408TIP3    H243640   5.758   0.822  12.389 -1.7740  1.1586  0.9349
 7409TIP3   OH243641   3.553   0.217   0.965 -0.4732  0.1904  0.0072
 7409TIP3    H143642   3.593   0.191   1.048 -0.2051  0.0117 -0.1747
 7409TIP3    H243643   3.512   0.137   0.932 -0.0858  0.1167 -0.3070
 7410TIP3   OH243644   3.608   1.417  16.244  0.3951 -0.7108  0.4305
 7410TIP3    H143645   3.526   1.458  16.270 -0.2237 -1.7107  0.1137
 7410TIP3    H243646   3.583   1.352  16.179  1.5000 -0.7100 -0.0226
 7411TIP3   OH243647   6.790   3.761   2.721  0.6243  0.1156  0.5299
 7411TIP3    H143648   6.793   3.810   2.803  1.2589  0.1718  0.4708
 7411TIP3    H243649   6.716   3.700   2.732  0.0072  0.8849  0.7074
 7412TIP3   OH243650   5.765   2.526   2.724  0.3162  0.0359 -0.4425
 7412TIP3    H143651   5.803   2.449   2.766  1.5963  1.2257  0.6705
 7412TIP3    H243652   5.798   2.523   2.634  0.9057 -0.3524 -0.2158
 7413TIP3   OH243653   3.316   4.172   2.234  0.0763  0.0355  0.6349
 7413TIP3    H143654   3.250   4.237   2.258  0.1336  0.4923 -0.3858
 7413TIP3    H243655   3.285   4.136   2.151  0.4385 -0.7032  0.8119
 7414TIP3   OH243656   3.758   0.164  11.783  0.0781  0.1706  0.1464
 7414TIP3    H143657   3.845   0.149  11.745  0.4626 -0.8861  1.3690
 7414TIP3    H243658   3.697   0.126  11.720  0.6417 -0.7771  0.1496
 7415TIP3   OH243659   0.478   1.289  13.656 -0.2621 -0.2327 -0.4278
 7415TIP3    H143660   0.516   1.210  13.695 -0.3759 -0.4174 -0.6913
 7415TIP3    H243661   0.396   1.303  13.703 -0.4839 -0.5545 -0.7167
 7416TIP3   OH243662   0.324   2.520  16.453  0.3256  0.0842  0.0113
 7416TIP3    H143663   0.396   2.570  16.491 -0.5235  1.6337 -0.3392
 7416TIP3    H243664   0.366   2.444  16.413  1.6559  0.4680  0.6131
 7417TIP3   OH243665   4.864   0.485   4.913 -0.6712 -0.3348 -0.4362
 7417TIP3    H143666   4.918   0.457   4.840 -1.5896  0.5699 -1.5150
 7417TIP3    H243667   4.907   0.564   4.946 -1.4502  0.5535 -1.4832
 7418TIP3   OH243668   2.987   5.347   5.447  0.0671  0.0907  0.3087
 7418TIP3    H143669   3.052   5.383   5.387 -0.3996  2.4448  1.1192
 7418TIP3    H243670   3.034   5.280   5.497  1.9237  1.7885  0.9324
 7419TIP3   OH243671   6.002   3.045   2.254  0.2699 -0.0180 -0.5676
 7419TIP3    H143672   6.093   3.066   2.276  0.7649 -3.0538  0.6718
 7419TIP3    H243673   6.008   2.969   2.197 -1.4932  1.0880 -2.3591
 7420TIP3   OH243674   4.420   0.497  11.382 -0.0970 -0.0523 -0.4297
 7420TIP3    H143675   4.472   0.476  11.459 -1.1428  1.4313  0.7456
 7420TIP3    H243676   4.339   0.533  11.417  0.0007  2.1190 -2.2138
 7421TIP3   OH243677   2.399   4.040   1.101 -0.2718  0.1758  0.6780
 7421TIP3    H143678   2.428   4.096   1.030  0.5988 -1.5457 -0.3836
 7421TIP3    H243679   2.306   4.026   1.084 -0.1173 -0.0467  0.0147
 7422TIP3   OH243680   0.316   0.883  13.682  0.0139 -0.3434 -0.1678
 7422TIP3    H143681   0.269   0.962  13.654 -0.5731 -0.9174 -0.8203
 7422TIP3    H243682   0.289   0.816  13.620  1.2907 -0.8237 -0.2220
 7423TIP3   OH243683   0.825   4.935  15.803  0.1280 -0.3011  0.4543
 7423TIP3    H143684   0.850   4.952  15.712 -3.8973 -1.1644 -1.0335
 7423TIP3    H243685   0.833   4.841  15.813  1.8908 -0.0712  1.5358
 7424TIP3   OH243686   3.170   5.400  15.511 -0.1371  0.2746 -0.1339
 7424TIP3    H143687   3.238   5.357  15.562  1.4433 -0.2945 -2.5613
 7424TIP3    H243688   3.176   5.493  15.536 -0.7674 -0.2041  2.0582
 7425TIP3   OH243689   1.627   0.368  12.313  0.1482 -0.1565  0.0078
 7425TIP3    H143690   1.636   0.460  12.337  0.9959 -0.7088  2.0237
 7425TIP3    H243691   1.564   0.333  12.376 -0.3751 -0.9164 -0.9097
 7426TIP3   OH243692   4.800   3.732   5.159  0.4621  0.0742  0.2675
 7426TIP3    H143693   4.713   3.753   5.124 -0.6142 -2.5714  1.0895
 7426TIP3    H243694   4.856   3.804   5.129 -2.2068  2.5675  0.7331
 7427TIP3   OH243695   3.679   1.153   2.325 -0.1290 -0.2719  0.3903
 7427TIP3    H143696   3.759   1.126   2.370 -0.9403 -1.0917  1.3740
 7427TIP3    H243697   3.698   1.138   2.232  1.6065  1.5416  0.3686
 7428TIP3   OH243698   3.203   0.073  11.036  0.1591 -0.2971 -0.0985
 7428TIP3    H143699   3.111   0.053  11.051  0.1265 -2.2707 -2.4725
 7428TIP3    H243700   3.250   0.011  11.091  0.1238  0.5524  0.9294
 7429TIP3   OH243701   0.569   2.505  12.185  0.1928  0.5080 -0.2249
 7429TIP3    H143702   0.624   2.572  12.225 -1.0042  1.9798 -0.9357
 7429TIP3    H243703   0.543   2.542  12.100 -0.3264 -0.9625 -0.7519
 7430TIP3   OH243704   4.402   0.092  14.070 -0.1232 -0.6433  0.2990
 7430TIP3    H143705   4.434   0.112  14.158  0.3287  0.3381 -0.0756
 7430TIP3    H243706   4.446   0.011  14.046  0.5797 -0.3444  0.5591
 7431TIP3   OH243707   6.200   0.953  16.553 -0.1963  0.1106  0.0311
 7431TIP3    H143708   6.273   0.994  16.507 -0.1820  1.3171  1.0728
 7431TIP3    H243709   6.138   0.928  16.484  1.5783 -1.8334 -0.9687
 7432TIP3   OH243710   1.680   3.940  15.984 -0.5370  0.6155 -0.4415
 7432TIP3    H143711   1.709   4.031  15.992 -2.2575  1.1228  0.5341
 7432TIP3    H243712   1.684   3.905  16.073 -2.6345  0.6753 -0.2712
 7433TIP3   OH243713   2.925   3.081   6.542 -0.0462 -0.4799  0.9498
 7433TIP3    H143714   2.871   3.104   6.618 -0.5874 -1.2158  0.7970
 7433TIP3    H243715   2.979   3.008   6.572  0.7491  0.1238  1.0421
 7434TIP3   OH243716   1.644   3.252   2.677  0.4341 -0.3431 -0.4203
 7434TIP3    H143717   1.551   3.234   2.665  0.1076  1.3767 -0.6893
 7434TIP3    H243718   1.685   3.166   2.679 -1.0791 -1.1056 -0.9303
 7435TIP3   OH243719   3.723   0.638   2.674 -0.2782  0.4062 -0.1132
 7435TIP3    H143720   3.715   0.709   2.737  2.1181  0.1793  0.5768
 7435TIP3    H243721   3.663   0.571   2.706  1.2526  0.0608  2.3770
 7436TIP3   OH243722   3.869   0.062   4.691 -0.1528 -0.4625 -0.0174
 7436TIP3    H143723   3.775   0.077   4.688 -0.0607  0.1345 -0.1261
 7436TIP3    H243724   3.903   0.105   4.612  0.3468  0.4537  0.6796
 7437TIP3   OH243725   3.768   6.611  14.990  0.3325  0.4164 -0.3058
 7437TIP3    H143726   3.859   6.618  15.018  0.4836 -1.1022 -0.3291
 7437TIP3    H243727   3.765   6.656  14.905  0.3061  3.2833  1.0805
 7438TIP3   OH243728   6.203   6.216  11.904 -0.7727  0.0527 -0.4472
 7438TIP3    H143729   6.238   6.265  11.979 -2.0973 -0.1352  0.3205
 7438TIP3    H243730   6.245   6.255  11.828  0.8680  0.0345  0.4042
 7439TIP3   OH243731   2.787   0.277  12.470  0.1263 -0.1273  0.4779
 7439TIP3    H143732   2.812   0.366  12.494  0.5945  0.2583 -1.2660
 7439TIP3    H243733   2.863   0.223  12.490  1.2958  0.5250 -1.9010
 7440TIP3   OH243734   3.306   5.843  16.297 -0.0979 -0.6636  0.1696
 7440TIP3    H143735   3.360   5.766  16.313  0.6961 -0.2132 -0.2999
 7440TIP3    H243736   3.250   5.818  16.223 -2.9147 -2.3087  2.6254
 7441TIP3   OH243737   1.834   3.639  14.382 -0.3557 -0.1603  0.2811
 7441TIP3    H143738   1.811   3.717  14.331 -0.2026 -0.3961 -0.1617
 7441TIP3    H243739   1.869   3.672  14.464 -1.2427  0.2240  0.5171
 7442TIP3   OH243740   0.988   1.069  10.571  0.0512 -0.1643 -0.2996
 7442TIP3    H143741   0.966   1.157  10.541  0.6179  0.6657  1.6261
 7442TIP3    H243742   1.073   1.051  10.530 -1.1546 -0.8913 -2.7105
 7443TIP3   OH243743   1.441   5.184   4.128 -0.9106 -0.2970  0.4103
 7443TIP3    H143744   1.456   5.090   4.141 -2.4266 -0.7415 -0.8477
 7443TIP3    H243745   1.367   5.205   4.185 -2.5981 -0.5841 -1.6031
 7444TIP3   OH243746   4.781   0.642  13.938 -0.4324 -0.4275  0.2596
 7444TIP3    H143747   4.871   0.619  13.918 -0.0176  0.9224  0.5127
 7444TIP3    H243748   4.763   0.598  14.022  0.2655 -0.0031  0.6339
 7445TIP3   OH243749   1.542   3.283  13.273 -0.2343  0.0031  0.2432
 7445TIP3    H143750   1.629   3.324  13.270 -0.7932  1.2046 -1.0772
 7445TIP3    H243751   1.546   3.213  13.208 -0.4424  0.4905 -0.3010
 7446TIP3   OH243752   0.040   0.830  10.302  0.3735  0.4001  0.2545
 7446TIP3    H143753   0.013   0.909  10.256  3.2769  1.5664  0.3759
 7446TIP3    H243754   0.028   0.760  10.238 -2.1573  0.8435  0.1211
 7447TIP3   OH243755   4.650   0.465  10.430 -0.3594  0.3120 -0.4430
 7447TIP3    H143756   4.698   0.538  10.390 -0.9340  1.3215  0.6659
 7447TIP3    H243757   4.608   0.421  10.356  1.4318  0.0012 -1.3365
 7448TIP3   OH243758   1.363   3.796  11.559 -0.5279  0.7344 -0.2630
 7448TIP3    H143759   1.391   3.710  11.591 -2.0311  0.0729 -0.6692
 7448TIP3    H243760   1.269   3.787  11.543 -1.1027  2.9687  1.3595
 7449TIP3   OH243761   5.250   1.467   5.900  0.2882 -0.0006  0.2891
 7449TIP3    H143762   5.290   1.528   5.838  0.2955  0.9693  1.2213
 7449TIP3    H243763   5.165   1.506   5.922  0.0336 -0.6241  0.4551
 7450TIP3   OH243764   2.969   5.437  14.695  0.5822 -0.2083 -0.0403
 7450TIP3    H143765   2.952   5.458  14.603  0.2883  0.1136  0.0888
 7450TIP3    H243766   3.046   5.489  14.717  0.0799  0.4558  0.1711
 7451TIP3   OH243767   6.073   0.307  10.575 -0.6264  0.0768  0.5098
 7451TIP3    H143768   6.116   0.277  10.656 -2.0226 -0.9793  0.8926
 7451TIP3    H243769   6.002   0.363  10.605  0.1619  1.4811 -0.1090
 7452TIP3   OH243770   1.039   6.112  11.234 -0.1564  0.0843  0.3294
 7452TIP3    H143771   1.028   6.062  11.315  3.1087  1.6241  1.8845
 7452TIP3    H243772   1.094   6.056  11.179 -0.1962  0.1354  0.2377
 7453TIP3   OH243773   2.621   1.141  16.530  0.3359 -0.2706 -0.2943
 7453TIP3    H143774   2.619   1.047  16.515  2.3623 -0.8889  2.5514
 7453TIP3    H243775   2.530   1.164  16.551  0.3451 -2.4941  2.9815
 7454TIP3   OH243776   5.462   5.319   2.497 -0.0067  0.4901  0.0462
 7454TIP3    H143777   5.393   5.303   2.560 -1.0174  1.5549 -0.7473
 7454TIP3    H243778   5.430   5.391   2.442  0.8497 -0.3169 -1.6226
 7455TIP3   OH243779   4.963   1.929  14.058  0.0177  0.0089 -0.7069
 7455TIP3    H143780   4.985   1.965  13.972 -0.9697 -0.5518 -1.2012
 7455TIP3    H243781   5.043   1.885  14.086  0.9353  1.6820 -0.5262
 7456TIP3   OH243782   1.022   6.575   1.864  0.2926  0.8247 -0.1574
 7456TIP3    H143783   0.963   6.640   1.901 -0.2530 -0.4790  1.3812
 7456TIP3    H243784   1.024   6.504   1.929  1.9233 -0.0928 -1.1315
 7457TIP3   OH243785   6.144   0.628  10.749  0.3872 -0.6920 -0.6734
 7457TIP3    H143786   6.050   0.643  10.735  0.2992  0.7908  1.0944
 7457TIP3    H243787   6.183   0.638  10.663 -0.8944  0.3668 -1.1739
 7458TIP3   OH243788   3.119   4.552  12.026  0.0789 -0.0649 -0.2463
 7458TIP3    H143789   3.130   4.464  12.063  2.5245  0.3164  0.1162
 7458TIP3    H243790   3.177   4.553  11.949  0.3054  1.3130 -0.0850
 7459TIP3   OH243791   3.110   0.165  13.297 -0.3366 -0.1834 -0.3354
 7459TIP3    H143792   3.077   0.160  13.386 -0.2157  0.4779 -0.2465
 7459TIP3    H243793   3.174   0.094  13.291  0.0304  0.0877  0.2737
 7460TIP3   OH243794   5.965   1.088   4.403  0.4036 -0.0929 -0.4688
 7460TIP3    H143795   5.940   0.997   4.416 -0.9708 -0.0423 -2.3341
 7460TIP3    H243796   5.922   1.114   4.322  0.8115  2.2096 -0.0380
 7461TIP3   OH243797   6.217   5.898   5.107 -0.2431  0.5352  0.3706
 7461TIP3    H143798   6.271   5.898   5.186  0.9013  0.0915 -0.3843
 7461TIP3    H243799   6.199   5.805   5.091 -0.3950  0.6166  0.0658
 7462TIP3   OH243800   6.283   5.023  12.949  0.0679  0.0393 -0.4716
 7462TIP3    H143801   6.215   4.959  12.928 -0.6573  0.5938  0.1358
 7462TIP3    H243802   6.241   5.084  13.009  1.0408  0.5281 -0.2649
 7463TIP3   OH243803   3.718   5.068  11.143 -0.2354 -0.1557  0.2703
 7463TIP3    H143804   3.771   5.008  11.196 -1.1132  0.6285  2.1112
 7463TIP3    H243805   3.744   5.155  11.172 -0.6260  0.2979 -0.7238
 7464TIP3   OH243806   2.030   0.322   5.552  0.4661  0.1742  0.3176
 7464TIP3    H143807   1.944   0.279   5.555  0.3172  0.5056  1.0868
 7464TIP3    H243808   2.013   0.407   5.513  0.3245  0.4910  1.0543
 7465TIP3   OH243809   1.155   3.597   5.841 -0.1681  0.1652 -0.7054
 7465TIP3    H143810   1.160   3.692   5.850  2.4255  0.1009 -0.8422
 7465TIP3    H243811   1.188   3.563   5.925  2.1442 -0.5593 -1.8468
 7466TIP3   OH243812   1.932   1.788  11.642 -0.7510 -0.0203 -0.2107
 7466TIP3    H143813   2.000   1.744  11.693  0.6893  1.0113 -1.1546
 7466TIP3    H243814   1.897   1.720  11.585  2.1456  0.1058 -2.3900
 7467TIP3   OH243815   2.225   2.113   3.504  0.5154  0.1359  0.5934
 7467TIP3    H143816   2.283   2.183   3.533  1.8335 -1.3422  1.7069
 7467TIP3    H243817   2.280   2.055   3.452  0.1844 -1.4131  1.8583
 7468TIP3   OH243818   2.447   6.594  11.728 -1.1927 -0.3166  0.2078
 7468TIP3    H143819   2.522   6.587  11.669 -1.0940  1.5951  0.0344
 7468TIP3    H243820   2.484   6.579  11.815 -0.6649  0.2464  0.0898
 7469TIP3   OH243821   4.403   1.078  14.164  0.0053 -0.0164  0.2489
 7469TIP3    H143822   4.403   1.025  14.244 -0.6993  0.1855  0.3898
 7469TIP3    H243823   4.408   1.014  14.093 -1.9759 -0.3658  0.3775
 7470TIP3   OH243824   5.484   3.868  11.459 -0.3383 -0.0712 -0.1293
 7470TIP3    H143825   5.520   3.784  11.429  0.8205  0.5461 -0.5401
 7470TIP3    H243826   5.399   3.874  11.416 -0.6610 -1.2571  0.3006
 7471TIP3   OH243827   0.302   5.749  13.467 -0.2972  0.4431  0.0233
 7471TIP3    H143828   0.210   5.720  13.461 -0.0766 -0.5661  1.0879
 7471TIP3    H243829   0.297   5.840  13.493 -1.0458 -0.4021  3.2141
 7472TIP3   OH243830   4.340   5.231  10.706  0.5794  0.4410 -0.5411
 7472TIP3    H143831   4.348   5.226  10.611  2.9412  0.5830 -0.4197
 7472TIP3    H243832   4.293   5.312  10.723  1.8080  1.4231 -1.5872
 7473TIP3   OH243833   5.955   2.717  13.617  0.4653 -0.4542 -0.2684
 7473TIP3    H143834   6.031   2.769  13.593 -1.4720  2.1960 -1.0628
 7473TIP3    H243835   5.908   2.770  13.681 -0.8558 -1.9208  0.0473
 7474TIP3   OH243836   4.412   1.634  11.477  0.3600 -0.5000  0.4131
 7474TIP3    H143837   4.332   1.581  11.480  0.0182 -0.1106 -1.0780
 7474TIP3    H243838   4.459   1.600  11.402  0.9914  0.1412  0.5188
 7475TIP3   OH243839   5.763   4.877  16.687  0.2978  0.1493  0.3900
 7475TIP3    H143840   5.700   4.917  16.747  0.0719 -0.8195  0.8148
 7475TIP3    H243841   5.724   4.891  16.600  0.5915  1.4851  0.4423
 7476TIP3   OH243842   5.904   1.126   2.207  0.1500 -0.1234  0.4272
 7476TIP3    H143843   5.917   1.081   2.290  0.6212  0.9701  0.9609
 7476TIP3    H243844   5.989   1.122   2.164 -0.3610 -1.6665 -0.5389
 7477TIP3   OH243845   5.977   1.493  13.094  0.1148 -0.0895  0.0719
 7477TIP3    H143846   5.974   1.455  13.182 -1.2259  0.0886  0.1246
 7477TIP3    H243847   5.933   1.578  13.103  0.1876  0.0417 -0.7240
 7478TIP3   OH243848   6.593   5.503   4.722  0.2611 -0.0812 -0.4250
 7478TIP3    H143849   6.659   5.447   4.762  0.6464  0.5722 -0.1401
 7478TIP3    H243850   6.639   5.550   4.652 -0.0668 -0.1377 -0.6854
 7479TIP3   OH243851   0.522   1.670   2.900 -0.1006  0.5491 -0.3934
 7479TIP3    H143852   0.554   1.696   2.814  2.2503 -1.1874 -0.1268
 7479TIP3    H243853   0.592   1.695   2.961  0.2898 -2.1624  0.4070
 7480TIP3   OH243854   1.131   6.628   4.422  0.8069 -0.6766 -0.4815
 7480TIP3    H143855   1.082   6.589   4.494  0.8718  0.5872  0.2734
 7480TIP3    H243856   1.154   6.716   4.453  1.6380 -0.4457 -1.6837
 7481TIP3   OH243857   1.877   6.056  11.314 -0.1850  0.0091 -0.5086
 7481TIP3    H143858   1.890   6.151  11.305  0.6322 -0.1297 -0.8683
 7481TIP3    H243859   1.857   6.027  11.225 -1.0132 -0.0793 -0.3013
 7482TIP3   OH243860   6.140   3.158   1.053 -0.4548 -0.2216 -0.1642
 7482TIP3    H143861   6.100   3.096   0.992  1.4984 -1.4276 -0.2995
 7482TIP3    H243862   6.183   3.223   0.997 -0.2240 -0.2868 -0.0657
 7483TIP3   OH243863   1.876   4.205  11.647 -0.4668 -0.2183  0.1229
 7483TIP3    H143864   1.844   4.172  11.731 -3.6170  0.9697 -0.4761
 7483TIP3    H243865   1.915   4.128  11.605  1.3102 -0.8136  2.6131
 7484TIP3   OH243866   1.822   0.537   0.182  0.1009 -0.2386 -0.3950
 7484TIP3    H143867   1.861   0.579   0.106  0.7164  0.3647  0.2367
 7484TIP3    H243868   1.751   0.595   0.210  0.0023 -0.3593 -0.3904
 7485TIP3   OH243869   1.018   2.321   3.194 -0.1295 -0.0293 -0.4026
 7485TIP3    H143870   1.109   2.330   3.220 -0.7480  1.1808  1.6026
 7485TIP3    H243871   0.975   2.398   3.231 -2.4189 -1.8302  0.9890
 7486TIP3   OH243872   4.492   6.190   6.317  0.4007  0.8109 -0.4365
 7486TIP3    H143873   4.479   6.197   6.412 -1.6246  1.3564 -0.7101
 7486TIP3    H243874   4.406   6.212   6.280  0.6012 -1.3536 -2.3424
 7487TIP3   OH243875   0.070   2.603   2.167  0.5124 -0.5980  0.3863
 7487TIP3    H143876   0.146   2.558   2.131  1.0302  1.0318 -0.6768
 7487TIP3    H243877   0.087   2.696   2.151 -1.0273 -0.0832  1.4610
 7488TIP3   OH243878   4.022   0.027  15.291  0.2232  0.2952 -0.4857
 7488TIP3    H143879   3.971   0.037  15.371 -0.4673  1.1226 -1.0120
 7488TIP3    H243880   3.968  -0.027  15.234  0.4302  0.2485 -0.6408
 7489TIP3   OH243881   0.489   5.079  11.769  0.6067 -0.7025  0.6753
 7489TIP3    H143882   0.436   5.139  11.822  1.6531  0.7076  0.1883
 7489TIP3    H243883   0.579   5.106  11.785  0.9906 -0.5841 -1.3873
 7490TIP3   OH243884   6.596   5.689  15.639  0.5166 -0.3048 -0.2486
 7490TIP3    H143885   6.563   5.709  15.726 -1.0470  0.0354 -0.8953
 7490TIP3    H243886   6.683   5.730  15.636  0.0396  0.8277  0.6980
 7491TIP3   OH243887   6.511   0.876  13.930 -0.5514  0.1117  0.8993
 7491TIP3    H143888   6.521   0.791  13.973  0.8827  0.5680  1.5152
 7491TIP3    H243889   6.484   0.854  13.841 -0.3029 -0.9905  1.0757
 7492TIP3   OH243890   1.193   6.341  10.017  0.5704 -0.0142  0.3359
 7492TIP3    H143891   1.131   6.414  10.014  2.2030  1.3858 -0.5286
 7492TIP3    H243892   1.255   6.359   9.947  1.4741 -1.8475  0.6109
 7493TIP3   OH243893   5.940   3.999  13.293 -0.1676 -0.2700 -0.1502
 7493TIP3    H143894   5.911   4.090  13.289  1.3549  0.2095 -1.6692
 7493TIP3    H243895   5.860   3.948  13.303 -1.4485  1.0383 -2.6554
 7494TIP3   OH243896   5.794   1.385   1.386 -0.5138 -0.0908  0.4192
 7494TIP3    H143897   5.784   1.468   1.433  3.0548  1.5179 -1.3286
 7494TIP3    H243898   5.758   1.402   1.299  0.6145 -0.2001 -0.0809
 7495TIP3   OH243899   3.206   1.789  13.099  0.4607  0.7209 -0.8239
 7495TIP3    H143900   3.231   1.872  13.139 -0.1110  1.0441 -1.1344
 7495TIP3    H243901   3.161   1.741  13.168 -0.7915  1.3997 -1.1503
 7496TIP3   OH243902   6.587   4.165   4.393 -0.0784 -0.4049 -0.1168
 7496TIP3    H143903   6.538   4.200   4.318 -2.4282 -3.5713 -0.2823
 7496TIP3    H243904   6.658   4.114   4.354  1.4287  1.4803  0.0368
 7497TIP3   OH243905   4.185   4.265  10.632  0.2509 -0.2973 -0.0044
 7497TIP3    H143906   4.247   4.214  10.580 -0.0612 -0.7985  0.0991
 7497TIP3    H243907   4.239   4.316  10.691  0.6281  0.4609 -0.9689
 7498TIP3   OH243908   4.755   1.651  10.052 -0.0271 -0.8919  0.8231
 7498TIP3    H143909   4.821   1.583  10.041  0.1853 -0.7213  1.0284
 7498TIP3    H243910   4.791   1.709  10.119 -0.2662 -0.6513  0.7471
 7499TIP3   OH243911   1.105   6.775  15.351  0.1482  0.5533 -0.2065
 7499TIP3    H143912   1.063   6.689  15.344  0.8619 -0.0156  1.7559
 7499TIP3    H243913   1.109   6.808  15.261 -0.8321 -1.1267 -0.9013
 7500TIP3   OH243914   0.961   5.500  16.697 -0.2129  0.1418 -0.1756
 7500TIP3    H143915   1.006   5.584  16.704  3.7686 -1.7318 -0.4204
 7500TIP3    H243916   0.913   5.505  16.615 -1.2278  2.5912  0.4995
 7501TIP3   OH243917   2.238   4.005  16.670  0.7106  0.1692 -0.1517
 7501TIP3    H143918   2.169   4.063  16.702  0.4604 -0.0395 -0.2972
 7501TIP3    H243919   2.307   4.010  16.735  0.9759  1.1352 -0.4878
 7502TIP3   OH243920   2.013   6.762   2.954  0.3993  0.2088  0.5723
 7502TIP3    H143921   2.060   6.721   2.882 -0.9325 -0.9260  0.3017
 7502TIP3    H243922   1.928   6.717   2.956 -0.6017  2.0236  1.1581
 7503TIP3   OH243923   5.556   1.384  12.536 -0.5123  0.0744 -0.2385
 7503TIP3    H143924   5.533   1.432  12.615 -0.4847 -0.7032  0.2619
 7503TIP3    H243925   5.577   1.296  12.567 -0.9386 -0.3747 -1.1616
 7504TIP3   OH243926   1.114   1.957  12.876  0.0493 -0.2892 -0.0634
 7504TIP3    H143927   1.203   1.946  12.843 -0.2992 -1.4511 -0.6626
 7504TIP3    H243928   1.058   1.926  12.805 -0.9002  1.4819 -0.1463
 7505TIP3   OH243929   0.751   4.658  11.829  0.0672 -0.3766 -0.5484
 7505TIP3    H143930   0.685   4.643  11.761  0.1923  0.3108 -0.8298
 7505TIP3    H243931   0.705   4.705  11.898 -0.1748 -1.4648  0.0677
 7506TIP3   OH243932   0.320   3.768   3.370 -0.5392 -0.6330  0.0919
 7506TIP3    H143933   0.339   3.826   3.296 -1.4520  1.0225  1.0766
 7506TIP3    H243934   0.406   3.737   3.399  0.0555  0.7681 -0.0844
 7507TIP3   OH243935   4.667   2.251   2.897  0.2397  0.2044  0.3136
 7507TIP3    H143936   4.723   2.218   2.968  1.8313 -1.9578 -1.7761
 7507TIP3    H243937   4.727   2.262   2.823 -1.7087  0.2407 -1.3239
 7508TIP3   OH243938   5.192   4.271  14.169  0.4782 -0.0812 -0.9601
 7508TIP3    H143939   5.257   4.340  14.187 -0.3346  0.1552  1.5904
 7508TIP3    H243940   5.121   4.317  14.126 -0.4088  0.9843  1.4408
 7509TIP3   OH243941   6.834   4.167  11.518  0.2462  0.1625 -0.3176
 7509TIP3    H143942   6.868   4.120  11.594  2.3163  0.4236 -1.0124
 7509TIP3    H243943   6.763   4.111  11.485  1.0199 -1.2375  0.3054
 7510TIP3   OH243944   1.959   0.438   4.695  0.3128 -0.1822  0.0024
 7510TIP3    H143945   1.961   0.428   4.791  0.7039 -1.2549 -0.1002
 7510TIP3    H243946   1.895   0.507   4.680  1.5274  1.2486  1.1254
 7511TIP3   OH243947   1.526   0.265   2.611 -0.1999 -0.2564 -0.7459
 7511TIP3    H143948   1.540   0.301   2.699 -0.9161  1.2815 -1.2132
 7511TIP3    H243949   1.446   0.214   2.619 -0.6072  0.3842 -0.6184
 7512TIP3   OH243950   1.662   6.853  16.536 -0.0115 -0.0282 -0.0205
 7512TIP3    H143951   1.631   6.834  16.624  0.0839  0.2300  0.0697
 7512TIP3    H243952   1.649   6.771  16.487 -0.1331 -0.1478  0.2120
 7513TIP3   OH243953   1.620   6.802  12.066 -0.4677 -0.2521  0.5060
 7513TIP3    H143954   1.554   6.840  12.008  0.4758  0.4680 -0.1315
 7513TIP3    H243955   1.664   6.736  12.013  0.3094  0.3116  0.4476
 7514TIP3   OH243956   0.074   6.314  10.973 -0.5524  0.7783  0.6076
 7514TIP3    H143957   0.134   6.374  10.928  0.4608  0.4770  1.5199
 7514TIP3    H243958  -0.005   6.366  10.988 -0.3310  1.3483 -0.1414
 7515TIP3   OH243959   2.345   4.698   4.251 -0.1496 -1.1616 -0.4750
 7515TIP3    H143960   2.415   4.633   4.245  1.0883  0.2438 -3.1611
 7515TIP3    H243961   2.390   4.778   4.279 -1.3787 -1.0106  1.2414
 7516TIP3   OH243962   6.412   3.778   4.368  0.3092  0.0107 -1.1551
 7516TIP3    H143963   6.430   3.763   4.460 -1.7381  0.9698 -0.5491
 7516TIP3    H243964   6.469   3.716   4.322  0.0457 -1.7721  0.7977
 7517TIP3   OH243965   3.433   6.524  15.221 -0.2785 -0.3690 -0.0629
 7517TIP3    H143966   3.406   6.488  15.306  0.2319  0.3280  0.4082
 7517TIP3    H243967   3.402   6.614  15.223 -1.0435 -0.5934 -0.9992
 7518TIP3   OH243968   3.437   3.230   2.796  0.2502  0.3538  0.5810
 7518TIP3    H143969   3.380   3.159   2.769 -1.2399  2.1529 -1.3492
 7518TIP3    H243970   3.524   3.190   2.802 -0.2938 -1.3747 -1.7429
 7519TIP3   OH243971   3.000   4.464   0.038 -0.4449  0.7800  0.0901
 7519TIP3    H143972   3.023   4.556   0.027  0.6199  0.5017 -0.1244
 7519TIP3    H243973   2.967   4.436  -0.047  0.3702  0.6601 -0.1925
 7520TIP3   OH243974   0.562   2.660  13.532 -0.2034  0.1481 -0.0409
 7520TIP3    H143975   0.485   2.700  13.491 -0.4238 -0.5223 -0.3014
 7520TIP3    H243976   0.556   2.567  13.508  1.2907  0.2741 -1.0096
 7521TIP3   OH243977   4.228   1.051  12.836 -0.1633  0.7982  0.0071
 7521TIP3    H143978   4.242   0.958  12.855  0.1544  1.1830  1.7577
 7521TIP3    H243979   4.198   1.052  12.745 -0.2707 -1.0206 -0.0105
 7522TIP3   OH243980   5.301   1.661  15.753 -0.7423  0.1908  0.7011
 7522TIP3    H143981   5.286   1.727  15.684 -0.7264  1.1619  1.6001
 7522TIP3    H243982   5.394   1.639  15.744 -1.0063 -0.5559 -0.3242
 7523TIP3   OH243983   6.106   0.514   4.189  0.8406  0.3203  0.6590
 7523TIP3    H143984   6.129   0.449   4.123 -0.4234 -0.9803  1.4428
 7523TIP3    H243985   6.131   0.598   4.150 -1.1212 -0.2537 -2.0855
 7524TIP3   OH243986   2.205   5.043   4.138 -0.4220  0.7390  0.6159
 7524TIP3    H143987   2.259   5.046   4.217 -2.0290 -1.5913  1.9237
 7524TIP3    H243988   2.263   5.010   4.070  0.3858  0.3980  1.4479
 7525TIP3   OH243989   2.259   5.797   5.724 -0.5431 -0.2544  0.2913
 7525TIP3    H143990   2.204   5.865   5.763  0.1242 -0.2596  1.2668
 7525TIP3    H243991   2.343   5.840   5.710  0.5544 -1.3777  2.8407
 7526TIP3   OH243992   6.854   1.580   5.699  0.3725 -0.5842 -0.4280
 7526TIP3    H143993   6.771   1.544   5.726 -0.1267  1.7555  1.4779
 7526TIP3    H243994   6.897   1.608   5.780  0.2634  3.7607 -1.6034
 7527TIP3   OH243995   0.977   1.090  11.795 -0.2560 -0.0342 -0.4633
 7527TIP3    H143996   1.014   1.165  11.749 -1.3731  1.1813  0.5584
 7527TIP3    H243997   1.052   1.051  11.840  0.4431  0.0824 -1.4951
 7528TIP3   OH243998   0.521   0.129  13.150  0.2368 -0.1223  0.0334
 7528TIP3    H143999   0.507   0.184  13.227 -1.0553 -0.0613 -0.2267
 7528TIP3    H244000   0.434   0.101  13.124  0.9018 -3.6596  1.1086
 7529TIP3   OH244001   4.879   5.029  13.154  0.0630  0.1441 -0.1500
 7529TIP3    H144002   4.903   5.122  13.149 -2.9682  1.0089 -0.4540
 7529TIP3    H244003   4.819   5.016  13.080  0.5570 -2.1439 -0.2141
 7530TIP3   OH244004   3.090   0.519  14.240  0.3528 -0.8985 -0.0723
 7530TIP3    H144005   3.039   0.466  14.300  0.8530 -0.2805  0.9206
 7530TIP3    H244006   3.037   0.597  14.224  0.0468 -1.2401 -0.7571
 7531TIP3   OH244007   1.745   4.466   2.617 -0.1632  0.1916  0.5896
 7531TIP3    H144008   1.745   4.469   2.713 -0.3250  0.3648  0.5849
 7531TIP3    H244009   1.676   4.527   2.591  2.4916  3.3572  0.2779
 7532TIP3   OH244010   2.925   0.784   0.111  0.2473  0.5397  0.3778
 7532TIP3    H144011   2.852   0.729   0.138 -0.0293  0.4967 -0.4310
 7532TIP3    H244012   2.887   0.870   0.095 -0.1819 -0.1032 -2.6207
 7533TIP3   OH244013   6.680   1.853  12.695  0.1434 -0.2288  0.1083
 7533TIP3    H144014   6.626   1.804  12.633 -1.5586  1.4971  0.0997
 7533TIP3    H244015   6.720   1.922  12.643 -1.1406  1.1152  0.7966
 7534TIP3   OH244016   5.581   2.751  14.340  0.3070  0.3461  0.2251
 7534TIP3    H144017   5.523   2.811  14.293 -0.3344  0.8330  1.5806
 7534TIP3    H244018   5.662   2.751  14.289  0.6033  2.9712  0.5667
 7535TIP3   OH244019   2.308   3.091   2.681 -0.0614 -0.2065 -0.2402
 7535TIP3    H144020   2.336   3.010   2.639  3.4291  0.4740  0.4976
 7535TIP3    H244021   2.385   3.148   2.677 -1.8728  2.4930  0.7199
 7536TIP3   OH244022   2.242   2.452   2.796  0.2246 -0.0728  0.4746
 7536TIP3    H144023   2.197   2.371   2.772 -0.0446 -0.1582  1.2384
 7536TIP3    H244024   2.322   2.423   2.840  1.7986  0.0520 -2.0734
 7537TIP3   OH244025   1.907   0.362   1.026 -0.4020  0.2958 -0.2688
 7537TIP3    H144026   1.813   0.367   1.043 -0.4940 -0.1189 -0.6307
 7537TIP3    H244027   1.932   0.275   1.056 -0.5425 -0.4102 -2.0714
 7538TIP3   OH244028   2.951   2.139  13.489 -0.4741 -0.2035  0.0029
 7538TIP3    H144029   2.881   2.186  13.442  0.4994  2.1507  0.7630
 7538TIP3    H244030   2.993   2.206  13.543  5.2878 -0.2561 -3.6074
 7539TIP3   OH244031   6.390   2.170  14.564  0.5332  0.2004  0.7690
 7539TIP3    H144032   6.327   2.115  14.517  2.0111 -0.0030 -1.0769
 7539TIP3    H244033   6.411   2.120  14.643  0.3376 -0.9476  0.1160
 7540TIP3   OH244034   2.378   5.463   4.911 -0.1567  0.5876  0.3434
 7540TIP3    H144035   2.351   5.452   5.002  1.6270 -1.2321  0.7272
 7540TIP3    H244036   2.365   5.377   4.872  0.0759  1.0769 -0.8607
 7541TIP3   OH244037   2.378   4.123   6.182  0.3788 -0.0956 -0.0463
 7541TIP3    H144038   2.288   4.092   6.172  0.5014 -0.4188 -0.1605
 7541TIP3    H244039   2.401   4.103   6.272  0.2805  0.1444  0.0347
 7542TIP3   OH244040   3.816   1.364   2.118 -0.2209 -0.4809  0.8109
 7542TIP3    H144041   3.752   1.432   2.099 -0.5372 -0.9624  0.1114
 7542TIP3    H244042   3.846   1.382   2.208  1.0704  1.6722  0.0107
 7543TIP3   OH244043   3.032   1.568   0.993 -0.0775  0.3533 -0.9021
 7543TIP3    H144044   3.007   1.475   0.997 -1.2783  0.5300 -2.9263
 7543TIP3    H244045   3.122   1.569   1.027  1.3912 -2.2085 -4.0138
 7544TIP3   OH244046   1.813   1.686   5.020  0.5322 -0.6348 -0.3288
 7544TIP3    H144047   1.792   1.602   4.978 -3.0343 -1.2117  2.1549
 7544TIP3    H244048   1.870   1.662   5.094  0.7221 -0.6623 -0.4835
 7545TIP3   OH244049   6.134   2.643   1.759  0.4251  0.4816  0.1194
 7545TIP3    H144050   6.187   2.625   1.681 -0.2885  0.6385 -0.4046
 7545TIP3    H244051   6.046   2.658   1.725  0.0091  0.0804  1.0005
 7546TIP3   OH244052   6.116   6.263  11.020 -0.1353  0.0599 -0.0192
 7546TIP3    H144053   6.177   6.278  10.948  1.1116  0.8546  1.1334
 7546TIP3    H244054   6.160   6.196  11.074  1.0116  2.3655  2.1216
 7547TIP3   OH244055   4.957   3.218  11.146  0.1678 -0.0123 -0.3988
 7547TIP3    H144056   4.864   3.234  11.132 -0.2362  1.3663  2.9885
 7547TIP3    H244057   5.001   3.293  11.105 -0.4073  0.5627  0.0261
 7548TIP3   OH244058   3.261   5.421  11.716  0.2642  0.2744 -0.3561
 7548TIP3    H144059   3.251   5.335  11.676  0.8778  0.1544 -0.2731
 7548TIP3    H244060   3.356   5.434  11.719  0.1869  0.7607  0.0394
 7549TIP3   OH244061   5.838   0.577  16.691  0.0534  0.8646  0.0989
 7549TIP3    H144062   5.764   0.522  16.664  0.9414  0.3325 -1.2931
 7549TIP3    H244063   5.819   0.663  16.654  0.1459  0.7190 -0.2889
 7550TIP3   OH244064   0.254   2.533   1.371  0.0873 -0.2417 -0.1646
 7550TIP3    H144065   0.317   2.487   1.427  0.3602 -0.7737 -0.8987
 7550TIP3    H244066   0.287   2.521   1.282  0.6380  2.0954 -0.3502
 7551TIP3   OH244067   6.839   6.110  12.429 -0.3444  0.0057 -0.1470
 7551TIP3    H144068   6.862   6.025  12.392  0.1804 -0.0715  0.3422
 7551TIP3    H244069   6.767   6.090  12.490 -1.3527  0.1629 -1.2441
 7552TIP3   OH244070   4.575   2.031  16.700  0.3812 -0.0354  0.1708
 7552TIP3    H144071   4.626   2.022  16.619  0.8184 -2.4290  0.6244
 7552TIP3    H244072   4.636   2.072  16.762  0.3241  1.0076 -0.4313
 7553TIP3   OH244073   2.275   3.939  13.771  0.1358  0.2112  0.7464
 7553TIP3    H144074   2.290   3.950  13.677 -0.7665  0.7254  0.6536
 7553TIP3    H244075   2.279   3.844  13.785 -0.6182  0.0599  0.0216
 7554TIP3   OH244076   2.618   2.904  13.967  0.1626  0.5186  0.2193
 7554TIP3    H144077   2.527   2.879  13.986  0.2627 -0.0549 -0.0246
 7554TIP3    H244078   2.670   2.835  14.008  0.4812  0.7753  0.2449
 7555TIP3   OH244079   4.271   1.666   1.290  0.3702 -0.1654 -0.4227
 7555TIP3    H144080   4.271   1.613   1.370  0.1408 -0.6313 -0.7324
 7555TIP3    H244081   4.354   1.645   1.247  0.4241 -0.0295 -0.3865
 7556TIP3   OH244082   6.042   4.032   4.215 -0.0689 -0.1109  0.0266
 7556TIP3    H144083   6.122   4.085   4.208 -0.4660  0.4697 -0.2089
 7556TIP3    H244084   6.046   3.994   4.302  0.1378  0.4619  0.2717
 7557TIP3   OH244085   1.691   2.416   2.407  0.6290  0.2190 -0.4076
 7557TIP3    H144086   1.647   2.411   2.492 -0.3517 -0.8565 -0.9552
 7557TIP3    H244087   1.630   2.463   2.351  0.8583  0.1074 -0.7523
 7558TIP3   OH244088   2.509   0.122   1.566 -0.2133  0.1059  0.0554
 7558TIP3    H144089   2.537   0.167   1.486 -0.2845 -0.5882 -0.3710
 7558TIP3    H244090   2.416   0.105   1.552 -0.7113  1.7358  1.1461
 7559TIP3   OH244091   1.550   6.329  15.026  0.2717 -0.7684  0.1569
 7559TIP3    H144092   1.493   6.292  15.093  1.0983 -0.8916  0.8153
 7559TIP3    H244093   1.503   6.317  14.944 -1.2542  0.3658  0.8273
 7560TIP3   OH244094   1.693   5.038   1.831  0.0067 -0.6779  0.3332
 7560TIP3    H144095   1.778   5.083   1.837  0.4793 -1.5481  0.2328
 7560TIP3    H244096   1.643   5.074   1.904 -0.0723  0.9214 -0.4500
 7561TIP3   OH244097   2.518   3.709   5.544  0.1882 -0.3127 -0.2499
 7561TIP3    H144098   2.548   3.632   5.592 -0.6906  0.1096  1.0247
 7561TIP3    H244099   2.423   3.701   5.543  0.0178  1.1942  0.7137
 7562TIP3   OH244100   1.364   6.509  11.334  0.6133  0.0981 -0.5564
 7562TIP3    H144101   1.369   6.548  11.421 -0.0661 -0.2563 -0.3505
 7562TIP3    H244102   1.420   6.432  11.338 -0.1334 -0.4319 -0.1469
 7563TIP3   OH244103   0.214   5.752  12.530  0.3972 -0.0725  0.3592
 7563TIP3    H144104   0.193   5.823  12.591 -2.0465  0.3787 -0.8974
 7563TIP3    H244105   0.144   5.688  12.542  0.5707 -0.5579 -1.0713
 7564TIP3   OH244106   5.769   4.795   2.451  0.6246  0.5588 -0.5543
 7564TIP3    H144107   5.819   4.874   2.428  1.1503  0.4007  0.0101
 7564TIP3    H244108   5.703   4.826   2.513  0.7135  0.5892 -0.4742
 7565TIP3   OH244109   4.057   4.649  14.267 -0.1416  0.0581  0.0911
 7565TIP3    H144110   4.126   4.715  14.252  1.1554 -1.0026  1.0887
 7565TIP3    H244111   4.037   4.615  14.180  0.6710  0.3267 -0.2168
 7566TIP3   OH244112   0.975   2.150  16.599  0.0863 -0.4113 -0.1104
 7566TIP3    H144113   1.037   2.148  16.672 -0.2182 -1.1850  0.1421
 7566TIP3    H244114   0.972   2.060  16.567  1.3128  0.1775 -2.0536
 7567TIP3   OH244115   0.024   5.147  15.161  0.4939  0.5545 -0.2734
 7567TIP3    H144116   0.089   5.208  15.125 -0.2701  1.7851  0.3505
 7567TIP3    H244117  -0.059   5.194  15.155 -0.0461 -0.2288  0.7011
 7568TIP3   OH244118   2.130   5.318  12.703 -0.0665 -0.5043 -0.2638
 7568TIP3    H144119   2.189   5.294  12.631  0.0370  0.3630 -0.4893
 7568TIP3    H244120   2.185   5.368  12.763 -0.6496  0.7016 -0.6973
 7569TIP3   OH244121   3.011   5.174   0.406  1.0517 -0.4779  0.6864
 7569TIP3    H144122   2.938   5.116   0.386  0.4330  0.8313 -1.0511
 7569TIP3    H244123   3.036   5.212   0.322  2.4463  0.6171  1.5423
 7570TIP3   OH244124   4.918   5.716  13.989  0.2074 -0.2239  0.6845
 7570TIP3    H144125   4.939   5.715  14.082  3.5458 -1.5260  0.0777
 7570TIP3    H244126   4.918   5.624  13.963 -1.1001  0.0864 -0.5635
 7571TIP3   OH244127   4.699   2.569   2.043 -0.1367  0.2219 -0.4634
 7571TIP3    H144128   4.771   2.628   2.068 -1.2891  2.2165 -1.6066
 7571TIP3    H244129   4.665   2.537   2.126  0.8143  0.8134  0.1813
 7572TIP3   OH244130   2.321   5.016   2.751 -0.0542 -0.2224  0.1320
 7572TIP3    H144131   2.258   5.081   2.782 -0.5498 -0.9599  0.6959
 7572TIP3    H244132   2.400   5.066   2.734  0.0893  0.3197  2.1005
 7573TIP3   OH244133   2.203   2.290  13.364  0.0935 -0.5703 -0.6661
 7573TIP3    H144134   2.220   2.202  13.330 -0.7297 -0.2565 -1.9424
 7573TIP3    H244135   2.113   2.309  13.338  0.7939  1.3127 -1.9324
 7574TIP3   OH244136   0.134   3.365   2.717 -0.4733 -0.1065  0.1181
 7574TIP3    H144137   0.181   3.281   2.709 -1.4287 -0.6836  0.3896
 7574TIP3    H244138   0.054   3.352   2.667 -0.6743  0.6154  0.2520
 7575TIP3   OH244139   0.442   1.326  10.362 -0.0623  0.0040 -0.4688
 7575TIP3    H144140   0.504   1.260  10.395 -0.1886 -0.0874 -0.4147
 7575TIP3    H244141   0.455   1.325  10.267 -0.5284 -0.5675 -0.5319
 7576TIP3   OH244142   0.866   4.458  16.057 -0.1884  0.2516 -0.1390
 7576TIP3    H144143   0.859   4.460  16.153 -2.6496 -1.7022 -0.1678
 7576TIP3    H244144   0.952   4.421  16.040  0.5092  1.1213  1.2775
 7577TIP3   OH244145   5.041   5.676   1.858 -0.0065  0.0069 -0.4947
 7577TIP3    H144146   5.034   5.730   1.779  1.5775 -0.3029 -0.8738
 7577TIP3    H244147   5.114   5.714   1.906 -1.0434  0.2866  0.9298
 7578TIP3   OH244148   6.069   3.415  11.095 -0.5640 -0.4071  0.2014
 7578TIP3    H144149   6.061   3.433  11.001  1.8585  0.5210  0.0982
 7578TIP3    H244150   6.105   3.495  11.132 -1.2711 -0.8416  1.9142
 7579TIP3   OH244151   5.090   1.634  13.414 -0.0663  0.4927 -0.0071
 7579TIP3    H144152   5.104   1.543  13.440 -0.6469  0.7169  1.1704
 7579TIP3    H244153   5.024   1.629  13.345 -0.8920  0.0624  0.7806
 7580TIP3   OH244154   3.589   4.961  15.493 -0.3596 -0.2315  0.1252
 7580TIP3    H144155   3.519   4.955  15.428 -1.2178 -0.9555  1.0635
 7580TIP3    H244156   3.543   4.962  15.577  0.7617 -2.1385  0.8488
 7581TIP3   OH244157   0.196   5.306  15.042  0.1046 -0.1295  0.7691
 7581TIP3    H144158   0.138   5.334  14.971  0.2084  0.1126  0.7794
 7581TIP3    H244159   0.219   5.386  15.088  0.4275 -0.2250  0.7799
 7582TIP3   OH244160   1.596   1.898   0.887  0.1530  0.4267  0.4344
 7582TIP3    H144161   1.504   1.881   0.864  0.3606  0.1813 -0.2265
 7582TIP3    H244162   1.613   1.840   0.962 -0.9637  2.3069  2.2616
 7583TIP3   OH244163   5.470   1.215   0.954 -0.0778  0.2899 -0.1234
 7583TIP3    H144164   5.434   1.274   0.887 -0.2899  1.4189  0.9497
 7583TIP3    H244165   5.544   1.172   0.911  0.2233  1.5049 -0.8785
 7584TIP3   OH244166   5.919   6.463   5.407 -0.1447 -0.1197  0.2096
 7584TIP3    H144167   5.844   6.519   5.426 -1.2692 -0.8485 -1.7239
 7584TIP3    H244168   5.928   6.467   5.311  2.5513  0.2481  0.3976
 7585TIP3   OH244169   5.089   3.257   0.859 -0.2057 -0.1441 -0.3136
 7585TIP3    H144170   5.009   3.283   0.815  1.2704  0.7067 -2.6814
 7585TIP3    H244171   5.066   3.255   0.952 -3.3142 -1.4055 -0.9960
 7586TIP3   OH244172   0.702   4.475   3.535  0.3523  0.0164 -0.7521
 7586TIP3    H144173   0.740   4.480   3.622 -1.3403 -0.6578  0.0620
 7586TIP3    H244174   0.776   4.488   3.476  1.0397  4.4012  0.7383
 7587TIP3   OH244175   2.343   4.054  11.093 -0.2183  0.3891  0.6858
 7587TIP3    H144176   2.401   4.068  11.018  1.2654 -1.6946  1.3466
 7587TIP3    H244177   2.282   3.986  11.063  0.4372 -0.5185  1.3450
 7588TIP3   OH244178   2.956   1.844   4.854  0.2337 -0.2445 -0.6232
 7588TIP3    H144179   2.894   1.885   4.795 -2.5686 -0.9845  1.6011
 7588TIP3    H244180   2.976   1.913   4.918 -1.0516 -0.9631  0.6058
 7589TIP3   OH244181   1.891   1.103   5.223 -0.1174 -0.4698 -0.2682
 7589TIP3    H144182   1.835   1.032   5.190  0.7980 -1.5753  0.4826
 7589TIP3    H244183   1.883   1.098   5.318  0.3165  0.1387 -0.1951
 7590TIP3   OH244184   1.616   5.782  12.729  0.0366  0.0721  0.0413
 7590TIP3    H144185   1.588   5.699  12.690  1.4631 -0.0105 -0.9239
 7590TIP3    H244186   1.637   5.760  12.820  0.5773 -0.6830 -0.2523
 7591TIP3   OH244187   4.887   2.889  15.175  0.1977  0.1844  0.3812
 7591TIP3    H144188   4.843   2.804  15.169  0.3999  0.0767  0.4136
 7591TIP3    H244189   4.823   2.946  15.217  0.3261 -0.1373  1.0195
 7592TIP3   OH244190   4.128   6.752   1.459 -0.1135 -0.1431 -0.0934
 7592TIP3    H144191   4.174   6.759   1.543 -1.0872 -0.9282  0.5173
 7592TIP3    H244192   4.097   6.841   1.442  1.0554  0.2685 -0.2106
 7593TIP3   OH244193   3.370   6.631  16.456 -0.2324  0.1636 -0.3071
 7593TIP3    H144194   3.376   6.589  16.542  0.8037  0.7323 -0.0760
 7593TIP3    H244195   3.300   6.696  16.466 -0.7682 -0.4175 -0.1957
 7594TIP3   OH244196   3.364   4.220   5.182  0.1877 -0.1455  0.0092
 7594TIP3    H144197   3.395   4.310   5.193 -0.0027 -0.0767 -0.0122
 7594TIP3    H244198   3.440   4.165   5.203  0.2061  0.0110  0.3505
 7595TIP3   OH244199   2.717   3.534  14.286  0.7378 -0.1185 -0.1462
 7595TIP3    H144200   2.774   3.587  14.230  2.7339 -0.4073  1.4700
 7595TIP3    H244201   2.712   3.449  14.243 -0.2199  0.5253 -1.3537
 7596TIP3   OH244202   2.241   3.031  11.792 -0.3791  0.2638 -0.1719
 7596TIP3    H144203   2.257   3.002  11.882  0.0989  0.6034 -0.1412
 7596TIP3    H244204   2.316   3.087  11.771 -0.4189  0.0813 -0.8285
 7597TIP3   OH244205   0.440   4.338   3.177  0.0797  0.2694 -0.3822
 7597TIP3    H144206   0.487   4.327   3.095  1.6864 -1.5922  0.6848
 7597TIP3    H244207   0.408   4.251   3.198  0.6128  0.4658  1.4372
 7598TIP3   OH244208   2.364   0.511  16.658  0.0363  0.2769  0.7508
 7598TIP3    H144209   2.439   0.469  16.700  1.3287  1.5285 -0.1713
 7598TIP3    H244210   2.326   0.444  16.602  1.5438  0.0634 -0.0647
 7599TIP3   OH244211   0.039   6.356   0.071 -0.4565 -0.3325 -0.5542
 7599TIP3    H144212   0.061   6.400  -0.011  2.5185 -0.2835  0.1319
 7599TIP3    H244213   0.022   6.427   0.132  1.2528 -0.1434 -0.2285
 7600TIP3   OH244214   5.292   0.879   4.368 -0.0983 -0.4213  0.1648
 7600TIP3    H144215   5.377   0.909   4.337  0.4642 -1.0598  1.0449
 7600TIP3    H244216   5.230   0.943   4.334  0.8230  0.4907  0.1546
 7601TIP3   OH244217   6.734   1.413   2.134  0.2840 -0.0412  0.5860
 7601TIP3    H144218   6.821   1.384   2.107 -0.7755 -2.7743 -0.2318
 7601TIP3    H244219   6.708   1.352   2.202 -0.4495  1.6786  1.9330
 7602TIP3   OH244220   2.273   0.651   2.205 -0.2282 -0.3721 -0.1449
 7602TIP3    H144221   2.201   0.610   2.253 -1.4503 -0.5253 -2.0158
 7602TIP3    H244222   2.349   0.639   2.262 -1.5211 -0.8354  1.5778
 7603TIP3   OH244223   0.265   3.733  11.038 -0.2299 -0.0938  0.0083
 7603TIP3    H144224   0.179   3.696  11.058 -0.9041  0.9220 -0.8439
 7603TIP3    H244225   0.259   3.824  11.068  1.2545 -0.5165  1.7447
 7604TIP3   OH244226   6.271   6.119   1.118  0.0485  0.1588 -0.3798
 7604TIP3    H144227   6.258   6.069   1.199  1.2813  1.3396  0.6107
 7604TIP3    H244228   6.186   6.157   1.098 -0.4185 -0.6719 -0.0022
 7605TIP3   OH244229   6.084   6.049  14.813  0.2219  0.4714 -0.1298
 7605TIP3    H144230   6.165   6.032  14.862  1.1241 -0.3400 -1.8126
 7605TIP3    H244231   6.046   6.126  14.855  0.2548 -0.8922  2.6459
 7606TIP3   OH244232   5.220   3.012  13.106 -0.4357  0.3215 -0.3952
 7606TIP3    H144233   5.209   2.977  13.018 -0.4217 -1.8520  0.3961
 7606TIP3    H244234   5.287   2.957  13.146  1.0666  2.5541  0.3710
 7607TIP3   OH244235   2.360   6.627  12.567  0.2232 -0.3179  0.2023
 7607TIP3    H144236   2.283   6.601  12.619 -1.2214 -0.0129 -1.6860
 7607TIP3    H244237   2.385   6.712  12.604 -0.5636 -0.2498  0.6147
 7608TIP3   OH244238   5.233   1.035  16.331  0.0823  0.0021  0.1778
 7608TIP3    H144239   5.203   0.968  16.270  1.3983  1.0779 -1.7624
 7608TIP3    H244240   5.247   1.112  16.276  0.0438  1.4419  2.0898
 7609TIP3   OH244241   0.468   3.375   5.657 -0.1132 -0.2699  0.4015
 7609TIP3    H144242   0.446   3.307   5.721 -0.4576  0.1627  0.7472
 7609TIP3    H244243   0.391   3.432   5.655  0.5183  0.6207  0.7894
 7610TIP3   OH244244   1.003   0.780  11.711 -0.4717 -1.1894 -0.3803
 7610TIP3    H144245   1.049   0.746  11.634  3.2258  2.0503  0.0805
 7610TIP3    H244246   0.976   0.868  11.686 -1.4144 -0.9541  1.2892
 7611TIP3   OH244247   4.558   2.149  10.848  0.0755  0.7191 -0.0249
 7611TIP3    H144248   4.526   2.174  10.762 -1.4988  0.3209  0.4174
 7611TIP3    H244249   4.480   2.121  10.896  1.2506 -1.4985  0.7171
 7612TIP3   OH244250   0.724   4.196  16.464  0.3019  0.2998 -0.0110
 7612TIP3    H144251   0.804   4.161  16.501 -1.0350 -3.5694 -0.3528
 7612TIP3    H244252   0.748   4.221  16.374  1.4439  0.7510  0.4086
 7613TIP3   OH244253   1.297   5.535  13.648 -0.3210  0.1476  0.0183
 7613TIP3    H144254   1.285   5.627  13.670  0.3734  0.6962 -1.7483
 7613TIP3    H244255   1.322   5.494  13.731 -1.1996  1.4165  0.9481
 7614TIP3   OH244256   3.411   6.036   5.586  0.0422  0.4678  0.7082
 7614TIP3    H144257   3.487   6.005   5.635 -0.5729 -0.6695  0.9668
 7614TIP3    H244258   3.336   6.007   5.637 -0.5893  1.6121  0.4758
 7615TIP3   OH244259   5.450   4.929   1.106  0.1300  0.0360 -0.1585
 7615TIP3    H144260   5.393   5.005   1.113 -0.7491 -0.6231  0.0542
 7615TIP3    H244261   5.534   4.964   1.078 -0.1671  1.1187  0.2568
 7616TIP3   OH244262   3.468   2.950   0.273 -0.3235  0.9922 -0.1180
 7616TIP3    H144263   3.540   3.012   0.289  1.1893 -0.8049  0.3161
 7616TIP3    H244264   3.413   2.956   0.352  0.7497  0.5827  0.6856
 7617TIP3   OH244265   2.867   4.323  10.664 -0.0261 -0.3339 -0.1382
 7617TIP3    H144266   2.808   4.390  10.629 -0.0593 -0.3744 -0.1598
 7617TIP3    H244267   2.933   4.310  10.595  0.9465  0.8677  0.5242
 7618TIP3   OH244268   5.631   2.414   4.130  0.0597 -0.0893 -0.4745
 7618TIP3    H144269   5.661   2.486   4.186  0.0035 -1.0271  0.8172
 7618TIP3    H244270   5.541   2.437   4.108 -1.0909 -1.1209  2.5013
 7619TIP3   OH244271   0.079   1.725   3.184  0.1591  0.1222  0.4318
 7619TIP3    H144272   0.148   1.737   3.249 -0.3828  1.3797  0.7984
 7619TIP3    H244273   0.058   1.813   3.154 -1.2810 -0.2288  0.3205
 7620TIP3   OH244274   3.468   2.493  12.904 -0.5978 -0.2466  0.3483
 7620TIP3    H144275   3.494   2.534  12.822 -1.5103 -0.9630 -0.3173
 7620TIP3    H244276   3.470   2.564  12.968 -0.5947  0.4822 -0.4483
 7621TIP3   OH244277   0.815   1.925  13.601  0.4977  0.6656 -0.7122
 7621TIP3    H144278   0.886   1.884  13.651 -0.6668  0.6448  1.0087
 7621TIP3    H244279   0.763   1.971  13.667 -1.4428  0.1721 -1.8363
 7622TIP3   OH244280   4.089   3.670   3.147  0.5118 -0.0204  0.3125
 7622TIP3    H144281   4.052   3.756   3.131 -1.0578 -0.4919  1.1805
 7622TIP3    H244282   4.097   3.664   3.242 -0.4003 -1.1879  0.3491
 7623TIP3   OH244283   5.643   3.341   2.410 -0.4337 -0.1557  0.6518
 7623TIP3    H144284   5.737   3.358   2.396 -0.8947  1.8105 -0.4239
 7623TIP3    H244285   5.636   3.320   2.503  1.2789 -2.1534  0.4087
 7624TIP3   OH244286   4.074   5.717  15.269  0.4652  0.1521  0.1066
 7624TIP3    H144287   4.098   5.625  15.275  0.4101  0.1238 -0.1278
 7624TIP3    H244288   4.103   5.754  15.353  2.9187  0.4790 -0.7947
 7625TIP3   OH244289   2.908   4.125   3.852 -0.1412 -0.5642 -0.0783
 7625TIP3    H144290   2.877   4.095   3.767  1.8859 -1.6270 -0.4841
 7625TIP3    H244291   2.995   4.160   3.836  0.0521 -0.2370  1.4729
 7626TIP3   OH244292   1.234   4.524   4.664 -0.3167  0.1280  0.4658
 7626TIP3    H144293   1.230   4.448   4.606  1.5936  0.1276  0.2634
 7626TIP3    H244294   1.165   4.508   4.729 -1.3222 -0.7319 -0.7706
 7627TIP3   OH244295   4.370   6.404  12.743 -0.2936  0.0053  0.7247
 7627TIP3    H144296   4.300   6.406  12.807  0.5414  1.0448  1.6457
 7627TIP3    H244297   4.433   6.341  12.778 -0.0328  0.2585  0.7161
 7628TIP3   OH244298   3.378   1.511   3.577  0.5365 -0.1012  0.3731
 7628TIP3    H144299   3.387   1.527   3.483  3.5314 -0.9081  0.4415
 7628TIP3    H244300   3.305   1.448   3.583 -0.8983  1.3043 -1.1774
 7629TIP3   OH244301   2.053   1.911   0.303  0.0593  0.4685 -0.0476
 7629TIP3    H144302   2.012   1.997   0.300 -2.3958 -0.6053 -0.1549
 7629TIP3    H244303   2.077   1.899   0.395 -1.0305  0.6958  0.2911
 7630TIP3   OH244304   2.349   5.499   0.521 -1.1160  0.0734 -0.2996
 7630TIP3    H144305   2.364   5.487   0.615  0.2007  0.7191 -0.4089
 7630TIP3    H244306   2.304   5.419   0.494  0.0585 -0.9050  0.5535
 7631TIP3   OH244307   0.139   5.193  14.603  0.4901  0.1716  0.9915
 7631TIP3    H144308   0.085   5.149  14.538  2.1448  0.7216 -0.8492
 7631TIP3    H244309   0.077   5.224  14.669 -1.3513  0.2189 -0.6787
 7632TIP3   OH244310   3.295   6.413  14.576 -0.5309  0.0249  0.2229
 7632TIP3    H144311   3.304   6.326  14.537 -1.4967 -0.3893  0.8814
 7632TIP3    H244312   3.285   6.396  14.670 -0.8313  0.8459  0.3456
 7633TIP3   OH244313   4.609   2.781  10.601  0.2745 -0.4173 -0.0256
 7633TIP3    H144314   4.584   2.703  10.650 -0.9315  0.1124  0.2591
 7633TIP3    H244315   4.561   2.774  10.519 -2.5225  1.5370  1.2738
 7634TIP3   OH244316   4.034   4.337   1.000 -0.4209 -0.0774  0.2192
 7634TIP3    H144317   3.985   4.411   1.035 -0.9885  0.5881 -1.8282
 7634TIP3    H244318   4.124   4.352   1.029 -1.2459 -1.3513  4.0867
 7635TIP3   OH244319   5.266   1.853  14.980  0.3525  0.2742 -0.3182
 7635TIP3    H144320   5.188   1.803  15.006  0.1517 -0.1982 -1.7307
 7635TIP3    H244321   5.275   1.920  15.047 -0.7954 -0.1755  0.3210
 7636TIP3   OH244322   4.311   6.582   0.916  0.2458  0.2493 -0.4100
 7636TIP3    H144323   4.282   6.621   0.999 -1.7353 -1.0765 -0.3836
 7636TIP3    H244324   4.318   6.655   0.855 -0.1746  1.0193  0.4455
 7637TIP3   OH244325   5.137   3.686   1.923 -0.4235 -0.3229 -0.0567
 7637TIP3    H144326   5.189   3.749   1.873  0.8207  0.1689  1.7652
 7637TIP3    H244327   5.051   3.728   1.933 -0.3295  0.0551 -0.7964
 7638TIP3   OH244328   3.242   3.088   1.524 -0.0524  0.2450 -0.3896
 7638TIP3    H144329   3.190   3.158   1.562  0.7106  2.3269 -2.8855
 7638TIP3    H244330   3.333   3.112   1.543  0.1725 -1.4583  0.8888
 7639TIP3   OH244331   0.722   1.492  14.162  0.3628 -0.1245  0.4027
 7639TIP3    H144332   0.728   1.490  14.066  0.0681 -2.2369  0.3727
 7639TIP3    H244333   0.637   1.533  14.180 -1.3326 -2.9440 -0.4522
 7640TIP3   OH244334   2.494   0.837   5.578 -0.3762 -0.3167 -0.0996
 7640TIP3    H144335   2.441   0.911   5.605 -0.7796 -0.5972 -0.1154
 7640TIP3    H244336   2.445   0.760   5.607 -0.8036 -0.6301 -1.5508
 7641TIP3   OH244337   5.163   3.015   0.249 -0.1532  0.3556 -0.1487
 7641TIP3    H144338   5.122   2.949   0.305 -1.8802 -0.2510 -1.9877
 7641TIP3    H244339   5.219   3.065   0.308  0.3892 -2.0382  1.5277
 7642TIP3   OH244340   5.866   2.370   3.453  0.1215 -0.2533 -0.2214
 7642TIP3    H144341   5.875   2.330   3.539 -0.5163  1.1623  0.5448
 7642TIP3    H244342   5.773   2.359   3.432 -0.0131  0.5986 -0.0997
 7643TIP3   OH244343   1.964   1.756  16.470 -0.0817 -0.0326 -0.2383
 7643TIP3    H144344   2.055   1.787  16.478  0.4801 -1.3327 -1.2285
 7643TIP3    H244345   1.968   1.687  16.404 -1.9028  0.2444 -0.6914
 7644TIP3   OH244346   5.110   3.696   0.629  0.1339  0.2179  0.4343
 7644TIP3    H144347   5.128   3.713   0.721 -0.6103  0.9837  0.4444
 7644TIP3    H244348   5.114   3.601   0.621 -2.2213 -0.0499  1.7751
 7645TIP3   OH244349   1.967   3.168  12.788  1.0171  0.2841  0.1994
 7645TIP3    H144350   1.919   3.151  12.869  0.5390  0.9048  0.0533
 7645TIP3    H244351   2.050   3.121  12.799  1.3865  1.1777  1.5011
 7646TIP3   OH244352   1.062   1.416   2.793  0.3632 -0.0186  0.5883
 7646TIP3    H144353   1.124   1.357   2.750 -0.0316 -0.4130  0.5617
 7646TIP3    H244354   0.980   1.403   2.746  0.4868  1.2108 -0.0100
 7647TIP3   OH244355   2.899   0.623  13.976 -0.7931  0.0456  0.2681
 7647TIP3    H144356   2.940   0.662  14.054  2.2530  2.5978 -2.3021
 7647TIP3    H244357   2.808   0.654  13.979 -0.5506  0.7344  2.3801
 7648TIP3   OH244358   1.553   6.272   5.548  0.0576  0.2681 -0.0206
 7648TIP3    H144359   1.523   6.357   5.516  2.1109  0.4261 -1.7176
 7648TIP3    H244360   1.534   6.211   5.477 -0.5388 -0.5553  0.8129
 7649TIP3   OH244361   2.392   5.448  14.476  0.0590  0.0271  0.4379
 7649TIP3    H144362   2.376   5.404  14.392  0.3833  1.7943 -0.6100
 7649TIP3    H244363   2.305   5.471  14.507  0.0269  2.0443 -0.9747
 7650TIP3   OH244364   2.643   0.424  14.535 -0.2827  0.2312  0.4488
 7650TIP3    H144365   2.725   0.463  14.503  0.4191 -1.9293 -0.5866
 7650TIP3    H244366   2.658   0.409  14.628  0.5885 -0.3007  0.2319
 7651TIP3   OH244367   0.348   3.448   3.025  0.3890 -0.0007  0.0459
 7651TIP3    H144368   0.419   3.447   2.961  0.9280  3.5776  0.3983
 7651TIP3    H244369   0.275   3.490   2.980  1.0248  3.3361  1.7844
 7652TIP3   OH244370   1.705   0.847   5.285  0.5172  0.0766  0.2582
 7652TIP3    H144371   1.650   0.836   5.207 -0.3357  2.7571  0.3587
 7652TIP3    H244372   1.643   0.856   5.357  1.2272 -0.1969  0.9151
 7653TIP3   OH244373   0.567   3.664  15.952 -0.2232 -0.6840 -0.3310
 7653TIP3    H144374   0.608   3.737  15.906  1.1920 -0.7109  0.8256
 7653TIP3    H244375   0.478   3.694  15.968  0.6433  1.3169  1.1576
 7654TIP3   OH244376   3.418   3.826   2.459  0.4372 -0.0519  0.0456
 7654TIP3    H144377   3.408   3.742   2.414  0.1636  1.6028 -3.3008
 7654TIP3    H244378   3.339   3.833   2.513 -0.1051 -1.4068 -0.5165
 7655TIP3   OH244379   1.893   0.520  10.653 -0.4960 -0.2018  0.2530
 7655TIP3    H144380   1.828   0.549  10.718 -0.2465  2.4915 -0.6015
 7655TIP3    H244381   1.975   0.560  10.682 -0.2722  0.5803 -1.3885
 7656TIP3   OH244382   1.622   0.217   3.295  0.0850 -0.4457 -0.1887
 7656TIP3    H144383   1.564   0.141   3.310 -0.5672  0.1585  0.4375
 7656TIP3    H244384   1.663   0.199   3.210  1.7442 -2.6344  0.9825
 7657TIP3   OH244385   5.772   2.525  12.418 -0.1879  0.1269  0.4886
 7657TIP3    H144386   5.838   2.455  12.424 -0.6804 -0.2415  2.6829
 7657TIP3    H244387   5.688   2.479  12.415 -0.4408  0.6038 -1.9997
 7658TIP3   OH244388   5.781   4.514   1.950 -0.6418  0.0488  1.0325
 7658TIP3    H144389   5.836   4.454   1.900 -2.5985 -1.3234  0.3933
 7658TIP3    H244390   5.843   4.572   1.994  1.2800 -1.1814  0.1069
 7659TIP3   OH244391   4.683   1.549   2.082 -0.1736 -0.4418  0.2135
 7659TIP3    H144392   4.697   1.594   1.999 -0.7505 -1.0492 -0.2245
 7659TIP3    H244393   4.720   1.462   2.069 -0.2277 -0.5297  0.6170
 7660TIP3   OH244394   4.859   2.510  15.336  0.6709  0.5076 -0.2316
 7660TIP3    H144395   4.796   2.463  15.281  1.3867  0.0406 -0.6767
 7660TIP3    H244396   4.936   2.520  15.280  0.9653  1.1384  0.2755
 7661TIP3   OH244397   6.214   2.214  11.793  0.0356  0.9695  0.2836
 7661TIP3    H144398   6.164   2.243  11.869  0.2120 -0.2187  0.8666
 7661TIP3    H244399   6.282   2.158  11.828  0.9912  1.5082 -0.6314
 7662TIP3   OH244400   2.881   1.500  14.673 -0.0504  0.3704  0.5016
 7662TIP3    H144401   2.902   1.559  14.600 -1.1364  3.3282  2.3897
 7662TIP3    H244402   2.786   1.502  14.679 -0.1605 -1.9546  0.4414
 7663TIP3   OH244403   0.242   5.304  10.779  0.3129 -0.2701  0.4029
 7663TIP3    H144404   0.188   5.270  10.708  1.1547  1.2587 -1.0162
 7663TIP3    H244405   0.325   5.330  10.738  1.1584 -0.1411  2.0791
 7664TIP3   OH244406   1.178   4.050  15.833  0.1916  0.6317  0.8034
 7664TIP3    H144407   1.259   4.046  15.783  0.0380  0.6958  0.5463
 7664TIP3    H244408   1.200   4.100  15.912  0.4360  0.5268  0.7991
 7665TIP3   OH244409   5.016   4.377  11.512 -0.1396  0.4415 -0.0733
 7665TIP3    H144410   5.045   4.441  11.446 -0.6439  0.0708 -0.6619
 7665TIP3    H244411   5.060   4.296  11.487  0.8694  0.6499  0.9458
 7666TIP3   OH244412   2.525   3.726   4.890 -0.0415  0.1864  0.2308
 7666TIP3    H144413   2.520   3.714   4.796 -0.9806 -1.2040  0.4293
 7666TIP3    H244414   2.453   3.786   4.911  1.4246  2.1792 -0.1369
 7667TIP3   OH244415   6.436   0.751  15.723  0.0305  0.5532  0.0492
 7667TIP3    H144416   6.476   0.716  15.643 -1.4894  2.0451 -1.4476
 7667TIP3    H244417   6.463   0.842  15.726 -0.6085  0.7280  0.7868
 7668TIP3   OH244418   2.320   2.842  12.535  0.1731 -0.6129 -0.1198
 7668TIP3    H144419   2.347   2.920  12.489 -0.1521  1.9992  3.6339
 7668TIP3    H244420   2.227   2.832  12.513  0.3392 -0.2253 -1.0066
 7669TIP3   OH244421   1.749   3.876  16.253 -0.0102  1.0141 -0.0005
 7669TIP3    H144422   1.833   3.918  16.230  0.9635 -1.3188 -1.0180
 7669TIP3    H244423   1.766   3.834  16.337  0.4418 -0.7840 -0.9230
 7670TIP3   OH244424   5.015   5.620   2.240  0.0685  0.5924  0.4321
 7670TIP3    H144425   4.954   5.620   2.314  1.3486  0.5360  1.5180
 7670TIP3    H244426   5.013   5.530   2.207 -0.8214  0.7188  0.0998
 7671TIP3   OH244427   1.394   3.627   4.294  0.0207 -0.3495 -0.1829
 7671TIP3    H144428   1.466   3.563   4.287 -1.2982 -1.9112 -0.0759
 7671TIP3    H244429   1.325   3.579   4.340 -1.3551  0.8736 -0.9212
 7672TIP3   OH244430   6.535   2.649  12.204  0.6637 -0.7003  0.2124
 7672TIP3    H144431   6.462   2.702  12.173  1.7099 -0.1870 -1.5457
 7672TIP3    H244432   6.589   2.709  12.255  1.2245 -0.3486 -0.7664
 7673TIP3   OH244433   2.515   4.780   2.873 -0.2167 -0.1687 -0.0565
 7673TIP3    H144434   2.445   4.773   2.938 -0.4893 -1.3885 -0.4510
 7673TIP3    H244435   2.475   4.828   2.800 -0.9527 -1.6059 -0.6406
 7674TIP3   OH244436   2.018   3.189   2.769 -0.3030  0.2535  0.2461
 7674TIP3    H144437   1.994   3.100   2.745 -1.7184  0.8628 -0.7405
 7674TIP3    H244438   2.114   3.192   2.758 -0.4043 -0.7195 -1.2428
 7675TIP3   OH244439   1.837   4.425  15.634  0.3267  0.6268 -0.1248
 7675TIP3    H144440   1.866   4.473  15.711 -0.1407  1.0960 -0.2332
 7675TIP3    H244441   1.790   4.350  15.668  2.6009 -0.8160  0.0848
 7676TIP3   OH244442   1.058   4.125  12.993  0.4340  0.4912  0.1512
 7676TIP3    H144443   1.126   4.138  13.060 -0.3305 -0.7149  1.1871
 7676TIP3    H244444   0.979   4.162  13.031 -0.1772 -0.8619  0.2352
 7677TIP3   OH244445   4.459   1.427  14.289  0.2112 -0.2073  0.4362
 7677TIP3    H144446   4.471   1.442  14.383  0.6553  1.6032  0.1488
 7677TIP3    H244447   4.419   1.508  14.257 -1.0220 -1.2420 -0.7648
 7678TIP3   OH244448   1.122   0.546  16.709  0.2863 -0.6326  0.1465
 7678TIP3    H144449   1.148   0.481  16.643  0.4579 -0.1677 -0.2520
 7678TIP3    H244450   1.105   0.626  16.658  0.6555 -0.2006  0.6948
 7679TIP3   OH244451   4.804   2.044  13.479 -0.4264 -1.1617 -0.7175
 7679TIP3    H144452   4.712   2.066  13.461 -0.0248  0.4511 -0.9393
 7679TIP3    H244453   4.831   2.108  13.545  1.1296 -0.2399 -2.1813
 7680TIP3   OH244454   0.388   4.354   5.419 -0.2894 -0.2024  0.0007
 7680TIP3    H144455   0.293   4.366   5.416 -0.2296  0.1881 -0.5624
 7680TIP3    H244456   0.401   4.259   5.422 -0.6762 -0.3885 -2.2044
 7681TIP3   OH244457   0.720   6.603  12.691  0.0405 -0.1073 -0.0930
 7681TIP3    H144458   0.649   6.624  12.631 -0.6755  1.6778  1.2696
 7681TIP3    H244459   0.799   6.626  12.644 -0.4048 -0.1857 -0.9019
 7682TIP3   OH244460   1.062   6.884  14.469  0.0216  0.0940 -0.0858
 7682TIP3    H144461   1.069   6.896  14.374  0.0631  0.0572 -0.0873
 7682TIP3    H244462   1.152   6.871  14.498  0.1736  1.4491  0.1396
 7683TIP3   OH244463   0.386   3.950   1.690  0.1149  0.2470  0.5226
 7683TIP3    H144464   0.342   4.016   1.744  1.4412  1.0431  0.6797
 7683TIP3    H244465   0.339   3.952   1.607  0.0936  1.3576  0.5444
 7684TIP3   OH244466   2.750   5.559  14.823  0.0249 -0.2394  0.1219
 7684TIP3    H144467   2.672   5.526  14.779  0.4093 -0.1242 -0.6737
 7684TIP3    H244468   2.823   5.515  14.779  0.4217 -0.1078  0.6398
 7685TIP3   OH244469   3.546   3.378  11.830  0.4759  0.1189  0.1840
 7685TIP3    H144470   3.626   3.327  11.821  1.9100  2.2089  0.5987
 7685TIP3    H244471   3.502   3.369  11.745  0.6717 -1.7088  0.2245
 7686TIP3   OH244472   4.373   2.985  15.991 -0.4504 -0.1044  0.0229
 7686TIP3    H144473   4.330   2.909  15.953 -0.4871 -0.8803  1.5460
 7686TIP3    H244474   4.304   3.027  16.043 -0.1035  0.2807  0.1739
 7687TIP3   OH244475   4.613   3.071   4.640  0.3633  0.3525  0.1528
 7687TIP3    H144476   4.623   2.978   4.662 -0.0025  0.5488  1.1878
 7687TIP3    H244477   4.536   3.073   4.583  0.3993  0.0175  0.0856
 7688TIP3   OH244478   0.344   0.992  11.207 -0.5375 -0.8141 -0.2485
 7688TIP3    H144479   0.303   1.003  11.293 -0.9907 -0.7971 -0.4634
 7688TIP3    H244480   0.283   1.034  11.146 -0.3525 -1.0661 -0.6096
 7689TIP3   OH244481   3.259   2.321  12.991 -0.4881 -0.5041  0.1842
 7689TIP3    H144482   3.183   2.364  12.951 -1.2480 -0.3903  1.7095
 7689TIP3    H244483   3.333   2.373  12.961 -0.9004 -0.9582 -1.8121
 7690TIP3   OH244484   4.049   6.336  12.045  0.0708 -0.5137  0.2493
 7690TIP3    H144485   3.957   6.328  12.022  0.1577  0.1122 -0.3116
 7690TIP3    H244486   4.096   6.312  11.965  0.3753  3.5692 -1.0181
 7691TIP3   OH244487   1.192   1.690   2.761 -0.3038 -0.5279 -0.7434
 7691TIP3    H144488   1.171   1.598   2.775 -3.1551  0.0621 -0.5588
 7691TIP3    H244489   1.209   1.724   2.849  0.5705 -0.8062 -0.7936
 7692TIP3   OH244490   5.499   2.011   5.288 -0.0876  0.0838 -0.1459
 7692TIP3    H144491   5.426   1.983   5.342  0.8082  0.7167  1.4703
 7692TIP3    H244492   5.559   1.936   5.286  0.6540  0.5971  1.2041
 7693TIP3   OH244493   3.287   0.555  14.431  0.0590 -0.2162 -0.1743
 7693TIP3    H144494   3.212   0.571  14.373  1.3704  0.8295 -1.7074
 7693TIP3    H244495   3.363   0.562  14.373  1.5157  1.6478  1.7797
 7694TIP3   OH244496   0.887   3.488   1.682 -0.0530 -0.4868  0.2116
 7694TIP3    H144497   0.848   3.478   1.595  0.4746 -1.6030  0.0955
 7694TIP3    H244498   0.973   3.448   1.675  0.4295  0.3738  0.9671
 7695TIP3   OH244499   5.271   6.814  11.013  0.2279 -0.3943 -0.2615
 7695TIP3    H144500   5.176   6.813  11.023  0.2150 -1.6346 -0.4386
 7695TIP3    H244501   5.289   6.900  10.974 -0.9564 -0.6879 -1.5256
 7696TIP3   OH244502   5.392   1.418   5.457 -0.7036  0.4011  0.4841
 7696TIP3    H144503   5.451   1.450   5.526 -1.4665 -0.4725  1.5820
 7696TIP3    H244504   5.305   1.448   5.484 -1.3464 -1.9020  1.1947
 7697TIP3   OH244505   5.417   2.790   1.324  0.2215 -0.1521 -0.1001
 7697TIP3    H144506   5.323   2.782   1.311  0.3407 -1.6963 -0.3069
 7697TIP3    H244507   5.441   2.874   1.286 -1.1273  0.4402  0.3332
 7698TIP3   OH244508   2.651   4.194  13.309  0.7877 -0.1299 -0.2640
 7698TIP3    H144509   2.694   4.122  13.356 -0.4404 -1.7016 -1.4212
 7698TIP3    H244510   2.652   4.166  13.217 -1.0549  0.6168 -0.5527
 7699TIP3   OH244511   6.709   1.738  11.924  0.1012  0.5023  0.3115
 7699TIP3    H144512   6.620   1.705  11.940  0.0810  0.4238  0.0385
 7699TIP3    H244513   6.745   1.753  12.012  0.4052 -1.0091  0.4628
 7700TIP3   OH244514   0.685   2.572   6.089  0.1124  0.3150 -0.3377
 7700TIP3    H144515   0.610   2.602   6.037  0.7592  0.0814 -1.4324
 7700TIP3    H244516   0.660   2.484   6.118 -1.2481  1.3297  1.8033
 7701TIP3   OH244517   2.245   4.221   1.743  0.2594  0.4970  0.3150
 7701TIP3    H144518   2.232   4.129   1.769  0.1878  0.2898 -0.4145
 7701TIP3    H244519   2.251   4.217   1.647 -0.6062  1.3508  0.2143
 7702TIP3   OH244520   2.604   4.517   6.629  0.0539 -0.4143 -0.1227
 7702TIP3    H144521   2.553   4.458   6.573  1.1548 -0.8231 -0.7282
 7702TIP3    H244522   2.664   4.562   6.568 -0.4901  1.0442  0.3829
 7703TIP3   OH244523   2.480   1.167   5.254  0.2329  0.2924 -0.2891
 7703TIP3    H144524   2.556   1.149   5.310  0.8008  0.9222 -0.8218
 7703TIP3    H244525   2.512   1.233   5.192 -0.0844 -1.0708 -1.9753
 7704TIP3   OH244526   5.559   2.511  13.548  0.5391  0.7977 -0.3028
 7704TIP3    H144527   5.477   2.548  13.580 -0.0157 -0.9026  0.3183
 7704TIP3    H244528   5.595   2.464  13.623  1.3817  0.3495 -0.9696
 7705TIP3   OH244529   4.087   4.662  15.890  0.3232 -0.4990  0.1051
 7705TIP3    H144530   4.133   4.610  15.955 -0.2558 -0.5974  0.4491
 7705TIP3    H244531   4.086   4.751  15.926  0.2895 -0.4869  0.0741
 7706TIP3   OH244532   0.182   3.518  11.493 -0.4083  0.5571 -0.4380
 7706TIP3    H144533   0.189   3.474  11.578  1.4019  0.0442 -0.8197
 7706TIP3    H244534   0.096   3.491  11.460 -1.4726  1.3432  1.5058
 7707TIP3   OH244535   0.051   0.208  10.829 -0.2162  0.4074  0.0659
 7707TIP3    H144536  -0.006   0.237  10.758 -0.6643  0.7848  0.5780
 7707TIP3    H244537  -0.002   0.146  10.879 -0.2183  0.8286  0.5944
 7708TIP3   OH244538   1.988   5.034  12.824 -0.5707  0.5859  0.2107
 7708TIP3    H144539   1.971   5.078  12.907 -0.2528 -0.1013  0.6465
 7708TIP3    H244540   2.021   5.103  12.767 -1.6763  1.2601  0.3542
 7709TIP3   OH244541   0.937   2.521  13.661 -0.0593  0.1769 -0.0419
 7709TIP3    H144542   0.988   2.586  13.709 -1.3937  0.3181  1.2647
 7709TIP3    H244543   0.893   2.470  13.729 -1.6657  0.0870 -1.0820
 7710TIP3   OH244544   0.275   5.697   9.991 -0.3061  0.7568  0.2275
 7710TIP3    H144545   0.350   5.755   9.997 -0.9741  1.6976 -0.1602
 7710TIP3    H244546   0.223   5.734   9.919 -2.2514  1.4887  1.9016
 7711TIP3   OH244547   3.909   0.077  15.528  0.2770 -0.0345  0.3830
 7711TIP3    H144548   3.833   0.133  15.515 -0.7483 -1.0002  1.8723
 7711TIP3    H244549   3.958   0.119  15.599 -0.7748 -1.2258  1.8744
 7712TIP3   OH244550   4.216   3.786   1.450 -0.2504  0.5961 -0.3156
 7712TIP3    H144551   4.284   3.815   1.389 -0.9883  1.6873 -0.6510
 7712TIP3    H244552   4.218   3.851   1.521  0.4324 -0.5244  0.7161
 7713TIP3   OH244553   4.152   3.428   4.488 -0.1011  0.2383  0.9023
 7713TIP3    H144554   4.100   3.424   4.408 -0.3515 -1.1132  1.1074
 7713TIP3    H244555   4.090   3.453   4.557 -0.0468  0.6440  0.8042
 7714TIP3   OH244556   4.267   4.268   4.656 -0.3229  0.2574  0.1110
 7714TIP3    H144557   4.247   4.274   4.563  1.5378 -0.1659 -0.3598
 7714TIP3    H244558   4.238   4.351   4.693 -3.0500 -0.3896 -0.3934
 7715TIP3   OH244559   3.946   3.899   3.139 -0.7352 -0.1378 -0.0365
 7715TIP3    H144560   3.904   3.876   3.056 -1.2701  0.0088  0.1890
 7715TIP3    H244561   3.943   3.995   3.142 -0.7851 -0.1452  0.1844
 7716TIP3   OH244562   4.423   1.493  12.710  0.2702  0.1508 -0.1057
 7716TIP3    H144563   4.435   1.535  12.624 -1.8702 -1.1489 -1.1274
 7716TIP3    H244564   4.506   1.448  12.726  1.4459  2.0682 -0.4875
 7717TIP3   OH244565   4.919   0.421   4.297  0.1111 -0.1568  0.0064
 7717TIP3    H144566   4.837   0.459   4.267  0.5806  0.5443 -0.4332
 7717TIP3    H244567   4.938   0.351   4.235  0.3750  0.3784 -0.5297
 7718TIP3   OH244568   3.548   3.686   0.129 -0.1446 -0.7657 -0.0197
 7718TIP3    H144569   3.586   3.764   0.170 -0.8971 -0.2786 -0.2342
 7718TIP3    H244570   3.570   3.695   0.036 -0.1445 -0.8646 -0.0298
 7719TIP3   OH244571   6.604   4.051   2.296  0.3669  0.1441  0.0831
 7719TIP3    H144572   6.668   3.986   2.266 -0.3056 -1.3696  1.7418
 7719TIP3    H244573   6.614   4.052   2.392 -0.6367  1.4477  0.2041
 7720TIP3   OH244574   1.483   3.332  14.246  0.1459 -0.1510 -0.1786
 7720TIP3    H144575   1.469   3.265  14.179 -1.1706 -0.2006  0.1217
 7720TIP3    H244576   1.439   3.410  14.211 -0.2381 -0.0757  0.4653
 7721TIP3   OH244577   6.716   5.262  15.668  0.1360 -0.0781  0.2493
 7721TIP3    H144578   6.632   5.302  15.645  0.0825 -1.5035 -2.5449
 7721TIP3    H244579   6.701   5.168  15.657  2.3073 -0.3147 -1.4168
 7722TIP3   OH244580   2.607   4.950   4.777 -0.0455 -0.2379  0.0396
 7722TIP3    H144581   2.529   4.963   4.831  0.4919  0.1825  0.7323
 7722TIP3    H244582   2.651   4.874   4.817  0.3654  0.0865  0.2064
 7723TIP3   OH244583   0.501   6.336   2.410  0.2759  0.8392  0.0202
 7723TIP3    H144584   0.500   6.294   2.324 -1.7512 -0.3429  0.5233
 7723TIP3    H244585   0.417   6.382   2.415 -1.3855 -2.0457  2.5742
 7724TIP3   OH244586   1.573   2.286  13.129 -0.3540  0.1925 -0.3632
 7724TIP3    H144587   1.537   2.208  13.173  0.6515  0.1006  0.3329
 7724TIP3    H244588   1.630   2.251  13.061  0.4487  0.2945  0.2381
 7725TIP3   OH244589   1.749   5.726   1.426  0.4622 -0.0591 -0.2491
 7725TIP3    H144590   1.681   5.659   1.422  0.6532 -0.2016 -1.9536
 7725TIP3    H244591   1.701   5.809   1.416  0.4208 -0.0872 -0.2850
 7726TIP3   OH244592   2.200   1.808   4.078  0.4681 -0.2176 -0.3612
 7726TIP3    H144593   2.235   1.759   4.003 -0.9057 -0.2420 -1.0263
 7726TIP3    H244594   2.213   1.749   4.153  0.4536 -0.8565 -0.8443
 7727TIP3   OH244595   3.983   0.876  14.972 -0.0998 -0.2249  0.3565
 7727TIP3    H144596   3.919   0.847  14.907  0.6656  0.0615 -0.5525
 7727TIP3    H244597   3.932   0.928  15.034 -0.8030 -0.2538 -0.1777
 7728TIP3   OH244598   3.948   2.641  16.228 -0.3897  0.2570 -0.2139
 7728TIP3    H144599   3.901   2.558  16.238  2.5130 -1.7609 -1.8511
 7728TIP3    H244600   4.033   2.617  16.192  1.3582  3.8039  0.9781
 7729TIP3   OH244601   1.138   3.657   0.221 -0.5361  0.6405 -0.2933
 7729TIP3    H144602   1.154   3.602   0.298  0.9864  0.6066 -0.5987
 7729TIP3    H244603   1.046   3.645   0.202 -0.7582  0.0085  1.0414
 7730TIP3   OH244604   6.354   4.641   1.352  0.1500  0.2995  0.1900
 7730TIP3    H144605   6.332   4.680   1.436  0.2507 -0.1864  0.4424
 7730TIP3    H244606   6.292   4.570   1.341  0.6935 -0.1948  0.2618
 7731TIP3   OH244607   4.584   0.873  13.044  0.0311  0.1561 -0.0036
 7731TIP3    H144608   4.668   0.916  13.028 -0.3390  0.9699  0.1890
 7731TIP3    H244609   4.549   0.856  12.956  0.6791 -0.7766 -0.0944
 7732TIP3   OH244610   0.468   5.269   0.954  0.2953 -0.3282 -0.0624
 7732TIP3    H144611   0.391   5.288   1.008  0.2434  2.1519 -0.8926
 7732TIP3    H244612   0.542   5.285   1.013  0.2389 -2.7893  0.7590
 7733TIP3   OH244613   4.812   5.817   1.437 -0.0891 -0.1711 -0.2981
 7733TIP3    H144614   4.743   5.831   1.501 -0.3977  0.8024 -0.8360
 7733TIP3    H244615   4.781   5.744   1.384 -0.9589  0.6047 -0.8771
 7734TIP3   OH244616   2.528   2.649   0.433 -0.4133  0.9981 -0.2111
 7734TIP3    H144617   2.593   2.708   0.397  0.4703  1.3083  1.7379
 7734TIP3    H244618   2.454   2.705   0.456 -0.5818  0.9486 -0.6241
 7735TIP3   OH244619   2.317   5.851  11.212 -0.1629 -0.0989 -0.6764
 7735TIP3    H144620   2.297   5.772  11.161 -2.5075 -0.3483  0.5136
 7735TIP3    H244621   2.310   5.922  11.148  0.3859 -0.6878 -1.4189
 7736TIP3   OH244622   5.451   1.627   4.812 -0.0867 -0.7896 -0.1148
 7736TIP3    H144623   5.475   1.535   4.805  1.9467 -0.2824 -0.3514
 7736TIP3    H244624   5.518   1.674   4.762 -1.9531  0.7429 -1.3725
 7737TIP3   OH244625   4.370   0.878  15.654  0.1859  0.5974 -0.4292
 7737TIP3    H144626   4.443   0.913  15.602 -0.5703  1.1357 -1.1663
 7737TIP3    H244627   4.313   0.836  15.589 -0.1534  0.1814  0.1367
 7738TIP3   OH244628   3.737   5.445  12.665 -0.4861 -0.1338 -0.5562
 7738TIP3    H144629   3.799   5.407  12.603  0.9414 -0.6499  1.0832
 7738TIP3    H244630   3.710   5.527  12.625  0.4564 -0.3938 -1.8019
 7739TIP3   OH244631   6.035   5.194  13.026  0.2059  0.5391  0.7268
 7739TIP3    H144632   5.963   5.229  12.973  0.7528  2.1159  1.0021
 7739TIP3    H244633   6.012   5.218  13.116  0.6321  0.2489  0.9135
 7740TIP3   OH244634   2.170   5.595  13.423  0.1283 -0.1442 -0.2844
 7740TIP3    H144635   2.208   5.523  13.373  1.4150 -1.1255  1.9685
 7740TIP3    H244636   2.222   5.672  13.399  1.2379 -0.7557  0.0880
 7741TIP3   OH244637   0.048   4.727   1.368 -0.0443 -0.2393 -0.1555
 7741TIP3    H144638  -0.003   4.701   1.292  0.5818 -0.5597 -0.4711
 7741TIP3    H244639   0.125   4.772   1.332 -0.2330  0.4824  0.3218
 7742TIP3   OH244640   4.778   4.812   2.009 -0.1817  0.3807 -0.1383
 7742TIP3    H144641   4.802   4.857   1.928  0.2378  0.4764  0.0401
 7742TIP3    H244642   4.823   4.861   2.078 -2.1588  1.5816  0.3839
 7743TIP3   OH244643   3.070   5.253   1.450 -0.0480  0.3993  0.6183
 7743TIP3    H144644   3.086   5.230   1.359 -1.1045 -0.6949  0.6908
 7743TIP3    H244645   3.003   5.192   1.480 -0.3673  1.3038  1.8761
 7744TIP3   OH244646   4.454   2.776   5.529 -0.5026  0.6037 -0.8901
 7744TIP3    H144647   4.469   2.759   5.436  0.7855 -1.1793 -0.4171
 7744TIP3    H244648   4.472   2.869   5.540  0.4756  0.6077 -2.2292
 7745TIP3   OH244649   5.008   2.458   4.594  0.5667  0.2236  0.0264
 7745TIP3    H144650   5.036   2.454   4.503 -0.3237 -0.5939 -0.2401
 7745TIP3    H244651   5.088   2.453   4.645  0.9727 -1.7638 -0.7001
 7746TIP3   OH244652   4.926   3.296  16.395 -0.5411  0.4479 -0.6779
 7746TIP3    H144653   4.947   3.341  16.477 -1.7770  0.5527 -0.3944
 7746TIP3    H244654   5.007   3.297  16.345  0.2291  0.3748  0.5545
 7747TIP3   OH244655   4.396   0.327   5.929 -0.0632 -0.4726 -0.7253
 7747TIP3    H144656   4.448   0.407   5.934  0.3598 -0.5844 -2.6019
 7747TIP3    H244657   4.325   0.340   5.992  0.4114  1.0598 -0.4784
 7748TIP3   OH244658   6.622   6.062   3.392 -0.1625  0.0153  0.3639
 7748TIP3    H144659   6.663   6.010   3.460  1.5510  0.7811 -0.0279
 7748TIP3    H244660   6.538   6.088   3.429 -0.8470 -2.5050  0.7803
 7749TIP3   OH244661   3.916   1.570  13.674  0.1247  0.3076  0.2050
 7749TIP3    H144662   4.010   1.562  13.659  0.3978 -1.7068  2.3787
 7749TIP3    H244663   3.878   1.576  13.586  2.2565  1.2581 -0.7143
 7750TIP3   OH244664   3.774   1.370  15.046  0.4706 -0.0231  0.2430
 7750TIP3    H144665   3.784   1.375  14.950 -2.0675  0.7318 -0.0816
 7750TIP3    H244666   3.785   1.460  15.075  1.6537 -0.3171  0.7519
 7751TIP3   OH244667   5.333   5.082   0.236 -0.1823  0.4417  0.2633
 7751TIP3    H144668   5.376   5.104   0.319 -0.5930  0.9964  0.3361
 7751TIP3    H244669   5.247   5.124   0.242 -1.0852 -1.3268  0.4801
 7752TIP3   OH244670   5.659   2.448  16.034 -0.1188  0.5851  0.2115
 7752TIP3    H144671   5.752   2.426  16.032 -0.2756 -0.0691 -0.4241
 7752TIP3    H244672   5.651   2.522  15.974  0.1412  1.2896  1.0332
 7753TIP3   OH244673   6.132   2.000   6.136  0.1859 -0.1036 -0.8655
 7753TIP3    H144674   6.062   1.948   6.177  0.8734 -0.2143  0.2204
 7753TIP3    H244675   6.099   2.089   6.138 -0.0386 -0.1891 -0.5885
 7754TIP3   OH244676   4.986   0.711  14.436 -0.1775 -0.4533 -0.1286
 7754TIP3    H144677   4.962   0.782  14.377 -2.3314 -0.6308  0.4509
 7754TIP3    H244678   5.021   0.643  14.379  0.2646  0.3778 -0.8741
 7755TIP3   OH244679   1.407   0.806   3.805  0.2231  0.5028 -0.8961
 7755TIP3    H144680   1.380   0.890   3.767 -3.1721 -1.3605 -3.0735
 7755TIP3    H244681   1.373   0.808   3.894 -0.5705  1.1294 -1.1981
 7756TIP3   OH244682   3.446   2.582   4.557 -0.5631  0.7000  0.0707
 7756TIP3    H144683   3.356   2.550   4.562 -0.3581  0.2246  0.8158
 7756TIP3    H244684   3.490   2.541   4.631  0.6638 -0.3340 -1.1866
 7757TIP3   OH244685   4.227   1.926  11.869 -0.4610 -0.2900 -0.3190
 7757TIP3    H144686   4.284   1.866  11.821  0.2794 -0.0416  0.2282
 7757TIP3    H244687   4.188   1.982  11.801  1.7080  1.0361 -0.5452
 7758TIP3   OH244688   6.649   6.499  12.941  0.1628  0.6717 -0.1833
 7758TIP3    H144689   6.720   6.492  12.877  0.7443 -0.0825  0.5152
 7758TIP3    H244690   6.693   6.532  13.020 -0.4394  1.0625 -0.0108
 7759TIP3   OH244691   2.616   4.945   1.754 -0.4192  0.2735  0.0792
 7759TIP3    H144692   2.699   4.973   1.714  0.2678 -0.6586  0.8042
 7759TIP3    H244693   2.630   4.955   1.848 -0.5370 -1.3500  0.3105
 7760TIP3   OH244694   1.170   2.164  15.457  0.4265 -0.1857  0.1580
 7760TIP3    H144695   1.258   2.186  15.427  0.1943  0.7618  0.1174
 7760TIP3    H244696   1.114   2.230  15.415 -0.1023  0.2279  1.4739
 7761TIP3   OH244697   5.039   5.597  16.405 -0.1358  0.3071 -0.0629
 7761TIP3    H144698   4.999   5.598  16.317  0.0907  0.7081 -0.1635
 7761TIP3    H244699   4.968   5.568  16.463  0.1064 -1.3740 -0.5596
 7762TIP3   OH244700   5.251   1.526   1.104  0.0501 -0.3525 -0.2463
 7762TIP3    H144701   5.194   1.551   1.031  0.6747  1.1748 -0.2608
 7762TIP3    H244702   5.219   1.577   1.178  0.7957 -0.1908 -0.0269
 7763TIP3   OH244703   3.760   3.664   6.217 -0.4480 -0.3978  0.7939
 7763TIP3    H144704   3.806   3.744   6.243  0.2651 -0.6001  0.2023
 7763TIP3    H244705   3.676   3.694   6.184  0.4695  0.3057 -1.0523
 7764TIP3   OH244706   4.065   1.080  12.060  0.4309  0.4823 -0.6741
 7764TIP3    H144707   4.093   1.104  11.972  0.5294  0.8088 -0.5528
 7764TIP3    H244708   4.146   1.078  12.111  0.1501  2.4147 -0.0781
 7765TIP3   OH244709   3.129   2.765   1.148  0.1712 -0.6778  0.3074
 7765TIP3    H144710   3.196   2.722   1.200  0.0950 -1.1463  0.0241
 7765TIP3    H244711   3.082   2.694   1.104  0.6654 -0.2735 -0.9240
 7766TIP3   OH244712   3.024   1.607   1.651  0.2910  0.1087  0.4228
 7766TIP3    H144713   2.972   1.554   1.590 -1.0199 -0.3072  1.8275
 7766TIP3    H244714   2.984   1.694   1.645 -2.0971 -0.6381  2.9628
 7767TIP3   OH244715   4.354   4.891   2.559  0.4613  0.1992  0.4073
 7767TIP3    H144716   4.430   4.892   2.501  1.3713  0.6619  1.5934
 7767TIP3    H244717   4.353   4.803   2.596  0.7926  0.3897  0.8726
 7768TIP3   OH244718   1.471   6.577  16.692  0.0702 -0.1537  1.1153
 7768TIP3    H144719   1.500   6.657  16.735 -1.7496  1.5954 -0.6910
 7768TIP3    H244720   1.504   6.585  16.602 -3.2870  0.5540 -0.1941
 7769TIP3   OH244721   6.170   6.546  13.791  0.4569 -0.0148  0.2966
 7769TIP3    H144722   6.133   6.574  13.875  2.6627 -0.7461  1.6131
 7769TIP3    H244723   6.185   6.452  13.802  0.5275 -0.1741 -1.0288
 7770TIP3   OH244724   0.009   4.147  14.860 -0.0856 -0.1168  0.5804
 7770TIP3    H144725  -0.005   4.135  14.766  1.6734  1.6404  0.0231
 7770TIP3    H244726  -0.005   4.060  14.897 -0.4997 -0.9336 -1.3485
 7771TIP3   OH244727   2.946   4.542  13.332  0.3923  0.3664 -0.2601
 7771TIP3    H144728   2.932   4.506  13.419  2.9132 -1.5080 -0.5233
 7771TIP3    H244729   2.997   4.621  13.345  1.3925 -0.3044 -0.0443
 7772TIP3   OH244730   5.480   5.879   2.147  0.9120 -0.2324 -0.1217
 7772TIP3    H144731   5.540   5.938   2.101  1.7881 -1.4408 -0.5754
 7772TIP3    H244732   5.523   5.860   2.230  2.0504 -2.4097 -1.1109
 7773TIP3   OH244733   1.648   5.803  15.483 -0.4767  0.2493 -0.5764
 7773TIP3    H144734   1.667   5.885  15.529 -1.4494  0.6433 -0.8430
 7773TIP3    H244735   1.590   5.755  15.541  0.9576 -0.7715  0.0651
 7774TIP3   OH244736   4.396   4.056  12.957 -0.0573  0.0517 -0.8545
 7774TIP3    H144737   4.330   3.994  12.924  1.2317 -1.4338 -0.7823
 7774TIP3    H244738   4.395   4.043  13.052  1.0814 -0.8103 -0.9389
 7775TIP3   OH244739   2.860   4.286   0.581 -0.2469 -0.1462  0.1846
 7775TIP3    H144740   2.938   4.230   0.574  0.2660  0.5555  0.0531
 7775TIP3    H244741   2.803   4.257   0.510 -0.1103 -0.6789  0.2908
 7776TIP3   OH244742   3.007   5.297  16.142 -0.2791 -0.3807 -0.0780
 7776TIP3    H144743   3.075   5.289  16.075  0.3011  2.5531  0.0128
 7776TIP3    H244744   2.992   5.391  16.149 -2.9114 -0.8179  1.3885
 7777TIP3   OH244745   3.046   1.110  13.601  0.6754 -0.0894 -0.0216
 7777TIP3    H144746   3.008   1.114  13.513  1.9558  1.6122 -0.5612
 7777TIP3    H244747   2.975   1.082  13.658 -0.3034 -0.7826 -1.5349
 7778TIP3   OH244748   2.159   6.656   3.178  0.4544 -0.2415  0.2024
 7778TIP3    H144749   2.120   6.718   3.116  0.2834  0.8950  1.3961
 7778TIP3    H244750   2.089   6.593   3.197 -0.0975  0.4937  0.6507
 7779TIP3   OH244751   3.926   3.930   4.714  0.4451  0.3903  0.2852
 7779TIP3    H144752   3.912   3.853   4.769  0.6621 -0.4464 -0.7966
 7779TIP3    H244753   4.020   3.935   4.702  0.5565  1.5875  1.3603
 7780TIP3   OH244754   5.101   1.099  12.311  0.2640  0.1598 -0.1303
 7780TIP3    H144755   5.183   1.050  12.316 -0.2931 -0.7378  0.5749
 7780TIP3    H244756   5.127   1.188  12.289  1.4206 -0.1184  0.0539
 7781TIP3   OH244757   4.495   1.147  14.868  0.4238  0.3773  0.5607
 7781TIP3    H144758   4.456   1.234  14.873  0.4236  0.4908 -1.0559
 7781TIP3    H244759   4.434   1.096  14.815  1.3315 -0.0839 -0.0583
 7782TIP3   OH244760   5.148   5.226   5.415 -0.4611  0.3215 -0.2759
 7782TIP3    H144761   5.241   5.250   5.422 -0.3476 -0.5911  2.4912
 7782TIP3    H244762   5.148   5.144   5.365  0.5175 -0.8219  1.4757
 7783TIP3   OH244763   0.772   1.385  16.202 -0.4246 -0.0061 -0.4762
 7783TIP3    H144764   0.719   1.331  16.261  0.8962  0.1114  0.8832
 7783TIP3    H244765   0.709   1.424  16.142 -1.8257 -0.2093  0.8062
 7784TIP3   OH244766   5.811   3.881  11.378 -0.5539 -0.4162 -0.9080
 7784TIP3    H144767   5.751   3.941  11.333 -0.1475 -0.7481 -1.9428
 7784TIP3    H244768   5.795   3.796  11.337  0.0099 -0.6776 -0.5976
 7785TIP3   OH244769   5.492   5.571  16.091 -0.5607 -0.5120 -0.6830
 7785TIP3    H144770   5.517   5.492  16.044  0.8066 -0.1111 -0.6836
 7785TIP3    H244771   5.534   5.563  16.176 -0.8028 -0.0080 -0.5102
 7786TIP3   OH244772   2.856   3.491   1.250 -0.1626 -0.1976  0.0902
 7786TIP3    H144773   2.928   3.532   1.299 -1.0627 -0.2300  1.4826
 7786TIP3    H244774   2.777   3.524   1.292 -0.9429 -1.1911 -0.5687
 7787TIP3   OH244775   2.528   3.456   2.456 -0.2263 -0.7607 -0.5633
 7787TIP3    H144776   2.536   3.551   2.445 -0.6128 -0.5583  0.7540
 7787TIP3    H244777   2.604   3.420   2.409  1.6328  0.3718  1.4025
 7788TIP3   OH244778   6.213   1.473  14.541  0.5974  0.3004  0.7132
 7788TIP3    H144779   6.148   1.403  14.529  0.3865  0.6347 -0.1744
 7788TIP3    H244780   6.213   1.489  14.635 -0.2184 -0.0794  0.7900
 7789TIP3   OH244781   2.756   5.982  10.554  0.4120  0.2234 -0.3146
 7789TIP3    H144782   2.795   5.998  10.468  2.3732 -0.7727  0.3147
 7789TIP3    H244783   2.808   6.035  10.615 -2.2063  2.5024  0.1105
 7790TIP3   OH244784   2.297   4.778   2.632 -0.9845 -0.4498 -0.0120
 7790TIP3    H144785   2.351   4.832   2.574 -1.2050  0.3313  0.5069
 7790TIP3    H244786   2.267   4.838   2.700 -0.3837 -1.4469  1.1728
 7791TIP3   OH244787   6.788   2.339   0.243  0.3776 -0.2895 -0.6111
 7791TIP3    H144788   6.733   2.264   0.262  1.1001 -0.6514  0.0904
 7791TIP3    H244789   6.870   2.322   0.289  0.5940  0.8771 -0.5238
 7792TIP3   OH244790   5.514   6.183   1.835 -0.3010  0.3790  0.1652
 7792TIP3    H144791   5.563   6.230   1.767 -1.0096  0.4258 -0.3196
 7792TIP3    H244792   5.582   6.145   1.891  0.2949  0.2239 -0.6484
 7793TIP3   OH244793   3.426   2.867  14.055 -0.1789  0.1782  0.2798
 7793TIP3    H144794   3.341   2.895  14.089 -0.9411 -0.6537 -0.8651
 7793TIP3    H244795   3.417   2.773  14.040  0.6013  0.2467 -0.7922
 7794TIP3   OH244796   1.619   5.535   4.402 -0.6881 -0.3850 -0.0724
 7794TIP3    H144797   1.603   5.620   4.442  0.0487 -0.1710 -0.2197
 7794TIP3    H244798   1.701   5.505   4.441 -0.8797 -0.9729 -0.1110
 7795TIP3   OH244799   3.298   2.770  15.516  0.3188  0.0893 -0.3248
 7795TIP3    H144800   3.293   2.771  15.612  1.6449  0.7034 -0.2424
 7795TIP3    H244801   3.275   2.680  15.493  2.0436 -0.6760  0.7305
 7796TIP3   OH244802   2.317   2.811   1.087  0.4592  0.6589 -0.1746
 7796TIP3    H144803   2.253   2.817   1.016  0.6294 -2.0854 -0.6909
 7796TIP3    H244804   2.308   2.721   1.119  1.4306  1.3753  2.3176
 7797TIP3   OH244805   0.246   0.932   4.467  0.2199 -0.4380 -0.3819
 7797TIP3    H144806   0.237   1.024   4.443 -0.7863 -0.7618 -1.3474
 7797TIP3    H244807   0.264   0.887   4.384  2.1141 -0.9676  0.2702
 7798TIP3   OH244808   2.458   4.890  16.575 -0.0760  0.1705  0.0112
 7798TIP3    H144809   2.498   4.918  16.657  0.4562  0.4810 -0.3554
 7798TIP3    H244810   2.443   4.971  16.527 -0.8006  0.0279 -0.0154
 7799TIP3   OH244811   4.596   5.107   2.312  0.0057  0.0135 -0.1968
 7799TIP3    H144812   4.603   5.184   2.368  1.6711 -0.2754  0.0277
 7799TIP3    H244813   4.606   5.141   2.223  0.9010  0.0481 -0.0882
 7800TIP3   OH244814   3.947   0.018   5.556  0.2562  0.1960  0.2513
 7800TIP3    H144815   3.923   0.083   5.622  1.4076  0.6019  0.2981
 7800TIP3    H244816   4.037  -0.007   5.579  0.1791 -0.6836 -0.3544
 7801TIP3   OH244817   4.180   4.091   3.028  0.3570 -0.4945 -0.1446
 7801TIP3    H144818   4.123   4.032   2.978 -0.1344 -2.5211  2.5075
 7801TIP3    H244819   4.135   4.175   3.026 -0.1207 -0.7453 -2.2042
 7802TIP3   OH244820   6.146   0.125  12.189  0.0488 -0.3967  0.4581
 7802TIP3    H144821   6.186   0.179  12.257  0.6481  0.3660 -0.4740
 7802TIP3    H244822   6.142   0.182  12.112 -1.6133 -0.8980  0.1432
 7803TIP3   OH244823   3.775   5.203   0.881  0.7105 -0.2929 -0.0340
 7803TIP3    H144824   3.694   5.182   0.835 -0.0586 -0.5194  1.3741
 7803TIP3    H244825   3.814   5.274   0.831 -1.2645  1.0530  0.2326
 7804TIP3   OH244826   2.185   0.533  11.474 -0.5577 -0.5320  0.1069
 7804TIP3    H144827   2.178   0.578  11.558 -2.0098 -0.8105  0.1650
 7804TIP3    H244828   2.224   0.598  11.415 -1.6063  0.4604  0.4588
 7805TIP3   OH244829   3.567   2.264  13.622  0.5516  0.7602  0.4129
 7805TIP3    H144830   3.572   2.351  13.583  1.6285  0.9005  0.8471
 7805TIP3    H244831   3.654   2.228  13.612  0.4295  0.1882  1.2885
 7806TIP3   OH244832   2.686   2.442   0.594 -0.2435 -0.7580  0.4477
 7806TIP3    H144833   2.627   2.513   0.568  0.8767 -0.1780 -0.6251
 7806TIP3    H244834   2.662   2.422   0.684 -0.3842  1.2050  0.8800
 7807TIP3   OH244835   3.920   3.159   4.679 -0.1810  0.6610  0.2752
 7807TIP3    H144836   3.856   3.122   4.740  1.2265 -0.7182  1.0015
 7807TIP3    H244837   3.875   3.160   4.595 -1.2644  0.0161  0.8226
 7808TIP3   OH244838   5.072   0.545   1.521  0.4559  0.0472 -0.1172
 7808TIP3    H144839   5.076   0.508   1.432  3.3351 -1.1230  0.3797
 7808TIP3    H244840   5.048   0.471   1.576 -0.2471  0.5090  0.2020
 7809TIP3   OH244841   2.710   3.693   3.529 -0.4693  0.4444  0.1728
 7809TIP3    H144842   2.635   3.735   3.571 -0.1753  1.1962 -0.0340
 7809TIP3    H244843   2.672   3.622   3.477 -1.2701  2.0050 -1.4578
 7810TIP3   OH244844   0.038   1.696   3.531  0.2078 -0.1484 -0.3260
 7810TIP3    H144845   0.105   1.639   3.570  0.7871  0.6885 -0.0700
 7810TIP3    H244846   0.087   1.758   3.478 -0.3594  0.5367 -0.0627
 7811TIP3   OH244847   5.993   3.618  11.453  0.0346  0.2066 -0.0043
 7811TIP3    H144848   6.037   3.540  11.486  0.8240  1.1790  1.3278
 7811TIP3    H244849   6.045   3.646  11.378 -0.0011 -0.2693 -0.2141
 7812TIP3   OH244850   6.881   3.813  14.247  0.2080 -0.3978  0.3108
 7812TIP3    H144851   6.874   3.858  14.331  0.1647 -1.4041  0.8620
 7812TIP3    H244852   6.975   3.811  14.229  0.2637 -0.6577  0.6143
 7813TIP3   OH244853   3.879   6.243   3.858 -0.5963 -0.0464  0.1766
 7813TIP3    H144854   3.924   6.159   3.862 -0.2399  0.1608  0.5201
 7813TIP3    H244855   3.893   6.283   3.944  0.9823  1.2670 -0.6466
 7814TIP3   OH244856   5.664   0.822  15.497 -0.1865  0.2497  0.2980
 7814TIP3    H144857   5.640   0.906  15.458 -3.6575 -0.8020 -0.1342
 7814TIP3    H244858   5.690   0.843  15.586  0.3468  1.9035 -0.2245
 7815TIP3   OH244859   0.521   6.501   2.131 -0.6883  0.6372 -0.4433
 7815TIP3    H144860   0.453   6.446   2.093  0.2191 -1.2050  0.4857
 7815TIP3    H244861   0.602   6.454   2.114 -0.0277  0.8661  1.7728
 7816TIP3   OH244862   6.588   4.724   2.252  0.0903  0.0858  0.1124
 7816TIP3    H144863   6.619   4.709   2.162 -0.2800  0.8391 -0.1496
 7816TIP3    H244864   6.493   4.734   2.244 -0.7024 -4.4932  1.1976
 7817TIP3   OH244865   6.860   2.788  15.089 -0.5727  0.4359 -0.1243
 7817TIP3    H144866   6.944   2.743  15.102 -1.6305 -1.1453  1.8635
 7817TIP3    H244867   6.883   2.881  15.087  1.2763  0.0243 -0.1137
 7818TIP3   OH244868   6.784   2.940  14.323 -0.1469  0.4248  0.1407
 7818TIP3    H144869   6.775   2.844  14.320 -2.2040  0.4665  2.3961
 7818TIP3    H244870   6.877   2.954  14.341  0.4128 -1.0822 -1.2890
 7819TIP3   OH244871   4.409   6.280   2.791  0.7608  0.3986  0.2523
 7819TIP3    H144872   4.314   6.277   2.774  0.9353 -0.8319 -0.7576
 7819TIP3    H244873   4.418   6.253   2.882  0.2232 -2.0012 -0.3142
 7820TIP3   OH244874   6.813   2.883   3.757 -0.4405 -0.5538  0.5106
 7820TIP3    H144875   6.752   2.937   3.708 -0.0934 -0.7392 -0.1354
 7820TIP3    H244876   6.788   2.793   3.735  1.1561 -0.6461 -1.1909
 7821TIP3   OH244877   6.738   5.483  10.956 -0.2117  0.3480  0.1405
 7821TIP3    H144878   6.759   5.396  10.992  0.7139 -0.2119 -1.6423
 7821TIP3    H244879   6.649   5.500  10.987 -1.0138 -1.9308 -0.6848
 7822TIP3   OH244880   3.315   6.501  13.226 -0.3893  0.5757 -0.7015
 7822TIP3    H144881   3.259   6.498  13.304 -0.4757  0.2908 -0.7737
 7822TIP3    H244882   3.261   6.542  13.159 -0.9027 -0.6702 -1.0819
 7823TIP3   OH244883   4.082   1.845  11.081  0.2964 -0.1148  0.2766
 7823TIP3    H144884   4.165   1.828  11.036  0.2768  1.0824 -0.2486
 7823TIP3    H244885   4.061   1.762  11.123  0.4676 -1.2240 -1.6790
 7824TIP3   OH244886   1.263   6.381  12.266 -0.3863 -0.2078  0.1929
 7824TIP3    H144887   1.355   6.373  12.291 -0.3758  1.4687  0.8123
 7824TIP3    H244888   1.265   6.406  12.174 -0.2846 -1.4845 -0.1724
 7825TIP3   OH244889   1.326   1.122   1.272 -0.5330  0.2110  0.1520
 7825TIP3    H144890   1.298   1.212   1.289 -0.2317  0.6972 -1.7584
 7825TIP3    H244891   1.421   1.124   1.282 -0.7104 -0.5115  2.5770
 7826TIP3   OH244892   1.415   3.088   0.971 -0.1586  0.2755  0.1413
 7826TIP3    H144893   1.430   3.129   1.056 -0.9333 -1.4890  1.1766
 7826TIP3    H244894   1.340   3.136   0.935  0.1690  1.0275  0.4483
 7827TIP3   OH244895   5.086   5.465   0.094 -0.1678  0.3764 -0.0196
 7827TIP3    H144896   5.123   5.500   0.013 -1.6034 -0.1685 -0.9480
 7827TIP3    H244897   4.997   5.439   0.071 -1.5902  2.6674  2.4034
 7828TIP3   OH244898   3.276   3.100  15.853 -0.3391  0.0780 -0.2341
 7828TIP3    H144899   3.187   3.124  15.879 -0.4412 -1.2259  0.7469
 7828TIP3    H244900   3.295   3.157  15.778 -1.5753  1.1523  0.2122
 7829TIP3   OH244901   5.693   3.335  11.899 -0.7695  0.6917  0.0813
 7829TIP3    H144902   5.715   3.418  11.858  0.7592  0.8149  1.0547
 7829TIP3    H244903   5.764   3.320  11.962 -0.5180 -1.7735 -0.6885
 7830TIP3   OH244904   0.680   0.491  16.623  0.3834 -0.7794  0.4766
 7830TIP3    H144905   0.704   0.540  16.702  1.0136 -1.1140  0.4969
 7830TIP3    H244906   0.663   0.402  16.653  1.3625 -1.0943  0.1389
 7831TIP3   OH244907   1.736   6.369   3.890 -0.5482  0.4703 -0.2081
 7831TIP3    H144908   1.665   6.311   3.919  0.6219 -1.1688 -0.4949
 7831TIP3    H244909   1.803   6.361   3.958 -0.1066  0.9701 -0.5787
 7832TIP3   OH244910   3.273   2.426   0.957 -0.3537  0.4381  0.0260
 7832TIP3    H144911   3.239   2.388   1.038  3.1126  0.2998  1.6037
 7832TIP3    H244912   3.256   2.359   0.891 -1.8684 -0.1389  0.9313
 7833TIP3   OH244913   2.486   3.329  16.083  0.7353 -0.6163 -0.3173
 7833TIP3    H144914   2.399   3.366  16.099  1.5264  0.6495  1.3123
 7833TIP3    H244915   2.471   3.262  16.016 -1.2937  0.3541 -0.9226
 7834TIP3   OH244916   1.660   6.754  13.441  0.3258  0.7186  0.4762
 7834TIP3    H144917   1.730   6.807  13.402  1.5093 -1.7376 -1.0036
 7834TIP3    H244918   1.593   6.750  13.372  0.9638 -0.9578 -0.0804
 7835TIP3   OH244919   3.185   5.217  13.460  0.1289  0.0733  0.2636
 7835TIP3    H144920   3.091   5.228  13.471  0.2574 -0.0230  1.6258
 7835TIP3    H244921   3.205   5.262  13.378 -1.0467  0.4091  0.1487
 7836TIP3   OH244922   3.637   1.601  10.043  0.5133  0.3080 -0.1198
 7836TIP3    H144923   3.715   1.545  10.047 -0.1955 -0.8725 -1.5873
 7836TIP3    H244924   3.574   1.557  10.100  0.0100 -0.3511 -1.1475
 7837TIP3   OH244925   3.978   0.848   3.007  0.2015 -0.0766  0.4143
 7837TIP3    H144926   3.985   0.922   3.067 -0.8789  0.2065  0.2235
 7837TIP3    H244927   4.062   0.804   3.013 -0.3649 -0.9521  3.3129
 7838TIP3   OH244928   1.207   1.335  11.113 -0.2538  0.3871 -0.1451
 7838TIP3    H144929   1.214   1.313  11.020  2.3771  0.3946 -0.0189
 7838TIP3    H244930   1.185   1.429  11.113 -3.4539 -0.2458 -0.6688
 7839TIP3   OH244931   4.030   0.393   0.818  0.6574  0.1143 -0.7409
 7839TIP3    H144932   3.980   0.452   0.873  1.4056  1.2427 -1.2308
 7839TIP3    H244933   3.991   0.307   0.833 -0.0401  0.6201  0.4737
 7840TIP3   OH244934   5.235   4.557  14.431  0.0091 -0.3278 -0.4191
 7840TIP3    H144935   5.307   4.620  14.435  0.4504 -0.8084 -0.6003
 7840TIP3    H244936   5.246   4.514  14.346 -1.4521  0.7049 -1.1724
 7841TIP3   OH244937   1.839   4.493   1.676 -0.2669  0.2991  0.2077
 7841TIP3    H144938   1.876   4.469   1.761  0.1402  0.7541  0.1632
 7841TIP3    H244939   1.765   4.550   1.698 -2.3825 -2.3261  0.4002
 7842TIP3   OH244940   1.746   5.971   5.546  0.1621  0.6594  0.4082
 7842TIP3    H144941   1.819   6.028   5.521  0.0309 -0.2384 -2.3770
 7842TIP3    H244942   1.706   6.016   5.621  2.7762  1.8092  1.2485
 7843TIP3   OH244943   0.782   0.973  13.242  0.4522  0.3925 -0.2606
 7843TIP3    H144944   0.737   0.955  13.324  1.1565  0.8122  0.2317
 7843TIP3    H244945   0.787   1.069  13.238 -0.0064  0.3910 -1.0330
 7844TIP3   OH244946   4.290   4.240   0.484  0.2958 -0.2810  0.5863
 7844TIP3    H144947   4.287   4.334   0.463 -1.5536 -0.3482  0.4129
 7844TIP3    H244948   4.373   4.210   0.445  0.0733  0.9287 -0.9306
 7845TIP3   OH244949   2.049   4.974   4.809 -0.3299 -0.0298 -0.1726
 7845TIP3    H144950   2.050   4.906   4.742 -1.3051  1.0308 -1.2957
 7845TIP3    H244951   2.062   4.927   4.891 -1.3571 -1.6134 -0.8807
 7846TIP3   OH244952   0.142   2.188   3.746  0.1213  0.2873 -0.0512
 7846TIP3    H144953   0.152   2.282   3.764  0.8195  0.2256 -0.0909
 7846TIP3    H244954   0.091   2.185   3.665 -0.5416  0.6157  0.3448
 7847TIP3   OH244955   3.954   2.885  15.779  0.6209 -0.4657  0.2737
 7847TIP3    H144956   4.015   2.954  15.802  0.0396  0.1384  0.0271
 7847TIP3    H244957   3.868   2.920  15.800  0.3231 -1.1568  0.2521
 7848TIP3   OH244958   4.045   0.797   5.268 -0.1719 -0.0519 -0.3414
 7848TIP3    H144959   4.008   0.825   5.352 -0.5726 -0.2382 -0.4556
 7848TIP3    H244960   3.996   0.718   5.245 -0.1403  0.0643 -0.8079
 7849TIP3   OH244961   0.357   3.023   0.672  0.6847  0.3327 -0.3349
 7849TIP3    H144962   0.441   3.039   0.716 -0.3115  1.7961  1.1182
 7849TIP3    H244963   0.311   2.963   0.729  0.5066 -0.0360 -0.8580
 7850TIP3   OH244964   6.004   6.806  11.138 -0.4605  0.0783  0.7972
 7850TIP3    H144965   5.991   6.861  11.061 -1.7267  1.6763  2.0670
 7850TIP3    H244966   5.915   6.782  11.165  0.0347 -1.9749  0.7548
 7851TIP3   OH244967   3.720   5.112   4.797 -0.4062  0.1078 -0.0690
 7851TIP3    H144968   3.780   5.118   4.722  1.8872 -1.1039  1.5321
 7851TIP3    H244969   3.648   5.058   4.766  0.9676 -1.1685 -1.1876
 7852TIP3   OH244970   0.589   4.854  11.680  0.2134 -0.8492  0.2180
 7852TIP3    H144971   0.528   4.915  11.720 -0.3130 -0.8072 -0.6156
 7852TIP3    H244972   0.541   4.818  11.605  0.4976 -2.3080  0.7036
 7853TIP3   OH244973   1.427   3.764   1.145 -0.2736  0.3717  0.1168
 7853TIP3    H144974   1.454   3.824   1.215 -3.0404  0.2145  1.4278
 7853TIP3    H244975   1.362   3.813   1.095  0.1411 -0.2737 -1.1122
 7854TIP3   OH244976   0.828   3.401   2.528  0.0624  0.3321  0.0281
 7854TIP3    H144977   0.756   3.455   2.560  0.0997  0.0370  0.6249
 7854TIP3    H244978   0.902   3.461   2.524 -0.4387  0.8939 -1.5888
 7855TIP3   OH244979   5.527   5.055   5.162  0.0125 -0.5095 -0.3931
 7855TIP3    H144980   5.551   4.968   5.128 -0.6631 -0.7076 -0.3885
 7855TIP3    H244981   5.586   5.115   5.117  1.1565 -1.0614  0.3310
 7856TIP3   OH244982   6.199   6.686  15.486 -0.3919  0.5935 -0.0908
 7856TIP3    H144983   6.123   6.630  15.467 -0.5622  0.9497 -0.4691
 7856TIP3    H244984   6.184   6.716  15.576  0.0208 -0.4726  0.3475
 7857TIP3   OH244985   6.016   2.728   5.668 -0.0508  0.6273 -0.4118
 7857TIP3    H144986   5.983   2.676   5.740 -2.0294  0.6032 -1.2864
 7857TIP3    H244987   6.071   2.668   5.618 -1.1713 -0.2338 -0.6331
 7858TIP3   OH244988   2.832   0.135   1.873  0.5939 -0.2766  0.4218
 7858TIP3    H144989   2.842   0.203   1.806 -0.1892 -1.5104 -0.9931
 7858TIP3    H244990   2.920   0.126   1.910  1.0631  0.3930 -0.4762
 7859TIP3   OH244991   1.350   3.960   6.376  0.1521 -0.7375  0.3294
 7859TIP3    H144992   1.258   3.933   6.374 -0.0953 -0.0306 -2.5684
 7859TIP3    H244993   1.349   4.047   6.414 -0.7001  0.0723 -1.4460
 7860TIP3   OH244994   5.325   1.450  12.039 -0.1659  0.1537  0.8116
 7860TIP3    H144995   5.302   1.543  12.045 -0.9272 -0.1123  3.9936
 7860TIP3    H244996   5.406   1.442  12.089  0.4322 -0.7891 -0.2566
 7861TIP3   OH244997   2.192   5.311   5.930 -0.0835 -0.6275  0.5430
 7861TIP3    H144998   2.232   5.324   5.844  1.5816 -0.1983  1.3484
 7861TIP3    H244999   2.169   5.218   5.931  0.3321 -0.7471 -0.1812
 7862TIP3   OH245000   4.098   2.536   2.044  0.2129  0.5357  0.4895
 7862TIP3    H145001   4.087   2.575   2.130 -1.2884  1.6573 -0.1631
 7862TIP3    H245002   4.016   2.491   2.026 -0.1667  1.7347 -1.0023
 7863TIP3   OH245003   2.716   5.844  14.023  0.3813  0.4058  0.2423
 7863TIP3    H145004   2.621   5.838  14.009  0.4940 -0.6593 -0.1612
 7863TIP3    H245005   2.751   5.869  13.938  0.6292 -1.3269 -0.2188
 7864TIP3   OH245006   2.506   0.796  11.446 -0.9272 -0.8207  0.3231
 7864TIP3    H145007   2.508   0.803  11.541 -3.2216  1.4478  0.3225
 7864TIP3    H245008   2.524   0.885  11.415  0.2486 -1.6053 -1.4319
 7865TIP3   OH245009   0.246   3.375   4.713  0.1074  0.2732  0.1048
 7865TIP3    H145010   0.313   3.378   4.781  0.1354  1.6132  0.0424
 7865TIP3    H245011   0.194   3.297   4.733  0.4592  0.3393  1.3239
 7866TIP3   OH245012   4.338   6.307  10.101  0.1722  0.4123  0.0392
 7866TIP3    H145013   4.308   6.233  10.049  1.5093  0.6072 -1.0624
 7866TIP3    H245014   4.267   6.323  10.163  0.2573 -2.4254  1.0047
 7867TIP3   OH245015   5.625   2.636  11.783 -0.2264 -0.1166  0.1100
 7867TIP3    H145016   5.660   2.649  11.871  0.7730 -2.0981  0.0573
 7867TIP3    H245017   5.700   2.645  11.725 -0.7722  0.5873 -0.5140
 7868TIP3   OH245018   1.109   1.959  11.256  0.3637  0.1834  0.4408
 7868TIP3    H145019   1.014   1.947  11.260  0.5068 -2.0635 -1.3708
 7868TIP3    H245020   1.120   2.045  11.214 -0.8572  0.1651  0.0383
 7869TIP3   OH245021   1.612   3.774   3.355  0.0336  0.1243  0.2963
 7869TIP3    H145022   1.585   3.783   3.446  0.0786 -2.2969  0.6337
 7869TIP3    H245023   1.530   3.761   3.307  0.0613  0.5967  0.1246
 7870TIP3   OH245024   3.386   3.141  13.580  0.0097 -0.4628 -0.5706
 7870TIP3    H145025   3.451   3.186  13.528 -1.0432  0.3531 -1.2183
 7870TIP3    H245026   3.315   3.120  13.519 -0.1227 -1.7994 -0.0028
 7871TIP3   OH245027   0.361   6.861   1.480  0.0868 -0.1826  0.1124
 7871TIP3    H145028   0.281   6.838   1.527  0.3250 -1.3200 -0.0113
 7871TIP3    H245029   0.423   6.792   1.503  0.2822 -0.6703 -1.6790
 7872TIP3   OH245030   1.182   0.465   1.369 -0.9169 -0.0775  0.2339
 7872TIP3    H145031   1.225   0.548   1.349 -1.4062 -0.4547 -2.8109
 7872TIP3    H245032   1.161   0.427   1.284  0.4223 -3.9599  1.3936
 7873TIP3   OH245033   1.074   4.917  11.390  0.0875  0.0116  0.2765
 7873TIP3    H145034   1.145   4.955  11.442  0.0821  1.4762 -0.7497
 7873TIP3    H245035   1.095   4.938  11.300 -1.9914  1.1235 -0.0218
 7874TIP3   OH245036   2.735   3.500   5.123 -0.1631  0.1257  0.0931
 7874TIP3    H145037   2.810   3.479   5.180 -0.4844  0.8286  0.7853
 7874TIP3    H245038   2.679   3.422   5.128 -0.3734  0.3293  1.0468
 7875TIP3   OH245039   2.810   4.838   6.054  0.1645 -0.3172 -0.5664
 7875TIP3    H145040   2.827   4.749   6.087 -1.0416 -0.2665  0.2813
 7875TIP3    H245041   2.895   4.881   6.057  0.6469 -1.2484 -0.3529
 7876TIP3   OH245042   1.251   3.431   5.225 -0.1924 -0.1516 -0.5072
 7876TIP3    H145043   1.243   3.335   5.231  1.1671 -0.2896 -0.5630
 7876TIP3    H245044   1.306   3.455   5.299 -0.1162  0.5295 -0.7799
 7877TIP3   OH245045   4.395   0.745   2.198 -0.1772 -0.4763 -0.3747
 7877TIP3    H145046   4.459   0.676   2.182 -0.5897 -0.8636 -0.3502
 7877TIP3    H245047   4.344   0.750   2.117 -0.5408 -0.6139 -0.1547
 7878TIP3   OH245048   2.018   3.061   5.809  0.2824 -0.1156  0.0097
 7878TIP3    H145049   2.012   3.047   5.904  1.5791  1.1573  0.3201
 7878TIP3    H245050   2.052   2.979   5.775  0.8168 -0.2386  0.8037
 7879TIP3   OH245051   0.092   1.044  15.618  0.6187 -0.1813 -0.0701
 7879TIP3    H145052   0.147   0.966  15.621 -0.6733 -1.1202  0.3441
 7879TIP3    H245053   0.007   1.012  15.587  0.0912  1.0721  0.0320
 7880TIP3   OH245054   0.806   5.343   5.538  0.4447  0.6632  0.0636
 7880TIP3    H145055   0.760   5.267   5.575  0.7361  0.7877  0.6977
 7880TIP3    H245056   0.898   5.325   5.552  0.5567  0.7498 -0.5512
 7881TIP3   OH245057   3.016   5.891   1.103 -0.2572  0.5112 -0.9703
 7881TIP3    H145058   3.087   5.898   1.039 -0.8714  1.6117 -1.5639
 7881TIP3    H245059   3.039   5.815   1.156  0.5637 -0.0838 -2.1316
 7882TIP3   OH245060   1.257   4.785  12.282  0.0370  0.6053 -0.2160
 7882TIP3    H145061   1.271   4.741  12.199 -0.5897  0.4780 -0.2551
 7882TIP3    H245062   1.298   4.871  12.272  1.2676  0.0447 -0.1384
 7883TIP3   OH245063   0.384   4.478  13.374 -0.0064  0.0604 -0.4797
 7883TIP3    H145064   0.449   4.443  13.435 -0.5096 -0.8765 -0.4586
 7883TIP3    H245065   0.414   4.567  13.355 -0.0057  0.5065  1.3924
 7884TIP3   OH245066   0.961   0.882   2.890 -0.1386 -0.5707  0.0369
 7884TIP3    H145067   0.898   0.917   2.953  0.1655  2.1236 -1.0116
 7884TIP3    H245068   0.907   0.852   2.817 -0.2849  0.4518 -0.2821
 7885TIP3   OH245069   4.037   5.903  11.823  0.1847 -0.2603  0.3895
 7885TIP3    H145070   4.054   5.963  11.749 -1.0852  1.2127  1.2349
 7885TIP3    H245071   4.021   5.818  11.781  0.9414  0.2113 -0.9288
 7886TIP3   OH245072   0.495   5.567   5.583  0.2310  0.4575 -0.3996
 7886TIP3    H145073   0.573   5.605   5.543  0.6417  1.5725  1.3649
 7886TIP3    H245074   0.438   5.642   5.602  0.0010 -0.0304  0.9515
 7887TIP3   OH245075   5.269   3.800  13.897  0.0028 -0.0116  0.1926
 7887TIP3    H145076   5.270   3.891  13.927 -1.1594  1.1509 -2.8876
 7887TIP3    H245077   5.355   3.787  13.856 -0.1972  0.0210 -0.2362
 7888TIP3   OH245078   0.237   5.701   1.872 -0.4056 -0.1524 -0.2605
 7888TIP3    H145079   0.258   5.665   1.786  0.8586  3.9145 -1.9051
 7888TIP3    H245080   0.305   5.667   1.929 -0.8074 -2.3080 -0.9643
 7889TIP3   OH245081   1.743   3.248  15.481  0.0620  0.1979  0.3606
 7889TIP3    H145082   1.830   3.268  15.517 -0.5138  1.5928  1.0341
 7889TIP3    H245083   1.682   3.282  15.546 -0.9986  0.6433 -0.8397
 7890TIP3   OH245084   0.142   0.175  12.434 -0.1191 -0.3029 -0.6093
 7890TIP3    H145085   0.159   0.091  12.391 -0.2680 -0.3080 -0.6585
 7890TIP3    H245086   0.193   0.172  12.515  0.2470 -0.2512 -0.8355
 7891TIP3   OH245087   6.439   2.477  16.393 -0.1557 -0.4710 -0.7430
 7891TIP3    H145088   6.441   2.572  16.409 -0.9264 -0.6933  0.8101
 7891TIP3    H245089   6.531   2.451  16.396 -0.0591 -0.0632  0.9179
 7892TIP3   OH245090   3.852   5.124   0.592  0.5233  0.6001  0.6070
 7892TIP3    H145091   3.829   5.210   0.626  1.1201  1.3185 -0.7405
 7892TIP3    H245092   3.948   5.122   0.593  0.5982  0.8697 -1.4595
 7893TIP3   OH245093   5.368   3.448  15.797 -0.3853  0.0666  0.6007
 7893TIP3    H145094   5.382   3.543  15.796  1.6090 -0.1855 -0.7814
 7893TIP3    H245095   5.420   3.417  15.871  0.2805 -0.0961  0.0728
 7894TIP3   OH245096   6.370   3.836  13.303 -0.7599  0.4447  0.5141
 7894TIP3    H145097   6.432   3.763  13.295 -0.9428  0.4624 -1.3805
 7894TIP3    H245098   6.400   3.901  13.241 -2.3938  0.6602 -0.1059
 7895TIP3   OH245099   5.149   1.177  11.325 -0.0750  0.1072  0.1412
 7895TIP3    H145100   5.110   1.226  11.397  0.4141  0.7853 -0.0410
 7895TIP3    H245101   5.227   1.227  11.301 -0.2010 -0.1305 -0.8225
 7896TIP3   OH245102   2.129   1.738  13.564  0.3607 -0.3811  0.5409
 7896TIP3    H145103   2.097   1.647  13.564 -0.2967 -0.2247  3.1707
 7896TIP3    H245104   2.113   1.769  13.653  1.1714  2.1385 -0.1162
 7897TIP3   OH245105   1.606   2.059  15.032  0.5421  0.2174 -0.1572
 7897TIP3    H145106   1.518   2.024  15.029  1.0757 -1.2564  0.3488
 7897TIP3    H245107   1.652   2.015  14.961  0.5458  2.0336 -1.3520
 7898TIP3   OH245108   6.366   1.093   0.084  0.1820  0.2526  0.5695
 7898TIP3    H145109   6.435   1.027   0.077 -1.2456 -1.2267 -0.5841
 7898TIP3    H245110   6.335   1.085   0.174  0.3950 -0.2971  0.6021
 7899TIP3   OH245111   2.207   3.883   1.847  0.5207  0.0880  0.3824
 7899TIP3    H145112   2.252   3.880   1.763 -1.5881 -1.0549 -0.8058
 7899TIP3    H245113   2.244   3.810   1.897  1.4010  0.4284  0.2349
 7900TIP3   OH245114   0.132   3.089   5.023 -0.3698 -0.4314  0.2477
 7900TIP3    H145115   0.192   3.157   5.053 -1.2853  0.9230 -0.8439
 7900TIP3    H245116   0.058   3.094   5.083 -0.1392 -0.9679  0.5877
 7901TIP3   OH245117   0.540   1.015   4.385 -0.2330  0.2185  0.5777
 7901TIP3    H145118   0.604   1.033   4.316 -1.4264  1.8938 -0.1556
 7901TIP3    H245119   0.525   0.921   4.379  1.1597  0.0043 -0.1123
 7902TIP3   OH245120   2.853   2.061   5.505 -0.2459  0.5917  0.1812
 7902TIP3    H145121   2.812   2.144   5.529 -0.7544  0.5497 -0.5003
 7902TIP3    H245122   2.809   1.996   5.560 -0.0322  0.7333  0.5260
 7903TIP3   OH245123   4.891   0.578   0.603  0.8570  0.0488 -0.1392
 7903TIP3    H145124   4.909   0.569   0.697 -1.1928 -2.7232  0.1017
 7903TIP3    H245125   4.815   0.636   0.599 -0.2035 -1.2831  0.1065
 7904TIP3   OH245126   1.210   2.145   1.462 -0.3349  0.1267  0.1744
 7904TIP3    H145127   1.302   2.173   1.466  0.1939 -1.5552  0.2786
 7904TIP3    H245128   1.203   2.094   1.382 -0.5443 -1.8516  1.3999
 7905TIP3   OH245129   2.385   2.850  11.174  0.2116  0.9220 -0.2821
 7905TIP3    H145130   2.441   2.878  11.102  1.0692  0.1165  0.0494
 7905TIP3    H245131   2.326   2.785  11.135  0.7621  0.3885 -0.2464
 7906TIP3   OH245132   4.608   0.224   5.640  0.1543  0.4887  0.2625
 7906TIP3    H145133   4.665   0.244   5.714  2.1391  0.7480 -1.2690
 7906TIP3    H245134   4.653   0.152   5.594 -1.8670 -0.8133  0.1835
 7907TIP3   OH245135   0.442   6.560  12.146  0.3630 -0.0004 -0.3674
 7907TIP3    H145136   0.467   6.646  12.179  2.7271  0.3953 -2.8456
 7907TIP3    H245137   0.516   6.532  12.094 -1.5833 -2.1911 -2.1717
 7908TIP3   OH245138   5.155   5.622   3.786 -0.0066  0.0073  0.4944
 7908TIP3    H145139   5.190   5.706   3.755  0.8571  0.4857  2.5828
 7908TIP3    H245140   5.080   5.647   3.841  0.9344 -0.4571  2.0450
 7909TIP3   OH245141   0.453   0.945  12.598  0.2950 -0.0443  0.7944
 7909TIP3    H145142   0.387   0.896  12.549  0.9440 -1.5043  1.3389
 7909TIP3    H245143   0.465   0.896  12.678  1.4641  0.6521  1.0708
 7910TIP3   OH245144   4.441   5.028   1.916 -0.3512 -0.2222 -0.1629
 7910TIP3    H145145   4.439   4.953   1.856 -2.4242  0.6295 -1.2603
 7910TIP3    H245146   4.364   5.017   1.971 -0.0007  0.4834  0.4823
 7911TIP3   OH245147   5.123   5.545  12.074 -0.1231  0.4104  0.3765
 7911TIP3    H145148   5.034   5.546  12.038 -0.6737  0.8666  1.6873
 7911TIP3    H245149   5.160   5.630  12.051  0.5855 -0.3654 -1.5475
 7912TIP3   OH245150   4.786   1.775   1.375 -0.2133 -0.1711  0.0559
 7912TIP3    H145151   4.879   1.756   1.365 -0.2213  0.6779 -2.3449
 7912TIP3    H245152   4.783   1.856   1.426  0.2843 -0.8100  1.1266
 7913TIP3   OH245153   1.973   6.656  11.592  0.3369 -0.4603 -0.6001
 7913TIP3    H145154   2.045   6.692  11.644 -1.5415 -0.1312  1.9232
 7913TIP3    H245155   1.954   6.725  11.528 -0.5176  1.4166  1.5323
 7914TIP3   OH245156   2.196   6.671   0.660  0.4365  0.0994 -0.5310
 7914TIP3    H145157   2.166   6.589   0.621  0.1727  0.1430 -0.4166
 7914TIP3    H245158   2.292   6.668   0.650  0.3689  0.1463 -1.2584
 7915TIP3   OH245159   0.448   5.007   5.809  0.4311 -0.1470 -0.0716
 7915TIP3    H145160   0.431   4.914   5.794 -0.5938 -0.1367  0.9296
 7915TIP3    H245161   0.478   5.040   5.725 -0.6168 -1.0740 -0.8273
 7916TIP3   OH245162   5.688   4.786   4.507  0.4270  0.1212  0.1619
 7916TIP3    H145163   5.619   4.834   4.462  1.5380  0.0978 -1.6725
 7916TIP3    H245164   5.648   4.755   4.588 -0.7919  2.7153  0.6231
 7917TIP3   OH245165   0.689   5.760   2.643  0.0569  0.2625  0.5102
 7917TIP3    H145166   0.624   5.733   2.707 -1.0143 -0.9814 -1.0190
 7917TIP3    H245167   0.730   5.679   2.614  0.6632  0.8090 -0.2127
 7918TIP3   OH245168   1.546   2.298  12.777 -0.6797 -0.1291 -0.3500
 7918TIP3    H145169   1.474   2.242  12.747 -0.7916  0.3576 -0.9903
 7918TIP3    H245170   1.624   2.244  12.765 -1.0403 -1.1799  1.6234
 7919TIP3   OH245171   1.311   5.624   3.788 -0.5416  0.2639 -0.1880
 7919TIP3    H145172   1.224   5.584   3.797 -0.5767  0.3531 -0.1217
 7919TIP3    H245173   1.337   5.646   3.877 -0.7688  0.8967 -0.2709
 7920TIP3   OH245174   5.241   3.987   4.559 -0.1401 -0.0775 -0.4658
 7920TIP3    H145175   5.216   4.003   4.650 -2.0151 -1.1492 -0.7452
 7920TIP3    H245176   5.278   4.070   4.530 -2.2211  1.2707  0.4430
 7921TIP3   OH245177   1.317   6.691   0.357  0.0648 -0.7967 -0.4184
 7921TIP3    H145178   1.310   6.599   0.329  2.0251 -1.1826  0.1594
 7921TIP3    H245179   1.346   6.738   0.279 -2.4539 -0.3271 -1.1451
 7922TIP3   OH245180   5.959   3.984   5.629 -0.1863 -0.0129  0.1078
 7922TIP3    H145181   5.984   3.952   5.716  2.5512  1.1878 -0.1529
 7922TIP3    H245182   5.950   3.905   5.576 -1.2362 -0.7200  1.2699
 7923TIP3   OH245183   2.026   5.661  15.471  0.1742 -0.2150  0.0986
 7923TIP3    H145184   2.037   5.569  15.494 -0.3222 -0.3085 -0.0276
 7923TIP3    H245185   2.009   5.706  15.554  1.2843 -0.0913  0.2794
 7924TIP3   OH245186   5.458   0.194  16.163  0.0292 -0.4165  0.1842
 7924TIP3    H145187   5.403   0.233  16.095 -0.1310 -2.0021 -0.6504
 7924TIP3    H245188   5.470   0.263  16.227 -1.3211  0.5741 -0.5835
 7925TIP3   OH245189   1.299   1.534   4.436  0.3001 -0.3676 -0.7250
 7925TIP3    H145190   1.235   1.509   4.369  0.3936  0.1229 -1.0053
 7925TIP3    H245191   1.251   1.591   4.495  0.2021 -0.8464 -0.3323
 7926TIP3   OH245192   1.183   3.661   3.736  0.5836  0.4771  0.0085
 7926TIP3    H145193   1.148   3.745   3.709 -0.3018  0.6388  1.5405
 7926TIP3    H245194   1.193   3.668   3.831 -1.1853 -1.7027  0.4399
 7927TIP3   OH245195   0.696   6.379   0.661  0.2742 -0.3564  0.4420
 7927TIP3    H145196   0.698   6.416   0.573  0.4780 -1.0796  0.1307
 7927TIP3    H245197   0.653   6.446   0.714 -2.5569 -1.0419 -0.7531
 7928TIP3   OH245198   4.873   4.635   0.244 -0.0878  0.4152 -0.3959
 7928TIP3    H145199   4.779   4.637   0.231 -0.0133 -0.9685 -1.3774
 7928TIP3    H245200   4.885   4.617   0.337 -0.7766  0.6075 -0.2650
 7929TIP3   OH245201   2.529   0.957  13.467 -0.2747  0.0829  0.1012
 7929TIP3    H145202   2.463   0.996  13.525 -2.2993 -0.6788 -1.5547
 7929TIP3    H245203   2.589   0.911  13.526 -1.8093 -0.0671  1.6358
 7930TIP3   OH245204   6.251   4.916  11.120  0.1837 -0.1502  1.0400
 7930TIP3    H145205   6.238   4.937  11.212  3.1103 -2.0325  2.0072
 7930TIP3    H245206   6.215   4.992  11.073 -2.5050  0.3475  3.5687
 7931TIP3   OH245207   6.658   1.861   3.392  0.1286  0.2149  0.0395
 7931TIP3    H145208   6.577   1.826   3.355  1.7508 -1.9953 -1.6828
 7931TIP3    H245209   6.697   1.788   3.439  1.2992  1.1218  0.5241
 7932TIP3   OH245210   3.929   5.427   2.933 -0.2176  0.2002  0.7252
 7932TIP3    H145211   3.998   5.452   2.872  1.0144 -0.1050  1.9335
 7932TIP3    H245212   3.850   5.469   2.899  1.1969  3.5998  1.1814
 7933TIP3   OH245213   6.555   2.977   2.565  0.4954 -0.0377 -0.0418
 7933TIP3    H145214   6.646   3.008   2.556  0.6890 -0.5482  0.1445
 7933TIP3    H245215   6.536   2.935   2.481  0.8700 -1.0596  0.3699
 7934TIP3   OH245216   4.063   6.650   2.803 -0.3733  0.5063  0.0853
 7934TIP3    H145217   4.041   6.621   2.715  0.1679 -2.8984  0.8966
 7934TIP3    H245218   4.146   6.696   2.793 -1.4768  2.2935 -1.3986
 7935TIP3   OH245219   1.146   4.887  15.374  0.0134 -0.0709  0.1935
 7935TIP3    H145220   1.079   4.836  15.329 -0.5412  0.3943  0.4780
 7935TIP3    H245221   1.195   4.823  15.424  1.3071 -0.7671 -1.8355
 7936TIP3   OH245222   4.375   3.752  13.166 -0.2129 -0.0754 -0.1588
 7936TIP3    H145223   4.284   3.769  13.139 -0.3235  1.2353  0.9049
 7936TIP3    H245224   4.379   3.657  13.178 -1.7566 -0.0750  0.7213
 7937TIP3   OH245225   1.146   2.848  13.988  0.7764  0.6345 -0.3500
 7937TIP3    H145226   1.227   2.875  14.031  1.2286 -1.1565  0.0026
 7937TIP3    H245227   1.079   2.906  14.025  1.7047  1.3864  0.2074
 7938TIP3   OH245228   3.378   0.635   0.216 -0.5665  0.5584  0.4006
 7938TIP3    H145229   3.286   0.625   0.242 -0.6428  0.7534  0.2145
 7938TIP3    H245230   3.386   0.727   0.192 -0.1891  0.6597  0.9097
 7939TIP3   OH245231   6.751   4.669  12.364 -0.0931 -0.0652  0.1702
 7939TIP3    H145232   6.814   4.600  12.385 -1.2703 -1.1671  0.2594
 7939TIP3    H245233   6.733   4.711  12.448 -0.4588 -0.6511  0.4016
 7940TIP3   OH245234   6.612   1.519   1.123 -0.6395  0.3670 -0.0432
 7940TIP3    H145235   6.599   1.475   1.039 -0.8690  0.6873 -0.1785
 7940TIP3    H245236   6.707   1.526   1.133 -0.5329 -1.5201  0.6945
 7941TIP3   OH245237   3.402   1.591  13.271  0.2265 -0.6396  0.6243
 7941TIP3    H145238   3.498   1.591  13.276  0.2639  1.0994  0.5466
 7941TIP3    H245239   3.376   1.665  13.325 -1.0068 -0.3846 -0.2795
 7942TIP3   OH245240   5.532   6.021   2.696 -0.2740  0.0138  0.3021
 7942TIP3    H145241   5.598   6.088   2.714 -1.0370  0.8084  0.2503
 7942TIP3    H245242   5.484   6.012   2.779  0.3669 -1.1034  0.5612
 7943TIP3   OH245243   2.309   0.093   1.809  0.2741  0.2813  0.8137
 7943TIP3    H145244   2.379   0.102   1.744 -1.1797  0.8652 -0.7469
 7943TIP3    H245245   2.296   0.182   1.842  1.0110 -0.0153  1.9403
 7944TIP3   OH245246   2.962   1.206   4.850  0.6424 -0.0367 -0.0259
 7944TIP3    H145247   3.042   1.188   4.899  0.7479  0.7214  0.0922
 7944TIP3    H245248   2.984   1.280   4.794  0.1137 -0.0148 -0.2117
 7945TIP3   OH245249   5.132   1.795  10.727  0.0317  0.0255 -0.0155
 7945TIP3    H145250   5.087   1.712  10.740  1.0842 -0.5912 -0.1770
 7945TIP3    H245251   5.214   1.786  10.776 -0.1969  1.2964  0.6750
 7946TIP3   OH245252   3.216   4.266  11.711  0.3219  0.0154  0.4919
 7946TIP3    H145253   3.208   4.323  11.635 -0.3917 -1.2861 -0.4552
 7946TIP3    H245254   3.249   4.183  11.676 -0.0792 -0.6316  1.5845
 7947TIP3   OH245255   2.383   5.621  11.095 -0.2150 -0.0580  0.2474
 7947TIP3    H145256   2.463   5.620  11.148  0.2780 -0.9631 -0.4823
 7947TIP3    H245257   2.344   5.534  11.111 -0.7610  0.1656  0.1517
 7948TIP3   OH245258   1.659   0.531  13.948 -0.6018 -0.0344  0.3694
 7948TIP3    H145259   1.628   0.585  13.875 -0.1570 -0.0354  0.1729
 7948TIP3    H245260   1.730   0.582  13.987 -1.3006  0.2803  1.2470
 7949TIP3   OH245261   4.154   6.250   5.265  0.0064 -0.1172  0.1208
 7949TIP3    H145262   4.143   6.176   5.325  0.4716 -1.3660 -1.2813
 7949TIP3    H245263   4.067   6.265   5.230  0.2447 -1.4002 -1.1310
 7950TIP3   OH245264   2.872   1.694  13.836  0.0312 -0.3107 -0.8743
 7950TIP3    H145265   2.842   1.738  13.756  1.1189  1.2272 -0.4787
 7950TIP3    H245266   2.954   1.652  13.810 -0.7426 -1.7517 -1.1116
 7951TIP3   OH245267   0.389   5.182   0.497  0.0708 -0.3300  0.6490
 7951TIP3    H145268   0.319   5.118   0.491  0.2062 -0.4317  0.1170
 7951TIP3    H245269   0.354   5.252   0.552 -0.7554  0.0237 -0.3091
 7952TIP3   OH245270   2.592   5.883   0.491  0.4177  0.0003 -0.9210
 7952TIP3    H145271   2.501   5.910   0.503 -0.1334 -1.5904 -1.2326
 7952TIP3    H245272   2.591   5.830   0.411  1.3251 -1.2598 -0.1362
 7953TIP3   OH245273   2.380   6.484  10.980 -0.4759 -0.0994  0.3392
 7953TIP3    H145274   2.390   6.533  10.898  0.2144 -1.0122 -0.1391
 7953TIP3    H245275   2.470   6.466  11.007 -0.7008  0.1009  1.2583
 7954TIP3   OH245276   4.992   0.105  14.624 -0.0742 -0.0107 -0.4826
 7954TIP3    H145277   5.062   0.130  14.684 -0.2701 -1.3994  0.3623
 7954TIP3    H245278   5.037   0.064  14.550  0.0274 -0.9327  0.0740
 7955TIP3   OH245279   5.177   1.757   3.299  0.0004  0.3133 -0.1057
 7955TIP3    H145280   5.094   1.711   3.285 -0.5592  1.2646  0.0227
 7955TIP3    H245281   5.154   1.832   3.353  1.0018  0.4287  0.1747
 7956TIP3   OH245282   3.220   1.165   5.627  0.1775 -0.6767 -0.0820
 7956TIP3    H145283   3.184   1.099   5.685  0.5381  0.1240  1.0907
 7956TIP3    H245284   3.280   1.216   5.682  2.3365 -1.3017 -1.6773
 7957TIP3   OH245285   5.136   2.365   5.043  0.7335  0.3055  0.2190
 7957TIP3    H145286   5.084   2.386   5.121  0.7962  2.4178 -0.2365
 7957TIP3    H245287   5.102   2.281   5.013 -0.2013  0.1003  1.7623
 7958TIP3   OH245288   3.070   5.158  15.425 -0.5847  0.4430 -0.3637
 7958TIP3    H145289   3.109   5.242  15.448 -1.5770  1.1544 -1.2059
 7958TIP3    H245290   3.142   5.109  15.385  0.0536  0.8061  0.3304
 7959TIP3   OH245291   4.752   2.894  13.841  0.2400  0.5044  0.3507
 7959TIP3    H145292   4.678   2.833  13.835 -1.5054  2.5886 -0.3764
 7959TIP3    H245293   4.742   2.936  13.926  0.3808  1.0688  0.0901
 7960TIP3   OH245294   0.622   0.415  14.888 -0.3768  0.2367 -0.2185
 7960TIP3    H145295   0.606   0.337  14.942 -0.7770  0.2015 -0.3883
 7960TIP3    H245296   0.582   0.395  14.804  0.2746  0.2837 -0.5471
 7961TIP3   OH245297   2.594   4.423  12.724 -0.1687  0.0792 -0.0798
 7961TIP3    H145298   2.654   4.475  12.778 -0.8811 -0.5345  1.3641
 7961TIP3    H245299   2.644   4.344  12.703 -0.4630 -0.4706  1.1929
 7962TIP3   OH245300   5.881   6.859  10.857  0.0303  0.1261 -0.3525
 7962TIP3    H145301   5.820   6.786  10.848  0.7466 -0.4862 -0.3198
 7962TIP3    H245302   5.858   6.918  10.786 -1.4512  0.5466  0.4280
 7963TIP3   OH245303   6.681   2.982   9.515 -0.1748 -0.0109  0.0329
 7963TIP3    H145304   6.756   2.971   9.574  0.4369  0.0051 -0.7148
 7963TIP3    H245305   6.633   3.057   9.549  0.0241 -0.1623  0.6544
 7964TIP3   OH245306   4.089   1.042   5.634 -0.2212  0.0881  0.1086
 7964TIP3    H145307   4.099   1.125   5.586 -1.9244 -0.3727 -1.1396
 7964TIP3    H245308   4.047   1.066   5.716  0.6279  0.6110  0.4062
 7965TIP3   OH245309   4.811   1.941  11.400  0.4431  0.4710 -0.1491
 7965TIP3    H145310   4.735   1.900  11.358  0.5504  1.0463 -0.9201
 7965TIP3    H245311   4.852   1.993  11.330  0.4309  1.7254  0.7623
 7966TIP3   OH245312   2.536   3.552   0.300  0.7174 -0.1926 -0.7626
 7966TIP3    H145313   2.622   3.585   0.324  1.4046 -2.2245 -0.1972
 7966TIP3    H245314   2.548   3.516   0.212  0.1014  0.6516 -1.2016
 7967TIP3   OH245315   3.769   6.778  13.660  0.4446 -0.5099 -0.2164
 7967TIP3    H145316   3.770   6.830  13.740 -1.2439 -0.2742 -0.2957
 7967TIP3    H245317   3.702   6.821  13.606  1.1418 -1.0157 -1.5059
 7968TIP3   OH245318   0.765   1.704   0.952 -0.2580 -0.0659 -0.3820
 7968TIP3    H145319   0.806   1.666   0.874  1.5697  0.0983  0.4355
 7968TIP3    H245320   0.766   1.798   0.936  1.0231  0.0449  0.2043
 7969TIP3   OH245321   0.424   3.687  15.246 -0.1892 -0.2308  0.8046
 7969TIP3    H145322   0.497   3.747  15.230 -0.1060 -0.3970  0.5586
 7969TIP3    H245323   0.455   3.633  15.320  0.5050 -1.2065 -0.1662
 7970TIP3   OH245324   5.148   5.847  16.476  0.1239 -0.0587  0.1917
 7970TIP3    H145325   5.096   5.783  16.427 -0.9421  0.5343  0.5159
 7970TIP3    H245326   5.123   5.931  16.440  0.5320  0.2728  0.6603
 7971TIP3   OH245327   0.718   6.150  13.913  0.3157  0.1629 -0.4469
 7971TIP3    H145328   0.737   6.096  13.989  0.1322 -1.2196 -1.3452
 7971TIP3    H245329   0.790   6.132  13.852  0.8948  1.8608 -0.3159
 7972TIP3   OH245330   4.123   1.067  14.728 -0.0821  0.6552  0.2714
 7972TIP3    H145331   4.085   1.020  14.802 -1.3195  0.4960 -0.4422
 7972TIP3    H245332   4.059   1.057  14.658  1.0364  0.8629 -0.8070
 7973TIP3   OH245333   6.123   3.424  13.506  1.0191 -0.3999 -0.3140
 7973TIP3    H145334   6.098   3.509  13.542 -0.3707 -1.0627  0.3772
 7973TIP3    H245335   6.209   3.439  13.466  0.9028  1.2606 -0.0137
 7974TIP3   OH245336   3.389   4.818  13.212  0.1528  0.2813  0.2524
 7974TIP3    H145337   3.332   4.754  13.170 -0.4650  0.8566  0.1819
 7974TIP3    H245338   3.347   4.833  13.298  0.3434  0.5138  0.3047
 7975TIP3   OH245339   4.248   4.881  15.418 -0.2772 -0.3721  0.6748
 7975TIP3    H145340   4.241   4.817  15.489 -1.2338 -0.8996  0.1200
 7975TIP3    H245341   4.338   4.913  15.423 -0.2948 -0.4704  2.0637
 7976TIP3   OH245342   5.446   2.010   3.531  0.2443  0.1359  0.0972
 7976TIP3    H145343   5.372   2.053   3.489  0.5890  1.5523  0.8674
 7976TIP3    H245344   5.431   1.916   3.518 -0.9369  0.4590 -0.9628
 7977TIP3   OH245345   5.328   2.859  12.027 -0.5732  0.0274  0.6525
 7977TIP3    H145346   5.347   2.833  11.937 -0.2587  2.2415  0.0318
 7977TIP3    H245347   5.409   2.898  12.059  0.7960 -4.4519  3.4857
 7978TIP3   OH245348   4.917   0.808  13.518  0.5510  0.5105  0.2640
 7978TIP3    H145349   4.881   0.721  13.533  2.2423 -0.2007  0.2947
 7978TIP3    H245350   4.937   0.841  13.606  1.7023  0.1505  0.1385
 7979TIP3   OH245351   6.603   3.301  10.846 -0.2210  0.7874  0.2447
 7979TIP3    H145352   6.694   3.287  10.874 -0.5415  0.0422  0.9757
 7979TIP3    H245353   6.572   3.374  10.900 -0.4426  0.1897  0.9485
 7980TIP3   OH245354   1.498   5.185  16.140 -0.7540  0.2304  0.6158
 7980TIP3    H145355   1.537   5.238  16.070 -2.2571  0.9590  0.2889
 7980TIP3    H245356   1.411   5.222  16.152 -0.2637  0.6748  3.4592
 7981TIP3   OH245357   6.836   6.142  14.971 -0.2089  0.9503  0.4186
 7981TIP3    H145358   6.765   6.113  14.914  0.5888  0.5882 -0.4111
 7981TIP3    H245359   6.853   6.067  15.028  0.7710  0.3235 -0.6568
 7982TIP3   OH245360   1.178   0.043  13.465  0.5110 -0.1266 -0.6304
 7982TIP3    H145361   1.159   0.114  13.527  1.0129  0.8330 -1.5348
 7982TIP3    H245362   1.118  -0.027  13.490 -0.0119  0.6197  0.2883
 7983TIP3   OH245363   5.102   1.343  13.902  0.4240 -0.2157  0.0776
 7983TIP3    H145364   5.083   1.279  13.833  1.2971 -0.7975  0.3580
 7983TIP3    H245365   5.046   1.317  13.975 -1.7063  1.3519 -0.8945
 7984TIP3   OH245366   3.391   3.558   4.181 -0.3588 -0.0625  0.2296
 7984TIP3    H145367   3.437   3.595   4.256 -0.8576  0.8765  0.1018
 7984TIP3    H245368   3.460   3.536   4.119 -0.0373  0.8888  0.2246
 7985TIP3   OH245369   3.532   5.952  13.680  0.4725 -0.2764 -0.4110
 7985TIP3    H145370   3.593   6.011  13.636 -0.5133  1.1307  0.0451
 7985TIP3    H245371   3.475   5.920  13.611 -0.6218  1.3698 -0.3291
 7986TIP3   OH245372   5.947   6.577  12.170  1.0436 -0.2815  0.0373
 7986TIP3    H145373   5.904   6.491  12.170  0.4677 -0.0087  1.1805
 7986TIP3    H245374   5.876   6.639  12.185  1.5983  0.3297  0.1758
 7987TIP3   OH245375   5.948   6.100   1.946 -1.0773 -0.3181 -0.2399
 7987TIP3    H145376   6.022   6.144   1.903 -0.8892  0.1042  0.4903
 7987TIP3    H245377   5.979   6.085   2.036 -1.6124 -0.8090 -0.1335
 7988TIP3   OH245378   2.367   4.822  11.606  0.2168  0.2392 -0.3967
 7988TIP3    H145379   2.448   4.834  11.656  0.7326  0.3205 -1.2331
 7988TIP3    H245380   2.377   4.737  11.564 -0.6753 -0.3143  0.4570
 7989TIP3   OH245381   0.458   4.400  15.459  0.9862 -0.1609 -0.4162
 7989TIP3    H145382   0.457   4.388  15.364  0.7719 -1.0087 -0.3164
 7989TIP3    H245383   0.379   4.356  15.490  0.4128  1.1259  0.0579
 7990TIP3   OH245384   4.357   3.069  10.420  0.0327 -0.5440  0.3847
 7990TIP3    H145385   4.326   3.160  10.414 -0.3529 -0.7437 -0.6720
 7990TIP3    H245386   4.400   3.052  10.337 -0.1155 -1.4175  0.4761
 7991TIP3   OH245387   6.596   4.409  16.120  0.3778 -0.2033 -0.0939
 7991TIP3    H145388   6.627   4.364  16.041  0.9275  2.2621 -1.3876
 7991TIP3    H245389   6.662   4.390  16.186  1.1872 -0.3533 -0.9259
 7992TIP3   OH245390   4.331   5.406  13.967  0.4634 -0.5676 -0.1609
 7992TIP3    H145391   4.278   5.471  14.013 -1.4661  0.2322 -3.2643
 7992TIP3    H245392   4.416   5.449  13.956  0.0131  0.4123  0.0587
 7993TIP3   OH245393   6.106   2.771  14.501 -0.7785  0.1099 -0.0533
 7993TIP3    H145394   6.167   2.835  14.463  0.4998  0.0428  1.7554
 7993TIP3    H245395   6.046   2.750  14.430 -0.3721  2.2519 -1.1200
 7994TIP3   OH245396   5.546   4.788   4.046 -0.3946 -0.1647  0.0649
 7994TIP3    H145397   5.468   4.741   4.074  0.6101 -0.6614  2.2881
 7994TIP3    H245398   5.565   4.847   4.119  1.9553 -0.9409  0.1589
 7995TIP3   OH245399   3.912   2.531  12.651 -0.1554  0.2621  0.2971
 7995TIP3    H145400   3.919   2.585  12.572  1.9266 -0.3872 -0.0283
 7995TIP3    H245401   3.992   2.549  12.699 -0.7186 -0.4764  1.5566
 7996TIP3   OH245402   1.857   6.819  11.406  0.0097 -0.3116  0.3792
 7996TIP3    H145403   1.861   6.771  11.323  0.8390  0.6471 -0.1554
 7996TIP3    H245404   1.789   6.885  11.392  1.4763  1.1365 -0.2843
 7997TIP3   OH245405   3.278   6.287  14.810 -0.2467  0.2188  0.1736
 7997TIP3    H145406   3.255   6.316  14.899  0.1826  2.5313 -0.4090
 7997TIP3    H245407   3.370   6.261  14.816 -0.8943 -2.1574  0.9192
 7998TIP3   OH245408   1.274   0.959  12.568 -0.2497  0.4777  0.6718
 7998TIP3    H145409   1.287   0.969  12.474 -0.4032  0.6588  0.6687
 7998TIP3    H245410   1.361   0.975  12.606 -0.4833  1.9550  0.6729
 7999TIP3   OH245411   4.241   0.106   2.211  0.0686 -0.1549  0.2457
 7999TIP3    H145412   4.210   0.154   2.288 -1.1243 -1.4730  0.6481
 7999TIP3    H245413   4.298   0.038   2.246  1.9547  1.0561 -0.3384
 8000TIP3   OH245414   0.030   6.311   5.076 -0.1842  0.5136  0.6720
 8000TIP3    H145415   0.079   6.263   5.009 -0.3525  1.2410  0.0166
 8000TIP3    H245416   0.009   6.245   5.142  1.6995  0.1748  0.9998
 8001TIP3   OH245417   3.006   3.804   4.748  0.3374  0.5574 -0.9040
 8001TIP3    H145418   2.953   3.742   4.699  0.0060 -0.2103  0.3733
 8001TIP3    H245419   3.092   3.802   4.705 -0.1250  0.4292 -1.8512
 8002TIP3   OH245420   1.497   5.260   3.179 -0.4043 -0.2496  0.0731
 8002TIP3    H145421   1.505   5.254   3.275 -1.0343  0.9415  0.2240
 8002TIP3    H245422   1.455   5.345   3.164 -1.7834 -1.1158 -1.1908
 8003TIP3   OH245423   3.368   0.827  12.666  0.0283  0.7449  0.4630
 8003TIP3    H145424   3.375   0.794  12.755 -0.7954 -0.6484  0.0419
 8003TIP3    H245425   3.307   0.768  12.622  1.3685  0.6192 -1.3828
 8004TIP3   OH245426   6.361   2.576  11.267  0.0167 -0.2865  0.2030
 8004TIP3    H145427   6.330   2.658  11.228 -2.9390 -2.0115 -1.4584
 8004TIP3    H245428   6.440   2.601  11.316 -1.9611  3.9772  1.7730
 8005TIP3   OH245429   1.454   4.625   0.651  0.5709  0.1896  0.1746
 8005TIP3    H145430   1.519   4.555   0.645  0.2337 -0.0855 -0.5189
 8005TIP3    H245431   1.447   4.645   0.744  0.1592 -1.2074  0.4702
 8006TIP3   OH245432   2.058   3.456  14.083  0.0183  0.2246  0.0435
 8006TIP3    H145433   2.020   3.543  14.093  1.3299  0.7923  0.3882
 8006TIP3    H245434   2.037   3.411  14.165 -1.7634 -0.2639 -0.6401
 8007TIP3   OH245435   5.918   2.014  14.275  0.2173 -0.2176  0.3856
 8007TIP3    H145436   5.883   2.101  14.290  0.0042 -0.2762  0.2402
 8007TIP3    H245437   5.851   1.955  14.310  0.8480 -0.3058  1.4673
 8008TIP3   OH245438   1.444   2.067   5.189 -0.3250 -0.1588  0.1986
 8008TIP3    H145439   1.439   2.093   5.097  0.3050  0.1160  0.2385
 8008TIP3    H245440   1.503   1.992   5.190  2.3156  1.7722  0.7360
 8009TIP3   OH245441   3.227   0.482  10.281 -0.0364  0.7903 -0.1914
 8009TIP3    H145442   3.282   0.489  10.203  0.4029  1.6530  0.1761
 8009TIP3    H245443   3.170   0.559  10.278 -0.9835  0.1041 -0.3685
 8010TIP3   OH245444   5.973   6.824  13.816 -0.0602  1.1296  0.3494
 8010TIP3    H145445   6.068   6.821  13.810  0.0998 -0.9372  2.4511
 8010TIP3    H245446   5.943   6.830  13.725  2.0383  1.2971 -0.3806
 8011TIP3   OH245447   2.797   3.703  13.967  0.3945  0.2350 -0.2743
 8011TIP3    H145448   2.837   3.703  13.880  0.4217 -0.7523 -0.2639
 8011TIP3    H245449   2.715   3.655  13.957 -0.5193  1.6905 -0.1499
 8012TIP3   OH245450   4.669   4.991   4.879  0.3853  0.5279 -0.2124
 8012TIP3    H145451   4.753   4.970   4.921  0.6729 -0.0556 -1.0579
 8012TIP3    H245452   4.604   4.944   4.933  0.8529 -1.1042 -1.0012
 8013TIP3   OH245453   6.418   1.824  11.074  0.0635 -0.2683 -0.3501
 8013TIP3    H145454   6.420   1.919  11.088 -1.0517 -0.0306 -1.6614
 8013TIP3    H245455   6.383   1.789  11.156 -1.3268  0.6204 -0.5437
 8014TIP3   OH245456   1.931   5.264  13.301 -0.3828 -0.4231 -0.1647
 8014TIP3    H145457   1.837   5.278  13.308 -0.0205  1.5699  2.0359
 8014TIP3    H245458   1.958   5.235  13.388  1.4085  2.3343  0.3347
 8015TIP3   OH245459   6.239   2.075  16.243 -0.2040  0.2867  0.4284
 8015TIP3    H145460   6.182   2.020  16.297  1.0192 -1.4174  0.0722
 8015TIP3    H245461   6.292   2.013  16.194 -0.0256  1.8012 -1.4080
 8016TIP3   OH245462   3.437   3.934  11.859  0.2507 -0.0884  0.0213
 8016TIP3    H145463   3.494   3.880  11.804 -1.7689 -1.5771 -0.7515
 8016TIP3    H245464   3.388   3.988  11.797  1.3300  1.7907  0.7187
 8017TIP3   OH245465   3.646   1.113   0.800  0.3240  0.2054  0.3882
 8017TIP3    H145466   3.594   1.042   0.837  1.7465 -1.7326 -1.0994
 8017TIP3    H245467   3.592   1.148   0.729 -0.0242  0.0329  0.5649
 8018TIP3   OH245468   1.974   2.472  14.249  0.4792  0.3383 -0.0117
 8018TIP3    H145469   1.985   2.561  14.217  1.6850  0.5389  0.8974
 8018TIP3    H245470   2.054   2.427  14.222 -0.1818 -0.5194 -0.5928
 8019TIP3   OH245471   4.544   4.379  12.426 -0.6314 -0.1774  0.0335
 8019TIP3    H145472   4.551   4.320  12.351  0.9538  0.6796 -0.5531
 8019TIP3    H245473   4.581   4.462  12.395  0.4014  0.1052  1.8448
 8020TIP3   OH245474   5.025   5.868  16.012  0.0675 -0.1957 -0.1398
 8020TIP3    H145475   5.116   5.857  16.040 -0.0240 -0.0814  0.2081
 8020TIP3    H245476   4.980   5.902  16.090 -0.0532  0.7507 -0.6148
 8021TIP3   OH245477   2.848   1.602   4.555  0.2089 -0.0680 -0.0217
 8021TIP3    H145478   2.836   1.509   4.538  0.1566  0.2087 -1.6834
 8021TIP3    H245479   2.762   1.632   4.586  0.1643 -0.5142  0.3015
 8022TIP3   OH245480   6.699   2.061   0.996 -0.7257 -0.0199 -0.1077
 8022TIP3    H145481   6.689   2.156   0.989 -0.9522  0.0333  0.7685
 8022TIP3    H245482   6.683   2.042   1.089 -2.9119 -1.1896 -0.6688
 8023TIP3   OH245483   0.450   5.208   1.913  0.6359 -0.1568 -0.6724
 8023TIP3    H145484   0.451   5.153   1.835 -0.0184 -0.9966 -0.1124
 8023TIP3    H245485   0.515   5.170   1.971  0.6551  0.0645 -0.5467
 8024TIP3   OH245486   1.101   5.834   5.124 -0.3697  0.2386 -0.3791
 8024TIP3    H145487   1.034   5.767   5.112 -0.8951  0.3771  1.4935
 8024TIP3    H245488   1.118   5.835   5.218 -0.8576  3.1509 -0.2140
 8025TIP3   OH245489   0.069   6.513   4.835  0.3233 -0.2898  0.4838
 8025TIP3    H145490  -0.023   6.539   4.832  1.0298  2.6041 -2.2019
 8025TIP3    H245491   0.073   6.433   4.782 -0.3788  1.0989 -1.8282
 8026TIP3   OH245492   0.075   6.614  11.536  0.7611  0.1694  0.3350
 8026TIP3    H145493   0.090   6.678  11.605 -0.0064  1.4078 -0.6107
 8026TIP3    H245494   0.053   6.533  11.583  1.3622  0.6760  1.5366
 8027TIP3   OH245495   2.782   4.391   1.459 -0.5204 -0.5993 -0.1367
 8027TIP3    H145496   2.819   4.478   1.443 -0.0637 -0.8791 -0.6610
 8027TIP3    H245497   2.739   4.398   1.544  2.4138 -0.7958  1.4650
 8028TIP3   OH245498   4.014   4.328  13.162 -0.5833 -0.2229 -0.1365
 8028TIP3    H145499   4.065   4.407  13.147 -0.9418  0.5296  2.2286
 8028TIP3    H245500   4.080   4.260  13.178 -0.2593  0.4218  1.4253
 8029TIP3   OH245501   1.008   6.128  12.439 -0.0238 -0.7460  0.1731
 8029TIP3    H145502   0.931   6.128  12.497 -1.8869  1.2695 -2.0654
 8029TIP3    H245503   0.998   6.049  12.387 -2.0529  0.6076 -1.6952
 8030TIP3   OH245504   1.185   1.023   4.313  0.5689 -0.1122 -0.3967
 8030TIP3    H145505   1.171   1.029   4.407 -0.4853  0.5055 -0.5770
 8030TIP3    H245506   1.183   0.929   4.294  0.7263 -0.2353  0.1864
 8031TIP3   OH245507   4.640   3.965   2.997 -0.4993 -0.7848  0.0527
 8031TIP3    H145508   4.665   3.973   3.089 -0.4153 -0.6764  0.0215
 8031TIP3    H245509   4.558   3.916   2.998 -0.0767 -1.5178  0.1347
 8032TIP3   OH245510   1.971   0.887  10.926  0.1891 -0.0810 -0.2687
 8032TIP3    H145511   2.042   0.938  10.965  1.8865 -1.0604 -1.9165
 8032TIP3    H245512   2.001   0.796  10.933 -0.2436 -0.4172 -2.2287
 8033TIP3   OH245513   5.227   6.674   5.112  0.6652 -0.2662 -0.1504
 8033TIP3    H145514   5.136   6.703   5.107  0.0552 -2.2304 -3.1089
 8033TIP3    H245515   5.272   6.725   5.045  2.0030  1.1659  1.7282
 8034TIP3   OH245516   4.443   3.428   2.699  0.4292 -0.1534 -0.2099
 8034TIP3    H145517   4.476   3.340   2.682 -0.1732 -0.4269  0.0012
 8034TIP3    H245518   4.507   3.468   2.758  0.6971 -0.4522 -0.3005
 8035TIP3   OH245519   5.993   2.033  16.632 -0.1413 -0.5600  0.3067
 8035TIP3    H145520   5.928   2.079  16.580 -0.0753  0.5855  1.1843
 8035TIP3    H245521   5.979   2.065  16.721  0.3292 -1.7947  0.8433
 8036TIP3   OH245522   3.716   5.969  14.449  0.4234 -0.1381  0.2339
 8036TIP3    H145523   3.683   6.027  14.381  0.5106 -2.0999 -1.6123
 8036TIP3    H245524   3.637   5.930  14.487  0.3092  1.7654  2.1444
 8037TIP3   OH245525   2.659   5.067   2.309  0.1494 -0.1685 -0.0532
 8037TIP3    H145526   2.689   5.095   2.396 -0.0379  0.3540 -0.1527
 8037TIP3    H245527   2.714   4.991   2.289 -0.8553 -1.2784  1.1749
 8038TIP3   OH245528   3.366   2.851  15.808 -0.0524  0.2580  0.1394
 8038TIP3    H145529   3.318   2.809  15.879 -1.4577 -0.1161 -0.9802
 8038TIP3    H245530   3.356   2.945  15.824  2.1798  0.2800  2.0376
 8039TIP3   OH245531   0.913   2.186   3.628 -0.1694  0.1977  0.0233
 8039TIP3    H145532   0.890   2.147   3.713 -0.6825  0.5615  0.0612
 8039TIP3    H245533   0.847   2.254   3.615  0.7026  1.0511 -0.0386
 8040TIP3   OH245534   5.296   4.095  16.383 -0.3881  0.0832  0.0905
 8040TIP3    H145535   5.236   4.154  16.338 -2.4967 -2.0460 -0.1339
 8040TIP3    H245536   5.239   4.033  16.428  1.6080 -2.3888 -0.5314
 8041TIP3   OH245537   3.405   0.951  14.589  0.1299 -0.4455 -0.1004
 8041TIP3    H145538   3.395   0.856  14.584 -2.1731 -0.2892  0.3349
 8041TIP3    H245539   3.417   0.979  14.498 -1.6948 -0.9721 -0.5459
 8042TIP3   OH245540   2.573   4.328   6.818  0.0573 -0.1157 -0.3646
 8042TIP3    H145541   2.602   4.396   6.758 -1.6737 -0.9922 -2.2955
 8042TIP3    H245542   2.493   4.362   6.858 -0.4071 -0.6878 -0.7816
 8043TIP3   OH245543   1.377   3.136  15.097 -0.0072 -0.0198 -0.5096
 8043TIP3    H145544   1.448   3.097  15.045 -0.2037 -0.0150 -0.7891
 8043TIP3    H245545   1.342   3.063  15.148 -0.4751 -0.2610 -1.1459
 8044TIP3   OH245546   4.679   3.690   5.392  0.8553 -0.4728  0.4692
 8044TIP3    H145547   4.730   3.708   5.312 -1.6141 -0.2785 -1.1690
 8044TIP3    H245548   4.696   3.766   5.448  1.1468  0.3465 -0.6847
 8045TIP3   OH245549   4.915   1.688  16.180  0.0452  0.0536 -0.2705
 8045TIP3    H145550   4.995   1.731  16.210 -0.0321  0.9916 -1.3199
 8045TIP3    H245551   4.894   1.624  16.248  1.4889  0.0376  0.1847
 8046TIP3   OH245552   3.768   2.768  12.149 -0.3322 -0.0188 -0.0626
 8046TIP3    H145553   3.858   2.801  12.138 -1.0378  1.7609 -0.8305
 8046TIP3    H245554   3.734   2.817  12.224 -1.1647  0.4790 -0.7557
 8047TIP3   OH245555   5.751   3.225   4.396  0.5899  0.3952  0.2043
 8047TIP3    H145556   5.716   3.276   4.469  0.9923 -0.5736  1.0976
 8047TIP3    H245557   5.678   3.216   4.336  0.3815  1.6228  0.2350
 8048TIP3   OH245558   5.892   6.511  14.625 -0.6689  0.0271  0.1791
 8048TIP3    H145559   5.857   6.496  14.538  0.8099  1.0492 -0.6313
 8048TIP3    H245560   5.834   6.577  14.664 -0.6976  0.3928 -0.4701
 8049TIP3   OH245561   2.938   2.689   3.939 -0.3419  0.1944  0.5961
 8049TIP3    H145562   2.984   2.768   3.968 -1.1072  0.1189  2.1069
 8049TIP3    H245563   2.880   2.666   4.012 -0.7272 -1.3121 -0.1336
 8050TIP3   OH245564   3.791   3.434   2.108  0.3339  0.3882  0.2989
 8050TIP3    H145565   3.787   3.506   2.171 -0.4114  1.1909 -0.6315
 8050TIP3    H245566   3.701   3.424   2.077  0.9305  1.0813 -1.7830
 8051TIP3   OH245567   1.436   3.602  15.126 -0.4419 -0.2994  0.5063
 8051TIP3    H145568   1.392   3.564  15.202  0.1056  1.7012  1.9007
 8051TIP3    H245569   1.368   3.607  15.059 -0.9897 -1.8925  0.9036
 8052TIP3   OH245570   3.174   1.413  13.321 -0.5015 -0.2286  0.1501
 8052TIP3    H145571   3.256   1.451  13.289  0.3238 -1.8608  0.2393
 8052TIP3    H245572   3.117   1.489  13.336  0.8243  0.9112 -0.3437
 8053TIP3   OH245573   6.641   5.278  14.364 -0.1135 -0.2617 -0.2017
 8053TIP3    H145574   6.655   5.372  14.369 -0.0267 -0.3319  2.1077
 8053TIP3    H245575   6.685   5.251  14.284  0.4862  1.5504 -0.5327
 8054TIP3   OH245576   0.174   2.922  15.330  0.3017 -0.3869  0.1989
 8054TIP3    H145577   0.207   2.848  15.280 -0.4391  0.2373 -1.2961
 8054TIP3    H245578   0.226   2.997  15.299 -0.0668 -0.0160  0.4590
 8055TIP3   OH245579   4.412   0.338  16.058  0.5391 -0.3987 -0.1813
 8055TIP3    H145580   4.430   0.281  16.133  0.5042  0.1314  0.2367
 8055TIP3    H245581   4.497   0.348  16.016  0.7259 -0.0204  0.2757
 8056TIP3   OH245582   1.512   4.970  13.515  0.3471 -0.1014 -0.4018
 8056TIP3    H145583   1.598   4.942  13.483  1.5723  0.9008  1.7766
 8056TIP3    H245584   1.531   5.018  13.595 -2.3932 -1.3753  1.1487
 8057TIP3   OH245585   5.617   1.673   0.174 -0.4661 -0.2270  0.4825
 8057TIP3    H145586   5.698   1.704   0.215 -0.9998  2.2831 -0.2230
 8057TIP3    H245587   5.553   1.676   0.245 -0.8619  1.8886  0.0873
 8058TIP3   OH245588   3.642   0.715  15.916  0.0067 -0.0222  0.2898
 8058TIP3    H145589   3.694   0.738  15.839 -1.0161 -0.5484 -0.5694
 8058TIP3    H245590   3.595   0.636  15.891 -1.8697  0.8992  0.7283
 8059TIP3   OH245591   6.860   6.264   4.074 -0.0776 -0.1695  0.3364
 8059TIP3    H145592   6.933   6.252   4.135 -1.1635 -2.6366  1.2846
 8059TIP3    H245593   6.828   6.353   4.092  2.3946  0.8567  0.1232
 8060TIP3   OH245594   1.703   0.296  16.103 -0.0652 -0.0991 -0.7113
 8060TIP3    H145595   1.782   0.254  16.070 -0.0599 -1.2608  0.6726
 8060TIP3    H245596   1.694   0.375  16.051  2.4761  0.4973 -0.3667
 8061TIP3   OH245597   6.277   5.319  16.263 -0.1882  0.4456  0.0313
 8061TIP3    H145598   6.245   5.406  16.285  0.2856  0.7136 -0.3118
 8061TIP3    H245599   6.318   5.287  16.344 -0.7712  0.3439  0.2937
 8062TIP3   OH245600   0.766   0.908  10.625 -0.3745  0.5633 -0.1692
 8062TIP3    H145601   0.844   0.960  10.606 -1.3677  1.9761 -0.5411
 8062TIP3    H245602   0.728   0.890  10.539 -0.5118 -0.0509  0.0122
 8063TIP3   OH245603   1.208   2.356  11.174  0.3194 -0.4909  0.0333
 8063TIP3    H145604   1.225   2.287  11.110 -0.8189 -0.9882  0.2445
 8063TIP3    H245605   1.143   2.413  11.131  1.3974  0.5916 -0.2265
 8064TIP3   OH245606   6.315   3.156   3.245  0.6211 -0.1692  0.2339
 8064TIP3    H145607   6.401   3.160   3.204  0.5335 -0.4670  0.0141
 8064TIP3    H245608   6.254   3.181   3.175  0.4227 -1.2165  0.0137
 8065TIP3   OH245609   0.752   3.015  11.033 -0.5491 -0.0343  0.0546
 8065TIP3    H145610   0.700   3.094  11.050  0.8654  1.0232 -0.3876
 8065TIP3    H245611   0.790   3.030  10.947 -0.0054 -1.0661  0.1103
 8066TIP3   OH245612   5.958   0.045   3.110 -0.2095 -0.8211 -0.3178
 8066TIP3    H145613   5.993   0.059   3.022  1.0426 -0.3622  0.2236
 8066TIP3    H245614   5.865   0.067   3.103  0.3743  1.7862 -0.9807
 8067TIP3   OH245615   2.161   0.628  11.901  0.0359 -0.4969  0.0505
 8067TIP3    H145616   2.138   0.671  11.819 -1.6966  2.2919  1.8368
 8067TIP3    H245617   2.088   0.567  11.917 -0.0127 -0.4779 -0.0983
 8068TIP3   OH245618   2.787   5.418   2.121 -0.4823  0.0760 -0.1294
 8068TIP3    H145619   2.726   5.485   2.152 -1.7498 -1.4100  0.7520
 8068TIP3    H245620   2.848   5.405   2.194 -0.0703  0.4469 -0.4037
 8069TIP3   OH245621   5.786   5.781  11.676  0.7910 -1.0880  0.3677
 8069TIP3    H145622   5.782   5.706  11.617  0.1920  0.9306 -2.3446
 8069TIP3    H245623   5.876   5.812  11.668  0.6430 -0.6627  0.3402
 8070TIP3   OH245624   3.617   2.942   2.520  0.5591 -0.8078  0.8439
 8070TIP3    H145625   3.591   2.952   2.611 -0.8389  0.5992  0.3361
 8070TIP3    H245626   3.692   3.000   2.509  0.5365 -0.7422  1.0368
 8071TIP3   OH245627   1.528   3.332   1.582 -0.1394  0.3704  0.4550
 8071TIP3    H145628   1.587   3.267   1.543  1.4707  1.1978  1.4021
 8071TIP3    H245629   1.511   3.298   1.670 -2.5985 -0.7602 -0.3550
 8072TIP3   OH245630   5.027   5.488  14.110 -0.2203  0.1534 -0.0101
 8072TIP3    H145631   4.944   5.505  14.155 -1.6063 -0.2870 -2.2576
 8072TIP3    H245632   5.094   5.510  14.175 -2.0708  0.6038  1.8586
 8073TIP3   OH245633   2.124   5.374   0.400 -0.0314  0.4471  0.4286
 8073TIP3    H145634   2.042   5.422   0.398 -0.4625 -0.2492  0.8630
 8073TIP3    H245635   2.141   5.353   0.308  0.4725  1.9032  0.1619
 8074TIP3   OH245636   6.045   0.978  14.873  0.7784  0.0887 -0.6501
 8074TIP3    H145637   5.990   0.915  14.919  1.3147  0.0993  0.0170
 8074TIP3    H245638   6.114   0.925  14.832  3.2650  0.4233  2.7082
 8075TIP3   OH245639   1.274   5.233   2.714 -0.2458 -0.1937 -0.5887
 8075TIP3    H145640   1.239   5.155   2.757 -0.5705  1.1935  1.8670
 8075TIP3    H245641   1.356   5.203   2.674 -0.9813 -2.0476 -0.8069
 8076TIP3   OH245642   6.421   6.540   1.623  0.1525  0.4239 -0.2991
 8076TIP3    H145643   6.475   6.504   1.553  0.4508 -0.7407  0.4955
 8076TIP3    H245644   6.351   6.587   1.578 -0.2574 -1.1770 -1.4120
 8077TIP3   OH245645   4.044   3.429   2.401  0.0428  0.1764  0.8514
 8077TIP3    H145646   4.109   3.499   2.408  0.6304 -0.1867 -0.5736
 8077TIP3    H245647   4.026   3.422   2.307 -1.2825 -0.4489  1.1271
 8078TIP3   OH245648   3.221   5.713  13.061  0.2933  0.1248 -0.4044
 8078TIP3    H145649   3.230   5.675  12.974 -1.2250  1.2505 -1.1131
 8078TIP3    H245650   3.284   5.785  13.063 -0.2529  0.6317 -0.9177
 8079TIP3   OH245651   2.266   2.048  15.540  0.6990 -0.2701  0.2475
 8079TIP3    H145652   2.305   1.965  15.569  0.5010 -1.6179 -2.9868
 8079TIP3    H245653   2.236   2.031  15.451 -1.8523  2.5219  0.4236
 8080TIP3   OH245654   1.783   0.894  14.929  0.5228  0.1198 -0.1518
 8080TIP3    H145655   1.788   0.846  14.846 -0.3599  1.0243 -0.7494
 8080TIP3    H245656   1.865   0.942  14.935  0.0726  1.0419 -1.1366
 8081TIP3   OH245657   4.475   3.992  14.747 -0.3350  0.9475 -0.2151
 8081TIP3    H145658   4.400   3.964  14.693 -0.5459 -1.4524  1.1819
 8081TIP3    H245659   4.547   3.935  14.719 -0.7936 -1.3552  2.7969
 8082TIP3   OH245660   4.465   1.425   5.459  0.2396 -0.0150  0.7589
 8082TIP3    H145661   4.460   1.401   5.367  1.4753 -0.3090  0.7585
 8082TIP3    H245662   4.478   1.342   5.505  2.0133  0.3570  0.9813
 8083TIP3   OH245663   1.640   1.818   2.756 -0.0576  0.7057  0.2326
 8083TIP3    H145664   1.730   1.824   2.788  0.9891  2.9800 -2.6415
 8083TIP3    H245665   1.634   1.730   2.717  0.9329  0.5580  0.3938
 8084TIP3   OH245666   6.845   1.251  11.122  0.1988 -0.4662 -0.0074
 8084TIP3    H145667   6.760   1.226  11.157  0.1266  0.7411  0.7257
 8084TIP3    H245668   6.825   1.310  11.049  0.3927 -1.5035 -0.9353
 8085TIP3   OH245669   3.099   0.632   1.389 -0.0539  0.0879 -0.0029
 8085TIP3    H145670   3.091   0.660   1.481 -0.9649 -0.1368  0.0010
 8085TIP3    H245671   3.080   0.538   1.391  1.8643 -0.3368 -0.1730
 8086TIP3   OH245672   2.481   6.051  16.384 -0.5895  0.2138 -0.7319
 8086TIP3    H145673   2.543   6.096  16.327  0.3586  1.1437  0.9585
 8086TIP3    H245674   2.507   5.959  16.381  0.7970  0.5687 -0.1766
 8087TIP3   OH245675   2.724   1.798   6.051  0.2448  0.0212  0.1602
 8087TIP3    H145676   2.677   1.774   5.971 -0.2594  1.3067  0.0434
 8087TIP3    H245677   2.665   1.772   6.122  0.5856 -0.9005  0.1065
 8088TIP3   OH245678   4.120   4.940   0.943  0.2999 -0.5938 -0.2774
 8088TIP3    H145679   4.125   4.981   0.856  1.2991  0.1004  0.0849
 8088TIP3    H245680   4.062   4.997   0.993 -0.3435 -1.0403 -0.5046
 8089TIP3   OH245681   5.013   5.554   1.137  0.7384  0.1251  0.2776
 8089TIP3    H145682   4.995   5.641   1.103  1.1566  0.7773  1.6573
 8089TIP3    H245683   5.029   5.567   1.231  2.0619 -1.2505  0.2909
 8090TIP3   OH245684   4.066   6.370   3.099 -1.1082 -0.0349 -0.0763
 8090TIP3    H145685   4.037   6.366   3.190 -2.1189 -0.4682 -0.4026
 8090TIP3    H245686   4.130   6.441   3.098  0.4940 -1.3815  1.3824
 8091TIP3   OH245687   4.652   2.393  12.924  0.0108  0.6574  0.4701
 8091TIP3    H145688   4.728   2.448  12.940  0.3597  0.5953 -0.8607
 8091TIP3    H245689   4.640   2.344  13.006  1.9933 -0.0587  0.3947
 8092TIP3   OH245690   4.397   0.540   1.233  0.0370 -0.3906  0.1346
 8092TIP3    H145691   4.347   0.494   1.166  0.0432  0.6812 -0.6165
 8092TIP3    H245692   4.489   0.528   1.208  0.1061 -0.9989  0.6322
 8093TIP3   OH245693   0.037   5.221   1.461  0.4604  0.2246 -0.4587
 8093TIP3    H145694   0.082   5.167   1.526  1.4607  1.8513  0.2541
 8093TIP3    H245695  -0.056   5.212   1.482  0.7613  0.6408  1.1456
 8094TIP3   OH245696   3.436   2.722   2.215 -0.0181 -0.2872 -0.6210
 8094TIP3    H145697   3.410   2.698   2.125  1.5944 -0.9918 -0.9448
 8094TIP3    H245698   3.442   2.817   2.214 -2.1393 -0.1201 -0.6193
 8095TIP3   OH245699   5.371   6.662   3.293 -0.2383 -0.2473 -0.3177
 8095TIP3    H145700   5.311   6.720   3.245 -0.1516  0.0027 -0.1269
 8095TIP3    H245701   5.385   6.707   3.376 -0.7552 -0.9039  0.1267
 8096TIP3   OH245702   2.482   3.958  11.305  0.4247  0.6111 -0.9137
 8096TIP3    H145703   2.440   3.925  11.384 -0.0633  0.9227 -1.0381
 8096TIP3    H245704   2.410   3.971  11.243  0.8883 -0.5506 -1.7531
 8097TIP3   OH245705   1.425   1.943   2.891 -0.5372 -0.2665  0.0972
 8097TIP3    H145706   1.445   2.036   2.907 -1.0903 -0.2029  0.4430
 8097TIP3    H245707   1.503   1.909   2.847 -0.2988  0.3466  0.0346
 8098TIP3   OH245708   3.787   6.455  12.859  0.1691 -0.2593  0.2097
 8098TIP3    H145709   3.789   6.363  12.832 -2.3923 -0.2102 -0.3429
 8098TIP3    H245710   3.760   6.503  12.781 -1.1363  0.6432  1.1652
 8099TIP3   OH245711   5.341   0.805   2.787 -0.0236  0.4790  0.6513
 8099TIP3    H145712   5.386   0.798   2.703 -1.7260 -1.0446 -0.1870
 8099TIP3    H245713   5.402   0.767   2.850  0.4707 -0.1944 -0.2193
 8100TIP3   OH245714   6.009   2.757   5.331 -0.9049 -0.2933  0.1575
 8100TIP3    H145715   6.001   2.665   5.307 -2.3268 -0.1713  0.0951
 8100TIP3    H245716   5.982   2.805   5.252  1.5995  0.2491 -0.4615
 8101TIP3   OH245717   1.376   6.758   2.390 -0.1834  0.1018  0.0030
 8101TIP3    H145718   1.362   6.831   2.451 -1.0261 -0.9568  1.1289
 8101TIP3    H245719   1.290   6.716   2.382  0.6281 -1.8651  0.8579
 8102TIP3   OH245720   6.235   2.195   3.889 -0.4247 -0.0439  0.1781
 8102TIP3    H145721   6.305   2.259   3.901 -1.3674  1.1371 -0.3911
 8102TIP3    H245722   6.266   2.140   3.817  0.4256 -0.2903  0.7163
 8103TIP3   OH245723   2.056   0.732   2.038  0.2153  0.0901  0.0191
 8103TIP3    H145724   2.108   0.679   2.098  0.4600  0.0487 -0.2280
 8103TIP3    H245725   2.073   0.695   1.951  0.0729  0.3175 -0.1088
 8104TIP3   OH245726   0.166   4.207   2.586  0.0505  0.0103  0.4741
 8104TIP3    H145727   0.240   4.258   2.620 -0.6165  1.1152  0.3200
 8104TIP3    H245728   0.089   4.261   2.606 -0.8353 -1.5696  1.5445
 8105TIP3   OH245729   5.566   3.307  10.927  0.0543 -0.0875  0.0022
 8105TIP3    H145730   5.621   3.305  11.005  0.3983  1.1312 -0.1779
 8105TIP3    H245731   5.602   3.380  10.875 -0.9166 -0.1125 -0.7294
 8106TIP3   OH245732   0.157   0.630  13.120  0.4243 -0.3746 -0.1517
 8106TIP3    H145733   0.124   0.716  13.094  0.4955 -0.1385  0.5362
 8106TIP3    H245734   0.080   0.582  13.149  0.5862  0.0002  0.9572
 8107TIP3   OH245735   1.213   4.114   4.257  0.3697  0.2122  0.5033
 8107TIP3    H145736   1.263   4.032   4.255 -0.6111 -0.4420  1.5043
 8107TIP3    H245737   1.271   4.177   4.299  0.7099 -0.2966  0.8135
 8108TIP3   OH245738   6.368   1.026   4.731  0.4574  0.1717 -0.3554
 8108TIP3    H145739   6.334   1.020   4.642 -0.0008  0.4348 -0.2008
 8108TIP3    H245740   6.393   0.936   4.753 -1.9106 -0.4268  0.2061
 8109TIP3   OH245741   0.838   3.692  10.857 -0.4384  0.0822  0.3597
 8109TIP3    H145742   0.787   3.719  10.934  0.9461  1.5964  0.7835
 8109TIP3    H245743   0.820   3.598  10.849 -0.3999 -0.1892  2.7328
 8110TIP3   OH245744   0.854   3.151  11.377 -0.4478  0.4675  0.4471
 8110TIP3    H145745   0.789   3.087  11.348  1.0060 -0.9810  0.2543
 8110TIP3    H245746   0.870   3.128  11.469  1.9638 -1.2184 -0.2944
 8111TIP3   OH245747   1.716   4.972   3.228 -0.4934  0.4863  0.3003
 8111TIP3    H145748   1.702   5.067   3.219  2.4827  1.0099  0.3958
 8111TIP3    H245749   1.754   4.962   3.315 -0.2869 -0.7318  0.0839
 8112TIP3   OH245750   5.624   1.931   4.416  0.0841 -0.6322 -0.4190
 8112TIP3    H145751   5.695   1.986   4.448 -0.8244 -0.3782  1.2902
 8112TIP3    H245752   5.667   1.866   4.361  1.5902 -0.2452  0.2381
 8113TIP3   OH245753   1.847   3.331  13.290  0.4604 -0.5521  0.1764
 8113TIP3    H145754   1.939   3.326  13.317  0.7380 -0.6757 -0.7747
 8113TIP3    H245755   1.814   3.242  13.300  0.1985 -0.3464  1.3174
 8114TIP3   OH245756   4.978   5.995   3.663 -0.0483  0.5252 -0.3239
 8114TIP3    H145757   4.927   6.021   3.740 -0.3693 -1.7152  0.2938
 8114TIP3    H245758   4.952   6.057   3.595 -0.3717  2.0540  1.1322
 8115TIP3   OH245759   0.554   2.973  10.649 -0.0861 -0.3356  0.3925
 8115TIP3    H145760   0.640   3.013  10.639  0.3119 -1.1548  0.4427
 8115TIP3    H245761   0.493   3.046  10.649  0.5433  0.1983 -0.4544
 8116TIP3   OH245762   5.183   3.755  11.998  0.2320 -0.3061  0.0550
 8116TIP3    H145763   5.101   3.719  12.032 -0.1575  0.8696  0.3992
 8116TIP3    H245764   5.159   3.841  11.964  1.2427 -0.1340 -0.2481
 8117TIP3   OH245765   5.620   6.885   0.033 -0.2064  0.2505  0.0392
 8117TIP3    H145766   5.656   6.948   0.095 -3.2399  1.3319  0.8616
 8117TIP3    H245767   5.622   6.930  -0.052  1.1585 -0.0807 -0.1297
 8118TIP3   OH245768   0.871   5.458   5.164 -0.1056  0.0403 -0.3257
 8118TIP3    H145769   0.786   5.438   5.203  0.0906  3.1770  2.1705
 8118TIP3    H245770   0.870   5.414   5.080 -3.8674 -0.7058 -0.0716
 8119TIP3   OH245771   0.149   5.847  11.724  0.1222  0.1212 -0.1612
 8119TIP3    H145772   0.203   5.915  11.764 -0.1702 -0.3898  1.1767
 8119TIP3    H245773   0.209   5.772  11.714 -0.2927 -0.4702  1.3910
 8120TIP3   OH245774   4.143   6.293  13.372 -0.0224  0.9641  0.3779
 8120TIP3    H145775   4.210   6.230  13.347 -0.6550 -0.2962  1.7163
 8120TIP3    H245776   4.190   6.358  13.425 -0.0020 -0.5991  2.3951
 8121TIP3   OH245777   1.201   3.215   0.872  0.1183 -0.4285  0.2099
 8121TIP3    H145778   1.170   3.281   0.935 -1.5848 -0.0436 -0.9435
 8121TIP3    H245779   1.136   3.145   0.877 -0.4471 -0.0845 -1.5452
 8122TIP3   OH245780   6.292   0.207   4.563 -0.2699 -0.1081  0.0420
 8122TIP3    H145781   6.277   0.175   4.652 -1.0066 -0.4919 -0.2193
 8122TIP3    H245782   6.388   0.214   4.557 -0.1525 -1.0783  0.5194
 8123TIP3   OH245783   4.713   4.479  11.582 -0.2524 -0.0988  0.5548
 8123TIP3    H145784   4.807   4.492  11.569 -0.4530  1.6964  0.6697
 8123TIP3    H245785   4.682   4.451  11.496  0.3052 -0.2091  0.3806
 8124TIP3   OH245786   4.971   2.260   3.559  0.4421 -0.2809  0.0890
 8124TIP3    H145787   4.968   2.295   3.648  2.2337 -0.4646  0.2508
 8124TIP3    H245788   4.983   2.166   3.571 -1.2957 -0.5995 -0.3674
 8125TIP3   OH245789   4.543   0.877  14.735 -0.3681 -0.1567  0.6777
 8125TIP3    H145790   4.629   0.878  14.693  0.0060 -0.2982  1.4087
 8125TIP3    H245791   4.525   0.969  14.755 -1.4127  0.1411 -1.4563
 8126TIP3   OH245792   5.268   2.717  16.294 -0.0339 -0.0616 -0.0081
 8126TIP3    H145793   5.270   2.806  16.259 -0.8957  1.0913  2.6219
 8126TIP3    H245794   5.360   2.694  16.307  0.1866  0.5189 -0.5055
 8127TIP3   OH245795   3.835   1.685   2.812 -0.2912  0.3686 -0.2920
 8127TIP3    H145796   3.749   1.679   2.853 -0.0436 -1.0472  0.0765
 8127TIP3    H245797   3.890   1.728   2.878 -0.2638 -0.4891  0.2523
 8128TIP3   OH245798   6.674   1.547  11.362 -0.1235  0.1458  0.4728
 8128TIP3    H145799   6.644   1.591  11.442  0.4665  1.3149  0.0690
 8128TIP3    H245800   6.768   1.566  11.358 -0.3972  1.3340 -1.2350
 8129TIP3   OH245801   5.328   6.115   4.147 -0.2195 -0.2395  0.1923
 8129TIP3    H145802   5.244   6.075   4.165 -0.2031 -0.3042  0.1225
 8129TIP3    H245803   5.379   6.101   4.227 -0.2183 -0.3464  0.1728
 8130TIP3   OH245804   0.413   6.428  10.472  0.2932 -1.1075  0.0649
 8130TIP3    H145805   0.445   6.411  10.561  0.0691 -0.6410  0.2358
 8130TIP3    H245806   0.492   6.441  10.421  0.3900  1.4479  0.7660
 8131TIP3   OH245807   0.677   2.821  11.653 -0.0255 -0.2533 -0.1867
 8131TIP3    H145808   0.761   2.782  11.628  0.5355  1.4065 -0.9939
 8131TIP3    H245809   0.665   2.894  11.593 -1.5614  0.1842  0.5973
 8132TIP3   OH245810   3.848   3.056  10.229  0.1120 -0.1215  0.6508
 8132TIP3    H145811   3.790   2.984  10.205  1.6453 -1.3401  0.4316
 8132TIP3    H245812   3.889   3.082  10.147  1.0253 -0.3413  1.0218
 8133TIP3   OH245813   4.027   0.011  13.311 -0.3942 -0.5768  0.1590
 8133TIP3    H145814   4.109   0.051  13.284  0.2676 -0.9091  1.5576
 8133TIP3    H245815   3.963   0.037  13.244  0.4659  1.0986 -0.0478
 8134TIP3   OH245816   5.904   1.770  15.844  0.6887 -0.0828 -0.1080
 8134TIP3    H145817   5.991   1.800  15.870  0.9990 -2.0783  1.3918
 8134TIP3    H245818   5.844   1.834  15.883  1.4350  0.8285 -0.4273
 8135TIP3   OH245819   2.392   3.384  10.956  0.3553 -0.3814  0.2410
 8135TIP3    H145820   2.440   3.341  10.886 -2.4885 -4.9089  0.7005
 8135TIP3    H245821   2.452   3.380  11.031  1.9076  0.9032 -0.8556
 8136TIP3   OH245822   2.460   2.694  12.709  0.6427 -0.3233  0.0836
 8136TIP3    H145823   2.414   2.750  12.648  1.0101  2.3378  2.0512
 8136TIP3    H245824   2.392   2.659  12.767  0.3977 -2.1228 -1.2238
 8137TIP3   OH245825   1.381   3.797   3.211 -0.0980  0.2280 -0.6567
 8137TIP3    H145826   1.293   3.759   3.212  1.0242 -2.7117 -1.6924
 8137TIP3    H245827   1.369   3.882   3.168 -2.3582 -0.2566 -1.1513
 8138TIP3   OH245828   0.709   5.103  13.655  0.3162  0.3517  0.2185
 8138TIP3    H145829   0.746   5.043  13.720 -2.8944 -2.5587 -0.3377
 8138TIP3    H245830   0.781   5.121  13.595  1.6311 -2.5558  0.7621
 8139TIP3   OH245831   0.051   2.508  16.040 -0.3792  0.6988  0.0222
 8139TIP3    H145832   0.086   2.422  16.015 -1.6509 -0.6567  2.4774
 8139TIP3    H245833   0.123   2.550  16.088 -0.0956  0.5328 -0.2547
 8140TIP3   OH245834   6.588   2.316   0.686 -0.2172 -0.4822  0.8105
 8140TIP3    H145835   6.572   2.331   0.593 -1.6301  1.0836  1.2488
 8140TIP3    H245836   6.645   2.388   0.712 -2.5730  1.1630  1.8037
 8141TIP3   OH245837   2.389   5.221  16.207 -0.3082 -0.3845 -0.2554
 8141TIP3    H145838   2.301   5.187  16.194 -0.2765 -0.2310 -0.8829
 8141TIP3    H245839   2.389   5.306  16.162  0.3869 -0.7278 -0.9253
 8142TIP3   OH245840   2.367   1.372  15.501 -0.1321  0.1568  0.4729
 8142TIP3    H145841   2.275   1.366  15.478  0.1499 -0.9095 -0.4490
 8142TIP3    H245842   2.408   1.297  15.459  0.9740 -0.0259  1.7964
 8143TIP3   OH245843   0.293   5.012  11.241 -0.4126  0.8944  0.3134
 8143TIP3    H145844   0.359   5.018  11.171 -0.7432 -0.7126 -0.1652
 8143TIP3    H245845   0.340   4.972  11.315 -1.3049 -2.4813 -0.7741
 8144TIP3   OH245846   2.586   4.755   1.546  0.6341 -0.3088  0.2433
 8144TIP3    H145847   2.610   4.792   1.461  1.2263  1.0082  0.9604
 8144TIP3    H245848   2.573   4.831   1.603 -0.4782 -1.1425  1.1534
 8145TIP3   OH245849   4.643   3.012   0.675 -0.0515  0.4516  0.3373
 8145TIP3    H145850   4.630   3.094   0.628 -0.6332  1.5064  2.2235
 8145TIP3    H245851   4.734   3.015   0.704 -0.4480  1.1373  1.5940
 8146TIP3   OH245852   6.745   6.004   2.364  0.1121  0.4209  0.1805
 8146TIP3    H145853   6.781   5.916   2.374 -1.1877 -0.2422 -0.5967
 8146TIP3    H245854   6.733   6.036   2.454  1.6762  0.3030  0.4634
 8147TIP3   OH245855   3.082   0.804  15.546  0.5403 -0.0858  0.0655
 8147TIP3    H145856   3.123   0.888  15.567 -0.3731  0.2024  0.7750
 8147TIP3    H245857   3.095   0.794  15.451 -0.0410  1.2559 -0.1788
 8148TIP3   OH245858   3.111   3.444   3.796 -0.4868 -0.0665 -0.4006
 8148TIP3    H145859   3.035   3.496   3.768  0.1378  0.8055 -0.5291
 8148TIP3    H245860   3.165   3.436   3.718  1.5676  2.9122  0.5193
 8149TIP3   OH245861   6.051   2.821   5.036 -0.1356 -0.0121  0.2086
 8149TIP3    H145862   6.134   2.793   4.998 -1.4909 -1.2013 -2.0990
 8149TIP3    H245863   6.072   2.902   5.083  2.2922 -0.2376 -0.3855
 8150TIP3   OH245864   5.517   4.874  11.399 -0.0063 -0.0914  0.2326
 8150TIP3    H145865   5.444   4.905  11.345  1.2280 -1.5455 -2.4609
 8150TIP3    H245866   5.500   4.781  11.411 -0.0073  0.1189  2.0295
 8151TIP3   OH245867   2.941   3.687  13.687 -0.1570  0.2805  0.6429
 8151TIP3    H145868   2.896   3.770  13.700  0.7276  1.1792 -1.4627
 8151TIP3    H245869   2.878   3.621  13.713 -1.9626  1.5494 -0.2690
 8152TIP3   OH245870   4.219   2.344   2.347  0.2059 -0.1037  0.6142
 8152TIP3    H145871   4.168   2.277   2.301 -0.3804 -0.7846  2.1741
 8152TIP3    H245872   4.309   2.311   2.345  0.0268 -0.6192  0.7824
 8153TIP3   OH245873   5.942   5.470   0.010  0.2898 -0.7761  0.5651
 8153TIP3    H145874   5.994   5.550   0.005 -1.6062  0.4641 -0.2528
 8153TIP3    H245875   5.922   5.461   0.104 -0.4292  0.3627  0.5359
 8154TIP3   OH245876   2.875   2.857   1.220  0.2761  0.3979  0.4367
 8154TIP3    H145877   2.824   2.786   1.183  1.2387 -2.2130  3.5745
 8154TIP3    H245878   2.965   2.840   1.192  0.4231  0.7009  0.7086
 8155TIP3   OH245879   3.894   0.602   4.740  0.3484  0.1509  0.2006
 8155TIP3    H145880   3.894   0.540   4.813 -0.9557  0.5692  0.5868
 8155TIP3    H245881   3.964   0.664   4.760  1.3194 -0.8663  0.0725
 8156TIP3   OH245882   5.401   2.202  15.426  0.2711  0.2696 -0.0922
 8156TIP3    H145883   5.472   2.142  15.448  0.2139  0.4563  0.6057
 8156TIP3    H245884   5.386   2.253  15.506 -0.6667  0.2204 -0.2282
 8157TIP3   OH245885   1.380   2.338  16.522  0.6019 -0.5076  0.2558
 8157TIP3    H145886   1.343   2.412  16.473 -0.7062 -0.7485  0.8392
 8157TIP3    H245887   1.469   2.366  16.543  0.7469  0.1445 -1.0908
 8158TIP3   OH245888   5.153   1.038   5.996  0.2132 -0.0007  0.1506
 8158TIP3    H145889   5.120   0.977   6.061  0.1678 -0.2132 -0.0699
 8158TIP3    H245890   5.075   1.081   5.961  0.0648 -1.1632 -1.0287
 8159TIP3   OH245891   6.722   5.926   1.548  0.2138  0.1799 -0.6155
 8159TIP3    H145892   6.689   5.943   1.637  0.4038  0.3080 -0.5673
 8159TIP3    H245893   6.766   5.841   1.555  3.8422  1.9130  0.4729
 8160TIP3   OH245894   3.181   6.312  12.904 -0.1696 -0.0631 -0.3499
 8160TIP3    H145895   3.180   6.242  12.970 -0.2380 -0.1807 -0.4769
 8160TIP3    H245896   3.091   6.344  12.902 -0.2119 -0.1956 -0.5331
 8161TIP3   OH245897   5.094   6.482  16.682 -0.0628  0.1428  0.6367
 8161TIP3    H145898   5.079   6.573  16.658  0.0870 -0.3545 -1.4922
 8161TIP3    H245899   5.037   6.468  16.758 -0.1951  1.9453  0.9219
 8162TIP3   OH245900   1.697   0.884   1.067 -0.4136 -0.0245 -0.4625
 8162TIP3    H145901   1.695   0.803   1.118 -0.4049  0.1711 -0.1475
 8162TIP3    H245902   1.604   0.906   1.055 -0.4132  0.0111 -0.3996
 8163TIP3   OH245903   6.229   6.328  14.899 -0.2801 -0.3099  0.3425
 8163TIP3    H145904   6.270   6.241  14.905 -1.2134 -0.7488  0.5614
 8163TIP3    H245905   6.205   6.337  14.807 -0.1193 -0.2514  0.3064
 8164TIP3   OH245906   2.785   6.108   0.917  0.4791 -0.5823 -0.4861
 8164TIP3    H145907   2.863   6.163   0.916  0.5061 -0.3084  3.2771
 8164TIP3    H245908   2.798   6.046   0.845  3.3898  0.3922 -0.9152
 8165TIP3   OH245909   1.608   5.496  11.227  0.2976  0.2971  0.3484
 8165TIP3    H145910   1.682   5.483  11.287 -0.3433  0.5087  1.2027
 8165TIP3    H245911   1.551   5.558  11.272 -0.1119  0.6072 -0.5724
 8166TIP3   OH245912   4.467   6.428   1.775  0.4805 -0.3042  0.1798
 8166TIP3    H145913   4.532   6.413   1.843 -1.5594  1.3236  2.6871
 8166TIP3    H245914   4.385   6.443   1.823 -1.2557  0.1266 -2.6866
 8167TIP3   OH245915   1.622   2.371  14.675  0.1976 -0.3413 -0.6038
 8167TIP3    H145916   1.625   2.425  14.596 -1.8749  2.8065  1.2574
 8167TIP3    H245917   1.530   2.349  14.686  0.5305 -1.2570  0.6036
 8168TIP3   OH245918   0.742   0.802   3.182 -0.2389  0.0126  0.3604
 8168TIP3    H145919   0.747   0.879   3.124  0.9824 -0.8813 -0.7860
 8168TIP3    H245920   0.778   0.731   3.129 -2.5465 -1.6689  0.9270
 8169TIP3   OH245921   0.728   2.704  15.894 -0.5722 -0.0709 -0.0758
 8169TIP3    H145922   0.655   2.653  15.861  0.7186 -3.4414  1.7667
 8169TIP3    H245923   0.806   2.657  15.863  0.8593  2.3955 -0.5227
 8170TIP3   OH245924   2.688   0.133  12.021 -0.2281  0.4302 -0.3200
 8170TIP3    H145925   2.712   0.179  12.102  1.2235 -0.0323 -0.4592
 8170TIP3    H245926   2.753   0.063  12.013 -1.0433 -0.2399 -1.2978
 8171TIP3   OH245927   5.135   4.572  15.819 -0.6628 -0.3473  0.4753
 8171TIP3    H145928   5.163   4.525  15.897  4.7469 -0.0375 -0.8619
 8171TIP3    H245929   5.160   4.515  15.746  0.7058  2.0008 -1.0520
 8172TIP3   OH245930   1.832   0.618  10.892 -0.1599  0.8205  0.4294
 8172TIP3    H145931   1.883   0.622  10.973 -2.0487 -0.0936  1.7289
 8172TIP3    H245932   1.759   0.559  10.912 -1.6431  1.9133 -1.3964
 8173TIP3   OH245933   0.801   1.607  15.590 -0.5047 -0.0770  0.3544
 8173TIP3    H145934   0.735   1.671  15.618  1.0235  1.8999 -0.3346
 8173TIP3    H245935   0.824   1.561  15.671  1.8876  3.6979  2.1114
 8174TIP3   OH245936   5.828   1.337   5.206  0.9781 -0.3189 -0.0676
 8174TIP3    H145937   5.922   1.341   5.224  1.0871  0.5731 -0.7837
 8174TIP3    H245938   5.790   1.408   5.259  0.7366 -0.5218  0.0350
 8175TIP3   OH245939   1.450   2.453   0.789  0.2393 -0.1501 -0.5198
 8175TIP3    H145940   1.439   2.371   0.742  1.0747 -1.0566  0.8017
 8175TIP3    H245941   1.540   2.480   0.770  0.4881 -0.3730  0.2978
 8176TIP3   OH245942   6.213   1.259   3.919  0.4241  0.6614  0.2645
 8176TIP3    H145943   6.190   1.324   3.985 -1.1764  1.3111 -0.8580
 8176TIP3    H245944   6.158   1.183   3.940  0.5970  0.5205  0.2137
 8177TIP3   OH245945   5.312   0.548  15.426  0.1508  0.1526  0.0969
 8177TIP3    H145946   5.302   0.622  15.486  0.6217  0.3760 -0.0853
 8177TIP3    H245947   5.391   0.570  15.375 -0.0680 -0.1738 -0.3913
 8178TIP3   OH245948   5.138   3.354   2.913  0.0816 -0.0370  0.1230
 8178TIP3    H145949   5.119   3.320   3.001  1.7488 -0.5279  0.3316
 8178TIP3    H245950   5.158   3.276   2.861 -2.2917  0.1107 -1.1171
 8179TIP3   OH245951   3.149   6.186  10.883 -0.0422 -0.1175 -0.3592
 8179TIP3    H145952   3.206   6.190  10.960 -1.9129  0.2133  1.0846
 8179TIP3    H245953   3.207   6.162  10.812  1.6669 -1.0805  1.2617
 8180TIP3   OH245954   2.243   4.565   5.503  1.2654  0.0415  0.4732
 8180TIP3    H145955   2.157   4.552   5.462  2.1018  0.7902 -1.6880
 8180TIP3    H245956   2.237   4.651   5.545  0.9027  0.0249  0.4573
 8181TIP3   OH245957   6.343   4.976  15.523  0.2318  0.7764  0.1839
 8181TIP3    H145958   6.336   4.991  15.618  1.9336 -0.0688  0.4944
 8181TIP3    H245959   6.255   4.989  15.490 -0.4909  0.6761  1.9516
 8182TIP3   OH245960   3.697   0.997  10.493  0.0721 -0.1129 -0.0592
 8182TIP3    H145961   3.768   1.014  10.432  0.4766 -2.0601 -0.1723
 8182TIP3    H245962   3.692   0.902  10.501  0.0808  0.0187  2.9744
 8183TIP3   OH245963   0.264   2.759   4.165 -0.3213  0.5278  0.3198
 8183TIP3    H145964   0.195   2.693   4.166  1.5420 -1.5454 -0.1476
 8183TIP3    H245965   0.298   2.756   4.076  2.3743 -0.7971  1.2875
 8184TIP3   OH245966   0.093   2.143  12.399 -0.0481 -0.5796  0.6409
 8184TIP3    H145967   0.030   2.207  12.366 -0.3532 -0.2164  1.8908
 8184TIP3    H245968   0.160   2.139  12.330 -0.5689  0.2775  0.0566
 8185TIP3   OH245969   4.251   3.464  15.989  0.9413 -0.2389 -0.5110
 8185TIP3    H145970   4.159   3.451  15.966  0.7417  1.2875 -0.7244
 8185TIP3    H245971   4.295   3.473  15.904  1.4834 -1.9132 -0.4461
 8186TIP3   OH245972   3.954   4.503   1.577  0.2697  0.0827 -0.3046
 8186TIP3    H145973   3.930   4.421   1.622 -0.1047 -0.4080 -1.3749
 8186TIP3    H245974   3.986   4.560   1.647  0.6179 -1.0106  0.4489
 8187TIP3   OH245975   5.297   1.785   5.802  0.1180  0.6203  0.1958
 8187TIP3    H145976   5.218   1.839   5.801 -0.8988 -0.8234  0.1305
 8187TIP3    H245977   5.331   1.795   5.891 -1.2358 -0.2412  0.8502
 8188TIP3   OH245978   2.476   0.137   2.097 -0.2741 -0.2605 -0.0526
 8188TIP3    H145979   2.459   0.120   2.004 -1.1867  0.1938  0.0138
 8188TIP3    H245980   2.427   0.069   2.143 -1.9286  1.0095  0.1452
 8189TIP3   OH245981   5.561   3.500   1.054  0.4943  0.8156 -0.1111
 8189TIP3    H145982   5.586   3.458   1.136 -0.1889 -0.6993 -0.6481
 8189TIP3    H245983   5.551   3.593   1.077  1.3089  0.5897  1.2692
 8190TIP3   OH245984   5.060   1.735   1.431  0.1731  0.2115 -0.6660
 8190TIP3    H145985   5.044   1.827   1.450 -2.2557 -0.3124  0.2599
 8190TIP3    H245986   5.146   1.717   1.469  0.8248  2.1237 -1.1231
 8191TIP3   OH245987   4.286   4.117   6.173  0.4981 -0.0838  0.3583
 8191TIP3    H145988   4.299   4.030   6.136  0.6916 -0.0916  0.4446
 8191TIP3    H245989   4.372   4.160   6.165  0.7162 -0.3005  1.3621
 8192TIP3   OH245990   5.235   2.599  15.943 -0.6840 -0.4299  0.4761
 8192TIP3    H145991   5.209   2.513  15.977  0.4409 -0.9293  0.1215
 8192TIP3    H245992   5.201   2.661  16.007 -1.0957 -1.1714  0.9941
 8193TIP3   OH245993   5.395   6.434  13.982  0.3191 -0.9300  0.9200
 8193TIP3    H145994   5.388   6.512  14.037 -0.2776 -0.8053  0.6822
 8193TIP3    H245995   5.362   6.363  14.037 -2.2762 -0.4779  0.0858
 8194TIP3   OH245996   1.362   5.945  15.035 -0.1596  0.3872  0.1728
 8194TIP3    H145997   1.281   5.913  14.996 -0.9650  2.1839  0.2635
 8194TIP3    H245998   1.428   5.880  15.011 -0.9976  0.4271 -2.6108
 8195TIP3   OH245999   3.584   3.756  14.753 -0.1357  0.2741  0.3593
 8195TIP3    H146000   3.558   3.681  14.699  0.2248 -1.3308  2.2949
 8195TIP3    H246001   3.502   3.799  14.777 -0.5598 -0.9156  1.1237
 8196TIP3   OH246002   3.004   2.881   1.932 -0.1930 -0.4833 -0.1621
 8196TIP3    H146003   2.914   2.897   1.961  0.4768  0.0306  1.7809
 8196TIP3    H246004   3.048   2.847   2.009  1.5109  0.0922 -0.8389
 8197TIP3   OH246005   5.459   2.645  16.472 -0.2133 -0.0493 -0.9286
 8197TIP3    H146006   5.414   2.611  16.550  0.8466  2.7157  1.0632
 8197TIP3    H246007   5.545   2.604  16.474 -0.3679 -0.3782 -0.9574
 8198TIP3   OH246008   4.129   2.557   3.608  0.1790  0.3482  0.3826
 8198TIP3    H146009   4.219   2.537   3.634 -0.3325 -1.0984  1.1529
 8198TIP3    H246010   4.111   2.497   3.536 -0.0741  0.8575  0.0153
 8199TIP3   OH246011   0.486   3.078   4.225 -0.1172  0.8595  0.0682
 8199TIP3    H146012   0.441   3.012   4.278  0.5804  0.9720  0.8196
 8199TIP3    H246013   0.478   3.045   4.135 -1.5693  0.8205  0.1965
 8200TIP3   OH246014   4.707   0.888   2.295  0.1166 -0.7727  0.5305
 8200TIP3    H146015   4.679   0.865   2.206  1.1266 -1.1731  0.3036
 8200TIP3    H246016   4.648   0.839   2.352 -0.4278 -0.6529  0.0818
 8201TIP3   OH246017   4.770   2.830   2.498 -0.8640  0.0857 -0.0456
 8201TIP3    H146018   4.819   2.774   2.437  1.0217  1.2676  0.3070
 8201TIP3    H246019   4.704   2.772   2.536 -0.8333 -1.1654 -1.7612
 8202TIP3   OH246020   5.118   3.000   2.513  0.8642 -0.2545 -0.3419
 8202TIP3    H146021   5.193   2.985   2.455  2.2806  0.0384  1.3191
 8202TIP3    H246022   5.083   2.912   2.530  1.7138 -0.5496 -0.0546
 8203TIP3   OH246023   6.394   5.928  13.239 -0.2570  0.2291 -0.3721
 8203TIP3    H146024   6.448   5.862  13.196 -0.8390  0.4577 -1.5018
 8203TIP3    H246025   6.452   6.003  13.252  0.5902 -0.6909  1.5151
 8204TIP3   OH246026   2.885   4.476  16.155  0.4453  0.1186  0.1278
 8204TIP3    H146027   2.840   4.558  16.175  0.0638 -0.0277 -0.1238
 8204TIP3    H246028   2.815   4.410  16.155  0.6680 -0.1199 -0.1899
 8205TIP3   OH246029   1.629   6.791   0.093 -0.5093  0.0087 -0.3518
 8205TIP3    H146030   1.716   6.798   0.133 -0.3748  0.2090 -0.6701
 8205TIP3    H246031   1.574   6.850   0.144 -0.2638  0.5100 -0.6619
 8206TIP3   OH246032   4.580   1.762   2.577  0.1660  0.2749 -0.4674
 8206TIP3    H146033   4.622   1.677   2.563  2.1594  1.1230 -0.0389
 8206TIP3    H246034   4.542   1.785   2.493 -2.3003 -1.9276 -0.0977
 8207TIP3   OH246035   5.457   0.587  10.806 -0.8483 -0.1390 -1.0462
 8207TIP3    H146036   5.450   0.581  10.711  0.3337  1.5010 -1.2785
 8207TIP3    H246037   5.539   0.541  10.827 -2.0723 -2.2384 -0.5437
 8208TIP3   OH246038   3.002   1.390   1.902 -0.2011 -0.4707 -0.0948
 8208TIP3    H146039   2.966   1.372   1.988  1.3999  3.0580  1.5257
 8208TIP3    H246040   2.932   1.369   1.841 -3.3580  1.6065  2.4807
 8209TIP3   OH246041   4.552   2.550  12.717  0.1026  0.7663  0.1597
 8209TIP3    H146042   4.599   2.537  12.634 -1.4227 -0.6519 -0.5398
 8209TIP3    H246043   4.576   2.474  12.770 -0.6452  0.5243  0.1562
 8210TIP3   OH246044   1.567   6.007  15.265  0.1843 -0.3141  0.7862
 8210TIP3    H146045   1.473   6.003  15.246  0.4106  0.3970 -0.6213
 8210TIP3    H246046   1.588   5.921  15.301 -0.9856 -0.5086  1.0523
 8211TIP3   OH246047   3.595   2.570   2.699  0.2052 -0.0336 -0.2642
 8211TIP3    H146048   3.528   2.603   2.639  0.7447 -0.7654 -1.2981
 8211TIP3    H246049   3.562   2.484   2.725  0.5019 -0.1833 -0.3826
 8212TIP3   OH246050   3.670   5.629   2.327 -0.4858 -0.2865 -0.7551
 8212TIP3    H146051   3.580   5.660   2.317 -0.4497 -0.2022 -0.8250
 8212TIP3    H246052   3.722   5.690   2.275 -0.0674  1.2711  1.3373
 8213TIP3   OH246053   5.181   3.651  16.340 -0.5566  0.5751  0.6890
 8213TIP3    H146054   5.184   3.586  16.411  0.1247 -0.2558 -0.0684
 8213TIP3    H246055   5.134   3.725  16.377 -1.5018 -0.4183  1.5406
 8214TIP3   OH246056   3.824   6.109   2.126 -0.3022 -0.2588  0.4966
 8214TIP3    H146057   3.889   6.100   2.196 -0.5213 -0.1713  0.7159
 8214TIP3    H246058   3.868   6.161   2.059 -0.4591  0.6488  1.0668
 8215TIP3   OH246059   1.064   1.747  10.323  0.2116 -0.0902 -0.5192
 8215TIP3    H146060   1.014   1.665  10.322 -1.0694  0.6612 -1.0241
 8215TIP3    H246061   1.027   1.796  10.397  2.3106 -0.7205  1.0448
 8216TIP3   OH246062   5.437   2.626  10.781  0.1233  0.1735  0.2347
 8216TIP3    H146063   5.463   2.566  10.851 -0.3282  0.5915  0.7674
 8216TIP3    H246064   5.383   2.692  10.824 -1.3901 -0.3639 -0.7468
 8217TIP3   OH246065   0.773   2.657   3.071 -0.2620 -0.6498  0.6520
 8217TIP3    H146066   0.822   2.597   3.127  1.3546 -1.3878 -1.3673
 8217TIP3    H246067   0.724   2.599   3.012 -0.8830  0.0683  0.4574
 8218TIP3   OH246068   1.174   2.836  15.552  0.3144  0.1163  0.1736
 8218TIP3    H146069   1.238   2.776  15.513 -1.0421 -1.4186  0.1698
 8218TIP3    H246070   1.226   2.910  15.582  1.8940 -0.3850 -1.1281
 8219TIP3   OH246071   5.785   2.234   2.300 -0.5406 -0.7185  0.2087
 8219TIP3    H146072   5.835   2.154   2.286 -1.5672 -1.0939 -1.6255
 8219TIP3    H246073   5.700   2.203   2.331 -0.4350 -0.2159  1.0435
 8220TIP3   OH246074   4.042   0.068  12.995  0.1280  0.4998  0.1247
 8220TIP3    H146075   4.113   0.120  13.032 -1.6878  4.3324 -1.3107
 8220TIP3    H246076   3.964   0.095  13.043 -0.8684 -1.4690 -0.2763
 8221TIP3   OH246077   5.052   2.157  15.937 -0.6415  0.2994  0.0761
 8221TIP3    H146078   5.044   2.252  15.949  1.4373  0.4755  0.4822
 8221TIP3    H246079   5.071   2.124  16.025  0.3232 -0.2706 -0.3368
 8222TIP3   OH246080   5.855   4.566  16.372 -0.6980  0.3637 -0.8691
 8222TIP3    H146081   5.819   4.654  16.357 -0.9178  0.5510  0.6051
 8222TIP3    H246082   5.796   4.527  16.437  0.6005 -0.0785  0.0738
 8223TIP3   OH246083   5.951   4.026   0.798 -0.2398  0.1454  0.0144
 8223TIP3    H146084   6.011   4.098   0.819 -1.2450  0.7469  0.9011
 8223TIP3    H246085   5.866   4.056   0.829 -0.7201 -1.3510  0.2216
 8224TIP3   OH246086   2.046   0.185   4.660  0.5466 -0.0241  0.2973
 8224TIP3    H146087   2.082   0.154   4.743  0.5419 -1.0622 -0.0685
 8224TIP3    H246088   2.031   0.278   4.673  0.7923 -0.1254  1.3710
 8225TIP3   OH246089   6.293   0.960   4.127  0.5535  1.0034 -0.1461
 8225TIP3    H146090   6.298   1.040   4.180  0.1827  1.6003 -0.9811
 8225TIP3    H246091   6.373   0.961   4.075  1.0540  0.2709  0.5769
 8226TIP3   OH246092   3.767   3.177   2.285 -0.1687 -1.2043  0.0738
 8226TIP3    H146093   3.809   3.240   2.226  0.0651  1.4632  2.8474
 8226TIP3    H246094   3.686   3.220   2.312 -1.0794 -3.0778  0.5050
 8227TIP3   OH246095   4.258   5.115  10.321  0.1208 -0.0484  0.7787
 8227TIP3    H146096   4.305   5.199  10.316 -0.7348  0.3832 -0.4915
 8227TIP3    H246097   4.168   5.139  10.344 -0.4939 -0.4455 -1.0424
 8228TIP3   OH246098   4.041   3.966  13.334  0.7990 -0.2740 -0.2482
 8228TIP3    H146099   4.002   3.895  13.283 -1.5200  0.2907  0.6016
 8228TIP3    H246100   4.073   3.924  13.414  1.6083 -0.6836 -0.7728
 8229TIP3   OH246101   2.334   2.064  14.728 -0.4168  0.6621 -0.6896
 8229TIP3    H146102   2.398   2.128  14.757 -1.0574  0.8059  0.4791
 8229TIP3    H246103   2.262   2.071  14.791 -0.0901 -1.8656  0.0949
 8230TIP3   OH246104   0.055   6.817   2.426  0.5270  0.4071  0.2615
 8230TIP3    H146105   0.128   6.773   2.469 -0.3189 -0.4265  0.8999
 8230TIP3    H246106  -0.013   6.750   2.420 -0.3966  1.3178  0.2166
 8231TIP3   OH246107   6.086   0.118   2.785  0.0894 -0.0394  0.0665
 8231TIP3    H146108   6.001   0.150   2.755 -0.8702 -0.6775  1.9119
 8231TIP3    H246109   6.135   0.100   2.705 -1.5411  0.2843 -1.0524
 8232TIP3   OH246110   3.890   6.427   4.091  0.6016  0.1440  0.0427
 8232TIP3    H146111   3.852   6.465   4.012  0.4857 -0.1241 -0.0315
 8232TIP3    H246112   3.985   6.437   4.078  0.5545  1.2789  0.4624
 8233TIP3   OH246113   0.327   4.878   9.736 -0.4125  0.0992  0.1679
 8233TIP3    H146114   0.372   4.798   9.713 -1.2110 -0.6839  1.2083
 8233TIP3    H246115   0.238   4.850   9.760 -0.6216  1.2411  0.8294
 8234TIP3   OH246116   2.953   6.225  11.219  0.0426 -0.1709 -0.3836
 8234TIP3    H146117   2.932   6.306  11.172 -0.0290  0.1272  0.1560
 8234TIP3    H246118   2.882   6.215  11.283 -0.4982 -1.2054 -1.1245
 8235TIP3   OH246119   5.092   2.803  14.401 -0.3698 -0.4718 -0.1519
 8235TIP3    H146120   5.119   2.725  14.352  0.5501  0.4024 -1.0760
 8235TIP3    H246121   5.000   2.815  14.379  0.0425 -0.0571 -1.7404
 8236TIP3   OH246122   6.619   4.795  12.973 -0.1076  0.4860  0.0890
 8236TIP3    H146123   6.654   4.706  12.979  0.1112  0.5512 -0.1783
 8236TIP3    H246124   6.563   4.793  12.896 -0.6806  0.3882  0.5037
 8237TIP3   OH246125   1.202   1.951  13.163 -0.1813  0.3754  0.0694
 8237TIP3    H146126   1.198   1.859  13.189  0.4785  0.5056  0.6381
 8237TIP3    H246127   1.168   1.951  13.074 -0.2305 -0.4152  0.0767
 8238TIP3   OH246128   0.219   2.617   0.483 -0.2660  0.2920 -0.0206
 8238TIP3    H146129   0.186   2.528   0.495 -1.6700  0.9482  1.2918
 8238TIP3    H246130   0.216   2.632   0.389 -0.0776 -1.0123 -0.2447
 8239TIP3   OH246131   4.419   3.828  10.574  0.3679 -0.0491 -0.7115
 8239TIP3    H146132   4.486   3.776  10.618  0.6980  0.5920 -0.4378
 8239TIP3    H246133   4.400   3.899  10.635 -2.9303 -1.9398  0.6967
 8240TIP3   OH246134   1.828   6.237   0.567 -0.3130 -0.0697  0.5117
 8240TIP3    H146135   1.757   6.183   0.532 -0.1758  0.7328 -1.0679
 8240TIP3    H246136   1.905   6.181   0.561 -0.1748  0.2355 -1.0997
 8241TIP3   OH246137   4.420   0.492  13.694  0.4783  0.8021  0.6603
 8241TIP3    H146138   4.441   0.400  13.706  0.5518  0.3112 -2.5506
 8241TIP3    H246139   4.504   0.536  13.683  0.4284  1.2485  1.8886
 8242TIP3   OH246140   5.686   1.573  11.464  0.0615 -0.3710 -0.2893
 8242TIP3    H146141   5.725   1.506  11.409  1.1934 -2.0255  2.3203
 8242TIP3    H246142   5.615   1.528  11.509 -0.7921  0.9010 -0.3195
 8243TIP3   OH246143   4.911   4.584  10.362 -0.1231  0.1370  0.1620
 8243TIP3    H146144   4.860   4.518  10.316 -1.3759  1.6381 -0.6913
 8243TIP3    H246145   4.963   4.626  10.293  0.0813  0.5483  0.5598
 8244TIP3   OH246146   5.198   3.363   4.078  0.4999  0.0665  0.3841
 8244TIP3    H146147   5.181   3.280   4.034  0.9404 -0.0597  0.4520
 8244TIP3    H246148   5.242   3.339   4.159 -1.3151  0.2058  1.4837
 8245TIP3   OH246149   6.629   4.258  16.449 -0.7094 -0.8748  0.3098
 8245TIP3    H146150   6.611   4.202  16.525 -0.0495  0.8217  1.7724
 8245TIP3    H246151   6.681   4.202  16.391 -1.2438 -2.2198  1.0744
 8246TIP3   OH246152   1.732   3.082  13.321 -0.3503  0.3386 -0.0689
 8246TIP3    H146153   1.711   3.054  13.410  0.0397 -0.9602 -0.3570
 8246TIP3    H246154   1.762   3.002  13.278  1.0659  1.2840 -0.8972
 8247TIP3   OH246155   6.794   4.503   5.358 -0.4827 -0.1315 -0.0977
 8247TIP3    H146156   6.750   4.478   5.276 -0.4616 -1.6810  0.3336
 8247TIP3    H246157   6.726   4.499   5.424 -0.6805  1.8909 -0.1170
 8248TIP3   OH246158   6.005   1.574  14.092  0.1328  0.3124  0.0551
 8248TIP3    H146159   6.018   1.617  14.177  0.0846  1.9018 -0.7035
 8248TIP3    H246160   6.093   1.551  14.063  0.0707 -1.1992  0.9875
 8249TIP3   OH246161   3.446   2.195   4.535  0.4296 -0.1053 -0.1039
 8249TIP3    H146162   3.446   2.105   4.503  1.2807 -0.1047 -0.1103
 8249TIP3    H246163   3.421   2.247   4.458 -1.7112 -0.4451  0.2913
 8250TIP3   OH246164   1.240   6.538  16.419  0.3310  0.1196  0.0140
 8250TIP3    H146165   1.176   6.495  16.362  0.4223 -0.1078  0.0798
 8250TIP3    H246166   1.231   6.493  16.503  0.4689  0.1926  0.0683
 8251TIP3   OH246167   3.303   6.488  11.191  0.2208  0.4092  0.0900
 8251TIP3    H146168   3.223   6.483  11.243  0.1170  1.2687  0.0241
 8251TIP3    H246169   3.299   6.573  11.149  0.9193  0.2397 -0.3338
 8252TIP3   OH246170   3.476   5.497  12.963 -0.3888 -0.0913  1.0272
 8252TIP3    H146171   3.426   5.526  12.887 -1.2897  1.4500  2.1425
 8252TIP3    H246172   3.483   5.403  12.953 -0.5767  0.0550 -0.8905
 8253TIP3   OH246173   2.279   2.434   1.500  0.6775 -0.5322 -0.0560
 8253TIP3    H146174   2.200   2.417   1.448  1.4317  0.3222 -1.5515
 8253TIP3    H246175   2.293   2.529   1.491  0.9916 -0.4175  1.5011
 8254TIP3   OH246176   1.769   0.937   4.864 -0.0025  0.1017 -0.2410
 8254TIP3    H146177   1.810   0.944   4.778  2.4153 -0.8845  0.7352
 8254TIP3    H246178   1.676   0.927   4.845  0.1928  1.8840 -2.6338
 8255TIP3   OH246179   5.040   6.624   4.590  0.1961 -0.0956  0.3249
 8255TIP3    H146180   5.013   6.684   4.520  0.0967  0.4217  0.8028
 8255TIP3    H246181   4.993   6.543   4.572 -0.8801  0.4701  0.5628
 8256TIP3   OH246182   3.707   6.505   3.393 -0.0537 -0.1609 -0.1981
 8256TIP3    H146183   3.777   6.558   3.355 -1.3357  1.2351 -0.7314
 8256TIP3    H246184   3.752   6.433   3.437  1.5702 -1.5050 -3.6909
 8257TIP3   OH246185   3.131   4.820   3.405  0.3301  0.3536  0.4968
 8257TIP3    H146186   3.090   4.886   3.461 -0.2006  1.7563 -1.4468
 8257TIP3    H246187   3.225   4.839   3.411  0.2229  0.9431  0.3781
 8258TIP3   OH246188   0.335   0.973  11.562  0.1578 -0.2223 -0.1378
 8258TIP3    H146189   0.264   1.032  11.536  0.9103  1.5181  1.4778
 8258TIP3    H246190   0.414   1.013  11.524  0.5670 -0.7480  0.1453
 8259TIP3   OH246191   5.404   0.816   5.692 -0.0778  0.7852 -0.7124
 8259TIP3    H146192   5.391   0.803   5.786  1.6033  0.0959 -0.5256
 8259TIP3    H246193   5.458   0.895   5.686  0.5808  0.3214 -1.0230
 8260TIP3   OH246194   2.946   3.114   4.146 -0.4474 -0.4784  0.4190
 8260TIP3    H146195   2.947   3.164   4.228 -4.1158  0.3116  0.1254
 8260TIP3    H246196   2.938   3.181   4.078 -1.5346 -1.2901 -0.2715
 8261TIP3   OH246197   1.580   3.076  12.334  0.5652  0.6399  0.1036
 8261TIP3    H146198   1.506   3.067  12.274  0.4584 -1.5369  0.4720
 8261TIP3    H246199   1.558   3.151  12.389 -1.0218  0.4756 -0.2687
 8262TIP3   OH246200   4.691   5.970  13.391 -0.0141 -0.0820 -0.2640
 8262TIP3    H146201   4.679   5.936  13.302  0.2549  0.0940 -0.3693
 8262TIP3    H246202   4.651   6.057  13.388  0.0768 -0.0393 -0.2389
 8263TIP3   OH246203   3.027   2.633   3.063  0.8689  0.2374  0.1003
 8263TIP3    H146204   3.015   2.722   3.097  0.5512  0.5959 -0.9242
 8263TIP3    H246205   2.978   2.631   2.981 -0.2025 -1.2852  0.7185
 8264TIP3   OH246206   3.102   4.495   0.521 -0.3158  0.1706 -0.5037
 8264TIP3    H146207   3.014   4.534   0.526  0.3726  1.7232  0.0378
 8264TIP3    H246208   3.162   4.569   0.528  1.0676 -0.6740 -2.3573
 8265TIP3   OH246209   4.214   2.136  16.308 -0.0811 -0.4905  0.1334
 8265TIP3    H146210   4.285   2.188  16.346 -0.0073  0.5360 -1.2853
 8265TIP3    H246211   4.225   2.049  16.345  1.9932 -0.3861 -0.0870
 8266TIP3   OH246212   3.777   4.260   5.573  0.1134  0.2651 -0.3464
 8266TIP3    H146213   3.870   4.252   5.590 -0.2492  0.3167  1.8921
 8266TIP3    H246214   3.739   4.177   5.600 -0.6242  0.6165 -0.2520
 8267TIP3   OH246215   5.410   5.182   0.496  0.9792 -0.0044 -0.3733
 8267TIP3    H146216   5.476   5.233   0.450 -0.7684  1.0059 -1.9354
 8267TIP3    H246217   5.348   5.247   0.529  2.0017 -0.7011  3.3726
 8268TIP3   OH246218   1.950   2.386  13.949 -0.0236  0.3560  0.5997
 8268TIP3    H146219   2.025   2.373  14.006  0.9301  0.3625 -0.6063
 8268TIP3    H246220   1.951   2.480  13.929  0.8889  0.0339 -1.0227
 8269TIP3   OH246221   4.813   2.595  13.005 -0.1468 -0.0222 -0.0105
 8269TIP3    H146222   4.855   2.661  13.059 -0.1703  0.8884 -1.0681
 8269TIP3    H246223   4.719   2.613  13.013 -0.1455  0.1698 -0.4221
 8270TIP3   OH246224   0.606   5.074  13.113  0.2288  0.2482  0.5446
 8270TIP3    H146225   0.534   5.017  13.139 -1.2215 -0.0124 -3.3305
 8270TIP3    H246226   0.667   5.016  13.066  1.2211  1.0592  0.7960
 8271TIP3   OH246227   1.114   0.563  14.110  1.1933 -0.1603 -0.2869
 8271TIP3    H146228   1.149   0.645  14.075  1.1263 -0.2823 -0.6382
 8271TIP3    H246229   1.179   0.498  14.086  1.3997 -0.1628  0.2623
 8272TIP3   OH246230   3.825   0.461   3.913 -0.0611 -0.5851 -0.1197
 8272TIP3    H146231   3.874   0.416   3.981  1.7176  0.4922 -0.6419
 8272TIP3    H246232   3.886   0.467   3.839 -1.3179 -0.0785 -1.1634
 8273TIP3   OH246233   5.698   2.214  16.610  0.2378 -0.3274  0.0830
 8273TIP3    H146234   5.667   2.255  16.529  2.4108  0.3837 -0.4735
 8273TIP3    H246235   5.724   2.288  16.665 -0.8043 -0.8257  1.2730
 8274TIP3   OH246236   2.844   3.393  11.326 -0.1723 -0.1877  0.4193
 8274TIP3    H146237   2.790   3.389  11.405 -2.1682 -2.7469 -0.9075
 8274TIP3    H246238   2.911   3.325  11.339 -0.6058 -0.7304 -0.1078
 8275TIP3   OH246239   2.127   5.685   1.965 -0.2690  0.6555  0.5367
 8275TIP3    H146240   2.141   5.759   2.024  0.3500 -0.8758  2.4504
 8275TIP3    H246241   2.201   5.687   1.905  0.9087  0.4162  1.9295
 8276TIP3   OH246242   3.876   4.673  12.429 -0.0046 -0.4899  0.1063
 8276TIP3    H146243   3.789   4.652  12.462  0.0888  0.4337  0.9912
 8276TIP3    H246244   3.886   4.620  12.350 -0.5603 -2.1250  1.1051
 8277TIP3   OH246245   3.695   5.882  12.899  0.1896  0.7966 -0.7081
 8277TIP3    H146246   3.706   5.789  12.880  0.1033  0.1725  1.9689
 8277TIP3    H246247   3.776   5.923  12.868  0.4903 -0.2481 -1.3553
 8278TIP3   OH246248   6.138   3.312  15.340 -0.0379  0.8864  0.4497
 8278TIP3    H146249   6.106   3.227  15.370  1.5718 -0.2287 -0.7539
 8278TIP3    H246250   6.105   3.375  15.403 -1.5145 -0.6051  1.2229
 8279TIP3   OH246251   5.700   0.820  16.068 -0.3078  0.0622 -0.1734
 8279TIP3    H146252   5.669   0.885  16.131 -1.7538 -1.1306  0.3849
 8279TIP3    H246253   5.640   0.827  15.994  0.7386  0.7072 -0.9990
 8280TIP3   OH246254   3.564   4.287  10.917  0.3752 -0.3516  0.0915
 8280TIP3    H146255   3.633   4.262  10.979  0.8492  0.0532 -0.2643
 8280TIP3    H246256   3.488   4.305  10.973  1.4649  2.3990  0.8484
 8281TIP3   OH246257   0.396   5.213  14.313  0.0482  0.6212  0.0259
 8281TIP3    H146258   0.345   5.233  14.391 -1.7525  1.6957 -1.3549
 8281TIP3    H246259   0.457   5.286  14.305  1.3391 -0.2615  1.2238
 8282TIP3   OH246260   6.097   6.681   4.893  0.9933  0.3108  0.3227
 8282TIP3    H146261   6.124   6.637   4.812 -1.8374 -2.7894  0.8529
 8282TIP3    H246262   6.164   6.655   4.957  1.7862  0.5262 -0.3997
 8283TIP3   OH246263   0.436   2.279   0.173  0.3796 -0.1472 -0.6503
 8283TIP3    H146264   0.478   2.197   0.198  0.7850 -0.0019 -0.8470
 8283TIP3    H246265   0.507   2.332   0.137  0.0021  0.0452 -1.1152
 8284TIP3   OH246266   1.789   6.211  15.111  0.0276  0.2516 -0.3369
 8284TIP3    H146267   1.701   6.241  15.088 -0.7738 -1.6164  0.1511
 8284TIP3    H246268   1.842   6.234  15.034 -1.4173 -0.8383 -1.7345
 8285TIP3   OH246269   2.499   2.345   2.741 -0.4215  0.3553 -0.8900
 8285TIP3    H146270   2.589   2.320   2.758  0.2766  2.8266 -0.5317
 8285TIP3    H246271   2.460   2.268   2.699  1.9797 -0.6050 -1.5447
 8286TIP3   OH246272   6.596   2.699  16.105  0.3003  0.3577  0.5320
 8286TIP3    H146273   6.641   2.677  16.024 -3.1194 -2.2276 -0.8972
 8286TIP3    H246274   6.618   2.629  16.166 -1.8712 -1.1557 -0.3102
 8287TIP3   OH246275   2.255   3.414  14.444 -0.0368 -0.2180 -0.1216
 8287TIP3    H146276   2.318   3.342  14.449  1.1798  0.8687  0.8820
 8287TIP3    H246277   2.209   3.411  14.528 -1.5360 -1.1322 -0.9258
 8288TIP3   OH246278   0.479   5.658  11.386 -0.1634  0.3457 -0.0517
 8288TIP3    H146279   0.476   5.612  11.470 -1.8032  0.8532  0.2076
 8288TIP3    H246280   0.490   5.750  11.409 -0.5698  0.4820 -0.3778
 8289TIP3   OH246281   0.783   5.363   0.663  0.2555 -0.1859 -0.4249
 8289TIP3    H146282   0.818   5.415   0.591  1.2561  2.3437  1.7140
 8289TIP3    H246283   0.691   5.387   0.668  0.4618  0.5867 -0.1537
 8290TIP3   OH246284   1.676   6.864  14.726  0.1872  0.5440 -0.1098
 8290TIP3    H146285   1.677   6.784  14.674 -0.8874 -0.1450  0.8973
 8290TIP3    H246286   1.711   6.931  14.666  0.3915 -0.5017 -1.2100
 8291TIP3   OH246287   1.715   2.261   3.565 -0.2011 -0.2160  0.5336
 8291TIP3    H146288   1.781   2.195   3.542  0.0641  0.4440 -0.6915
 8291TIP3    H246289   1.756   2.312   3.635  0.9676  0.6825 -0.7460
 8292TIP3   OH246290   3.072   6.475   1.744 -0.0205  0.3174 -0.0559
 8292TIP3    H146291   2.983   6.507   1.733  0.1196 -0.0030 -2.7008
 8292TIP3    H246292   3.062   6.392   1.792 -1.1966  0.0111 -0.7951
 8293TIP3   OH246293   1.011   2.523  10.808 -1.0309  0.1098  0.3430
 8293TIP3    H146294   1.049   2.609  10.820 -1.5740  0.1658  1.9362
 8293TIP3    H246295   0.928   2.527  10.856 -1.7422 -0.8449 -0.7656
 8294TIP3   OH246296   4.548   0.884   5.482 -0.5400  0.6198 -0.6754
 8294TIP3    H146297   4.528   0.881   5.575  1.1233 -1.5419 -0.2961
 8294TIP3    H246298   4.464   0.900   5.440 -1.6301 -0.0349  1.1235
 8295TIP3   OH246299   6.393   4.939   0.039 -0.5654  0.3188  0.3675
 8295TIP3    H146300   6.484   4.967   0.037 -0.1441 -0.9037  0.9821
 8295TIP3    H246301   6.381   4.888  -0.041 -0.5696  0.0841  0.5174
 8296TIP3   OH246302   0.682   0.404   3.181 -0.3983  0.0437 -0.3850
 8296TIP3    H146303   0.660   0.312   3.194 -0.5011 -0.0164 -0.9798
 8296TIP3    H246304   0.599   0.446   3.157 -0.3299  0.2705 -0.2281
 8297TIP3   OH246305   3.055   0.768  16.248  0.3157 -0.1751  0.3504
 8297TIP3    H146306   3.072   0.815  16.167 -0.1395 -0.1456  0.2688
 8297TIP3    H246307   3.008   0.830  16.304 -0.7040 -0.6683  0.0644
 8298TIP3   OH246308   5.857   4.514  14.434  0.1618 -0.2536  0.2954
 8298TIP3    H146309   5.821   4.507  14.522 -1.3808 -0.9835 -0.3620
 8298TIP3    H246310   5.782   4.502  14.376  1.0006  1.0245 -1.1281
 8299TIP3   OH246311   5.554   4.580   3.747  0.3432 -0.6615 -0.2000
 8299TIP3    H146312   5.622   4.580   3.680  0.0225 -1.0154 -0.5335
 8299TIP3    H246313   5.472   4.579   3.697  0.0031  2.2292  0.1190
 8300TIP3   OH246314   2.922   5.442   4.843  0.0408  0.1758 -0.2465
 8300TIP3    H146315   2.974   5.493   4.905  0.7187  1.3566 -1.7245
 8300TIP3    H246316   2.852   5.501   4.816 -1.5594 -1.0712  0.9776
 8301TIP3   OH246317   0.306   5.737   0.416  0.1821  0.4709  0.0247
 8301TIP3    H146318   0.386   5.748   0.468  0.3366 -0.9213  0.0969
 8301TIP3    H246319   0.331   5.768   0.329  0.2028  1.8998  0.5009
 8302TIP3   OH246320   0.846   5.758  12.338  0.0063 -0.2535  0.0106
 8302TIP3    H146321   0.940   5.741  12.331  0.0322 -0.4838  0.8171
 8302TIP3    H246322   0.815   5.694  12.402 -0.5557  0.3247  0.3252
 8303TIP3   OH246323   2.065   0.375  12.024 -0.2008  0.1737 -0.1920
 8303TIP3    H146324   1.996   0.371  12.091 -0.2368  1.1044 -0.1539
 8303TIP3    H246325   2.145   0.351  12.071 -0.4497 -0.6430 -0.1727
 8304TIP3   OH246326   0.507   4.433  14.261 -0.3480  0.1168 -0.3029
 8304TIP3    H146327   0.574   4.366  14.250 -0.8053 -0.8264  2.0564
 8304TIP3    H246328   0.465   4.439  14.175  1.5452 -0.5489 -1.3374
 8305TIP3   OH246329   2.148   0.511  10.313  0.9630  0.2329 -0.2652
 8305TIP3    H146330   2.105   0.587  10.273  2.2819  1.0294 -0.2174
 8305TIP3    H246331   2.241   0.526  10.298  1.3109 -0.8050  0.7700
 8306TIP3   OH246332   4.656   1.696  11.816  0.1333 -0.2752  0.3433
 8306TIP3    H146333   4.564   1.684  11.796 -0.3557  1.5472  1.3008
 8306TIP3    H246334   4.678   1.782  11.781  1.3941 -0.5448  0.4117
 8307TIP3   OH246335   2.554   5.802   0.980  0.1738  0.6176  0.0921
 8307TIP3    H146336   2.516   5.728   1.028  2.5449  0.2590  1.5919
 8307TIP3    H246337   2.566   5.869   1.047  2.7117  0.4465 -0.0945
 8308TIP3   OH246338   0.580   3.688   3.426  0.6287 -0.0514  0.5329
 8308TIP3    H146339   0.605   3.666   3.516 -1.4216  1.6295  1.5749
 8308TIP3    H246340   0.607   3.611   3.375 -0.5289 -2.2369  2.9797
 8309TIP3   OH246341   5.211   2.101   0.463  0.1159  0.4381  0.0106
 8309TIP3    H146342   5.123   2.081   0.495  0.7260 -1.3482  0.7058
 8309TIP3    H246343   5.219   2.196   0.474 -1.5812  0.5928  0.2508
 8310TIP3   OH246344   0.968   4.505   2.754 -0.4940 -0.1865  0.3745
 8310TIP3    H146345   0.949   4.451   2.677  0.4499 -0.8372  0.5761
 8310TIP3    H246346   0.906   4.475   2.820 -1.8638  0.9350 -0.3474
 8311TIP3   OH246347   4.925   1.714  11.618  0.5742  0.2422  0.4891
 8311TIP3    H146348   4.872   1.786  11.651  1.0305  1.0826 -0.5631
 8311TIP3    H246349   4.972   1.682  11.695 -1.0207 -0.1849  1.3516
 8312TIP3   OH246350   0.513   1.791   5.167 -1.3820  0.1925 -0.8553
 8312TIP3    H146351   0.562   1.713   5.143  0.0314  1.0815 -0.9607
 8312TIP3    H246352   0.421   1.765   5.160 -0.9979 -2.1884  1.5559
 8313TIP3   OH246353   5.853   5.672  10.749  0.0952 -0.1364 -0.1244
 8313TIP3    H146354   5.847   5.591  10.698  0.4380  0.4734 -1.1649
 8313TIP3    H246355   5.813   5.650  10.833  2.5562 -2.1856  0.6599
 8314TIP3   OH246356   1.445   4.496  15.048  0.1851 -0.0089  0.3209
 8314TIP3    H146357   1.525   4.503  14.996  1.1241 -0.3501  1.6563
 8314TIP3    H246358   1.447   4.407  15.083  1.1538  1.0299  3.2491
 8315TIP3   OH246359   1.171   4.445  11.484 -0.0287 -0.3073 -0.0335
 8315TIP3    H146360   1.159   4.467  11.392 -0.2050 -1.8212 -0.4037
 8315TIP3    H246361   1.083   4.426  11.516  0.0518  0.0456  0.4161
 8316TIP3   OH246362   4.403   3.452  14.322 -0.1098 -0.3684  0.4134
 8316TIP3    H146363   4.390   3.419  14.410 -0.4823  0.2311  0.5903
 8316TIP3    H246364   4.495   3.435  14.303 -0.3768 -1.8529  0.3369
 8317TIP3   OH246365   6.353   0.688  12.797  0.4307  0.1080  0.0200
 8317TIP3    H146366   6.287   0.679  12.729  0.7978  1.9144 -0.6327
 8317TIP3    H246367   6.406   0.764  12.769  1.0844  0.3917  1.8968
 8318TIP3   OH246368   1.038   6.157   3.718  0.3986  0.5879 -0.1576
 8318TIP3    H146369   1.009   6.125   3.632  0.8923 -0.5143  0.0615
 8318TIP3    H246370   1.044   6.078   3.772 -1.4314  1.4319  1.3923
 8319TIP3   OH246371   6.523   6.742  11.588  0.0017  0.1984 -0.0891
 8319TIP3    H146372   6.598   6.801  11.600  1.5557 -1.8974  1.0670
 8319TIP3    H246373   6.527   6.682  11.662 -0.9219 -1.9617 -1.6877
 8320TIP3   OH246374   6.417   6.846  11.924  0.7535 -0.2331  0.0333
 8320TIP3    H146375   6.379   6.794  11.995  2.5965  0.4892  1.6312
 8320TIP3    H246376   6.481   6.789  11.883  1.8355  0.2967  0.9373
 8321TIP3   OH246377   1.699   3.585   1.683  0.3965  0.3866  0.3526
 8321TIP3    H146378   1.691   3.546   1.596 -0.5691  1.6781 -0.1729
 8321TIP3    H246379   1.763   3.656   1.672  1.1025 -0.1421  0.9689
 8322TIP3   OH246380   5.415   3.898   3.802 -0.2168  0.1533 -0.2835
 8322TIP3    H146381   5.447   3.922   3.714  2.1691  0.4281  0.5854
 8322TIP3    H246382   5.322   3.880   3.789 -0.4429  2.2848 -2.4753
 8323TIP3   OH246383   0.798   4.716  16.640 -0.3019 -0.2723  0.6404
 8323TIP3    H146384   0.808   4.809  16.660 -0.6259 -0.5514  2.2581
 8323TIP3    H246385   0.807   4.672  16.725  0.2357 -1.7595 -0.1431
 8324TIP3   OH246386   1.668   2.221  11.831  0.0567 -0.1994 -0.2379
 8324TIP3    H146387   1.710   2.142  11.866 -0.0529 -0.0717  0.1820
 8324TIP3    H246388   1.591   2.233  11.885  0.1949  0.3287 -0.1554
 8325TIP3   OH246389   1.549   0.915  12.619  0.3447 -0.1095 -0.4998
 8325TIP3    H146390   1.611   0.931  12.547  1.3840 -0.3629  0.3085
 8325TIP3    H246391   1.584   0.966  12.692  2.4885 -3.9956  1.4966
 8326TIP3   OH246392   3.641   4.112   4.874 -0.4356 -0.0013  0.1243
 8326TIP3    H146393   3.628   4.195   4.920 -0.8796  0.4341 -0.7701
 8326TIP3    H246394   3.728   4.083   4.903 -1.1848 -0.3739  2.1924
 8327TIP3   OH246395   6.325   4.763   2.146 -0.5640 -0.4011 -0.2445
 8327TIP3    H146396   6.292   4.801   2.065  0.2749 -0.7272 -0.7552
 8327TIP3    H246397   6.300   4.671   2.141  1.4002 -0.9377 -1.2171
 8328TIP3   OH246398   0.129   4.776   4.894  0.0755 -0.4914  0.7074
 8328TIP3    H146399   0.215   4.809   4.921  0.2719  1.6800 -2.0616
 8328TIP3    H246400   0.090   4.741   4.974  2.0128  1.9533  2.8990
 8329TIP3   OH246401   4.063   5.474  15.853 -0.4461  0.0698 -0.6166
 8329TIP3    H146402   4.050   5.484  15.759 -1.3136  2.0226 -0.3325
 8329TIP3    H246403   4.153   5.443  15.862 -0.3339 -0.0667 -2.0736
 8330TIP3   OH246404   1.544   0.328  15.755 -0.5407 -0.2272 -0.7460
 8330TIP3    H146405   1.532   0.391  15.684 -0.2965 -1.7303 -2.1808
 8330TIP3    H246406   1.581   0.380  15.827  0.7626  1.0500 -2.2552
 8331TIP3   OH246407   2.220   3.418  13.702 -0.0307  0.8008  0.6694
 8331TIP3    H146408   2.315   3.417  13.709  0.1930  2.5088 -1.1970
 8331TIP3    H246409   2.195   3.325  13.699  1.6166  0.3327  0.4950
 8332TIP3   OH246410   2.252   2.193   0.987  0.1588  0.1073  0.0153
 8332TIP3    H146411   2.310   2.200   1.062 -0.0244  0.7495  0.1051
 8332TIP3    H246412   2.304   2.225   0.913 -0.2160  1.1378  0.1766
 8333TIP3   OH246413   6.860   1.938  15.249 -0.1470  0.4483 -0.3003
 8333TIP3    H146414   6.783   1.933  15.192 -0.1072  2.9801 -0.7237
 8333TIP3    H246415   6.830   1.907  15.334 -1.2450  0.0514 -0.8183
 8334TIP3   OH246416   2.096   2.347   0.145 -0.6353 -0.3121  0.8821
 8334TIP3    H146417   2.105   2.441   0.155  1.3056 -0.2121 -1.0437
 8334TIP3    H246418   2.184   2.312   0.155 -0.8707 -1.5981 -0.8858
 8335TIP3   OH246419   5.084   0.064   0.293  0.0124 -0.1368  0.1388
 8335TIP3    H146420   5.177   0.087   0.295  0.0782 -0.3963  0.1654
 8335TIP3    H246421   5.041   0.142   0.259  0.4202 -0.5574 -1.4697
 8336TIP3   OH246422   6.480   1.801   3.055  0.0601 -0.2621  0.4420
 8336TIP3    H146423   6.466   1.706   3.059 -2.0620 -0.0356 -0.0268
 8336TIP3    H246424   6.419   1.837   3.120 -1.2288  0.8784 -1.2988
 8337TIP3   OH246425   3.986   2.108  15.097  0.1894  1.1385  0.1979
 8337TIP3    H146426   3.950   2.129  15.011 -1.0913  4.3461  1.3702
 8337TIP3    H246427   3.966   2.016  15.110  0.9505  0.3861 -3.1231
 8338TIP3   OH246428   1.778   6.635   2.918 -0.0136 -0.2004 -0.2666
 8338TIP3    H146429   1.706   6.627   2.980 -0.2711  1.5969 -0.2789
 8338TIP3    H246430   1.780   6.551   2.872 -2.2758 -0.2034 -0.4534
 8339TIP3   OH246431   3.511   4.256   4.095  0.4782 -0.2620  0.3296
 8339TIP3    H146432   3.578   4.218   4.152  0.9250  1.9644  1.3681
 8339TIP3    H246433   3.560   4.296   4.024  0.1910  0.5689  0.5970
 8340TIP3   OH246434   4.238   2.200   5.173 -0.0249 -1.3367 -0.4802
 8340TIP3    H146435   4.185   2.168   5.246  0.4814 -0.4234  0.3080
 8340TIP3    H246436   4.327   2.204   5.208  0.2531 -1.0297 -1.2015
 8341TIP3   OH246437   4.842   2.394  13.300  0.3592 -0.4394 -0.2019
 8341TIP3    H146438   4.930   2.363  13.279  0.6343  1.7584 -2.8631
 8341TIP3    H246439   4.855   2.483  13.333 -0.8744  0.2546 -1.4952
 8342TIP3   OH246440   4.406   5.935   2.312 -0.4627  0.2188 -0.1219
 8342TIP3    H146441   4.395   5.996   2.385 -0.3440 -0.0567  0.1269
 8342TIP3    H246442   4.446   5.988   2.243  0.2154  0.2807  0.3022
 8343TIP3   OH246443   6.473   6.181   2.640  1.0017 -0.1923 -0.8087
 8343TIP3    H146444   6.494   6.242   2.570 -0.4768 -0.2876 -1.3634
 8343TIP3    H246445   6.554   6.174   2.691  2.1492 -0.2422 -2.5727
 8344TIP3   OH246446   4.508   0.557  14.653  0.2787 -0.4896 -0.4357
 8344TIP3    H146447   4.581   0.619  14.643 -0.4861  0.6693  0.8226
 8344TIP3    H246448   4.503   0.541  14.747 -2.4758  1.2434 -0.1822
 8345TIP3   OH246449   1.335   3.922  14.036 -0.4765 -0.3776 -0.0489
 8345TIP3    H146450   1.339   4.017  14.030 -0.4338 -0.3871 -0.1708
 8345TIP3    H246451   1.386   3.901  14.115 -2.1709 -0.1630  1.1622
 8346TIP3   OH246452   1.865   6.625  10.666  0.3337 -0.0313  0.0184
 8346TIP3    H146453   1.953   6.605  10.636 -0.0687  1.4171 -2.3569
 8346TIP3    H246454   1.851   6.716  10.642 -1.3529  0.1688  1.5373
 8347TIP3   OH246455   2.761   4.923   3.251  0.6458 -0.1908 -0.6640
 8347TIP3    H146456   2.804   4.881   3.177  2.3538  0.3292 -0.0285
 8347TIP3    H246457   2.747   4.853   3.314  0.7127 -0.3368 -0.8120
 8348TIP3   OH246458   1.793   2.634   4.805 -0.1439 -0.1588 -0.2551
 8348TIP3    H146459   1.835   2.547   4.805  0.5295  0.1512 -1.1424
 8348TIP3    H246460   1.709   2.620   4.849  0.7878 -0.8480  1.4225
 8349TIP3   OH246461   6.214   6.387  12.353 -0.4975 -1.1752  0.4492
 8349TIP3    H146462   6.119   6.377  12.356 -0.9087  1.2059 -1.5700
 8349TIP3    H246463   6.229   6.481  12.344  2.1306 -1.3819  1.7635
 8350TIP3   OH246464   3.486   0.131  13.995  0.2686  0.1649 -0.0772
 8350TIP3    H146465   3.514   0.040  13.984  2.4337  0.3296  2.9961
 8350TIP3    H246466   3.514   0.174  13.915  4.7325 -0.7592  0.7138
 8351TIP3   OH246467   4.779   0.096   2.227 -0.3014  0.3571 -0.2948
 8351TIP3    H146468   4.783   0.010   2.269  1.0973 -0.3369 -1.7713
 8351TIP3    H246469   4.686   0.120   2.230 -0.4581 -0.3281  1.7984
 8352TIP3   OH246470   6.035   5.386   3.460 -0.1862  0.4395 -0.2042
 8352TIP3    H146471   5.972   5.324   3.496  0.5999 -0.4644 -0.3509
 8352TIP3    H246472   6.008   5.398   3.369 -0.7123  0.8087 -0.0031
 8353TIP3   OH246473   0.269   5.413   4.533  0.2257  0.3424 -0.6786
 8353TIP3    H146474   0.270   5.322   4.505 -1.5042 -0.1130  0.5533
 8353TIP3    H246475   0.307   5.412   4.621 -0.8000  0.6170 -0.2177
 8354TIP3   OH246476   1.830   3.959   2.474  0.0439  0.5066 -0.3423
 8354TIP3    H146477   1.787   4.034   2.516 -2.1971  0.2895 -2.0386
 8354TIP3    H246478   1.798   3.883   2.523  0.9556  0.5246  0.2994
 8355TIP3   OH246479   5.320   4.336  13.404 -0.0008  0.4025  0.1041
 8355TIP3    H146480   5.316   4.312  13.312 -0.6189  1.5943 -0.1971
 8355TIP3    H246481   5.241   4.299  13.443  0.3136 -0.1924  0.1953
 8356TIP3   OH246482   4.390   6.815   2.315  0.4046  0.6602  0.6720
 8356TIP3    H146483   4.462   6.809   2.378 -0.6656 -1.3804  1.8208
 8356TIP3    H246484   4.423   6.771   2.237 -0.5159 -3.3530  2.2877
 8357TIP3   OH246485   4.484   4.178  11.026 -0.5396  0.7867 -0.5588
 8357TIP3    H146486   4.503   4.270  11.011 -1.8125  0.9428 -1.4271
 8357TIP3    H246487   4.389   4.175  11.038 -0.2620 -0.1020  2.0778
 8358TIP3   OH246488   6.891   0.590   2.201 -0.3743  0.0204 -0.2736
 8358TIP3    H146489   6.841   0.512   2.176 -1.1746  0.6774 -0.7716
 8358TIP3    H246490   6.920   0.572   2.290 -0.0675 -1.0820 -0.5797
 8359TIP3   OH246491   4.254   2.932  15.251 -0.7653 -0.3591 -0.2069
 8359TIP3    H146492   4.245   2.878  15.172  0.6339 -0.8687 -0.0372
 8359TIP3    H246493   4.335   2.902  15.292 -0.9469  0.5926  0.9027
 8360TIP3   OH246494   4.946   1.554  13.711  0.4729 -0.6347 -0.0162
 8360TIP3    H146495   4.887   1.629  13.701  0.8882 -0.1138  1.1788
 8360TIP3    H246496   4.895   1.491  13.762  1.0047 -0.0683  1.2665
 8361TIP3   OH246497   4.176   3.310  15.086 -0.2496 -0.1409 -0.3317
 8361TIP3    H146498   4.144   3.265  15.008  0.6842  0.1709 -0.9047
 8361TIP3    H246499   4.128   3.392  15.087 -0.1966 -0.1038 -0.6364
 8362TIP3   OH246500   2.023   2.490  11.545 -0.8687 -0.4114 -0.3161
 8362TIP3    H146501   2.066   2.499  11.460  1.2564 -1.7970  0.5285
 8362TIP3    H246502   1.937   2.531  11.533 -0.3659  0.0570 -2.8969
 8363TIP3   OH246503   1.068   0.442   2.878 -0.0970 -0.2870 -0.0107
 8363TIP3    H146504   1.041   0.393   2.800 -2.3690  0.7257  0.0474
 8363TIP3    H246505   1.099   0.526   2.844 -0.7542  0.0175  0.1097
 8364TIP3   OH246506   1.029   3.384   2.196 -0.7391 -0.1457 -0.4520
 8364TIP3    H146507   0.981   3.349   2.271 -0.1475  0.0208  0.0101
 8364TIP3    H246508   1.121   3.366   2.216 -0.3656  2.0158  0.0028
 8365TIP3   OH246509   2.088   0.365   2.810  0.1965 -0.0975 -0.2428
 8365TIP3    H146510   2.041   0.444   2.835  1.3827  0.9524 -1.2170
 8365TIP3    H246511   2.054   0.297   2.869 -0.4075  1.2523  1.0246
 8366TIP3   OH246512   2.771   6.418  15.064  0.1616  0.1220  0.5215
 8366TIP3    H146513   2.820   6.500  15.074 -0.0514  0.3486 -0.2466
 8366TIP3    H246514   2.680   6.442  15.081  0.3481 -0.4231  2.5817
 8367TIP3   OH246515   5.115   0.438   0.504  0.0288 -0.0468  0.3725
 8367TIP3    H146516   5.133   0.408   0.593 -1.0617  2.2827  1.4722
 8367TIP3    H246517   5.038   0.493   0.513 -0.6292 -0.4452 -2.1979
 8368TIP3   OH246518   0.808   2.883  11.258 -0.2748  0.1495 -0.4299
 8368TIP3    H146519   0.893   2.918  11.282  0.2722 -1.0250 -0.5485
 8368TIP3    H246520   0.790   2.919  11.172 -0.7757  1.8649  0.3511
 8369TIP3   OH246521   1.111   4.458  16.270 -0.5245  0.2544  0.0136
 8369TIP3    H146522   1.129   4.530  16.209  1.4238 -1.2603 -1.3117
 8369TIP3    H246523   1.197   4.428  16.298 -1.3116 -1.2283  0.9780
 8370TIP3   OH246524   5.799   3.396   0.908 -0.4558 -0.1210  0.6214
 8370TIP3    H146525   5.725   3.457   0.921  0.4610  0.8915  1.2575
 8370TIP3    H246526   5.869   3.433   0.962  0.6792 -0.7867 -0.3768
 8371TIP3   OH246527   1.370   3.256   0.190  0.1487 -0.3029  0.4264
 8371TIP3    H146528   1.316   3.218   0.121  0.7012  0.1247 -0.2527
 8371TIP3    H246529   1.399   3.340   0.155  0.2888  0.0066  1.2533
 8372TIP3   OH246530   6.292   1.902  12.039 -0.5160 -0.6087  0.6571
 8372TIP3    H146531   6.316   1.944  11.956 -0.3392 -3.0842 -0.6091
 8372TIP3    H246532   6.232   1.965  12.080  2.5323  2.6273  0.7226
 8373TIP3   OH246533   4.227   3.725   1.733  0.7618  0.0376 -0.0796
 8373TIP3    H146534   4.266   3.703   1.818 -0.4735 -4.2921 -0.4141
 8373TIP3    H246535   4.302   3.734   1.674  1.5388 -0.0674  0.8692
 8374TIP3   OH246536   5.109   6.412  15.704 -0.2439  0.1287  0.4649
 8374TIP3    H146537   5.177   6.384  15.765  0.1046  0.3344  0.1756
 8374TIP3    H246538   5.084   6.499  15.734  1.7485  1.3482 -1.1544
 8375TIP3   OH246539   2.817   5.233  12.406 -0.6995 -0.6696  0.1876
 8375TIP3    H146540   2.871   5.212  12.330 -0.4466  2.7061 -0.7274
 8375TIP3    H246541   2.875   5.281  12.465 -2.0252  0.9872  0.2446
 8376TIP3   OH246542   0.382   1.976  10.501 -0.1213  0.3549 -0.0843
 8376TIP3    H146543   0.292   2.010  10.495 -0.0981  0.5182  0.4095
 8376TIP3    H246544   0.396   1.964  10.595  0.6778  1.1615 -0.0906
 8377TIP3   OH246545   4.330   1.233   1.770  0.2511 -0.6834  0.1183
 8377TIP3    H146546   4.383   1.306   1.738 -2.4481  1.1379 -0.4712
 8377TIP3    H246547   4.334   1.242   1.866 -0.4935  0.6273  0.0504
 8378TIP3   OH246548   0.100   6.159   3.553 -0.2597  0.1773 -0.0561
 8378TIP3    H146549   0.159   6.217   3.602 -0.9818  1.6668 -0.9018
 8378TIP3    H246550   0.159   6.104   3.501  0.6044 -2.1717  3.0838
 8379TIP3   OH246551   3.387   1.632  11.577  0.0486  0.3946  0.1632
 8379TIP3    H146552   3.427   1.566  11.634 -0.7409 -2.6579 -2.4953
 8379TIP3    H246553   3.459   1.662  11.522 -0.0611 -0.1375 -0.2725
 8380TIP3   OH246554   5.345   0.460   6.090  0.5510  0.5238 -0.7323
 8380TIP3    H146555   5.325   0.380   6.140  1.1327  1.1086  0.4645
 8380TIP3    H246556   5.324   0.532   6.149 -0.5375  1.2956 -2.0161
 8381TIP3   OH246557   0.336   4.884   5.023  0.7685 -0.0239 -0.8360
 8381TIP3    H146558   0.387   4.945   4.970  1.3682 -0.1015 -0.3497
 8381TIP3    H246559   0.390   4.805   5.028  1.0651  0.2489  0.5202
 8382TIP3   OH246560   1.029   5.933  15.916 -0.2052  0.1624  0.4703
 8382TIP3    H146561   0.973   5.863  15.950  0.9292 -1.2483 -0.3974
 8382TIP3    H246562   1.023   5.924  15.821  2.3218 -0.8372  0.3185
 8383TIP3   OH246563   3.179   6.798   0.854 -0.2311 -0.1925  0.1540
 8383TIP3    H146564   3.182   6.774   0.947  0.2901  1.5794  0.6371
 8383TIP3    H246565   3.270   6.819   0.832 -0.5202  0.4814 -0.4330
 8384TIP3   OH246566   2.420   5.986  14.414 -0.0966  0.3019 -0.3054
 8384TIP3    H146567   2.407   5.893  14.432 -0.5026  0.7735  2.1005
 8384TIP3    H246568   2.508   5.991  14.376  0.4586 -0.9436  0.7506
 8385TIP3   OH246569   6.212   6.259  11.303 -0.1411 -0.3814 -0.1791
 8385TIP3    H146570   6.183   6.181  11.256  0.9259 -1.0253  0.1992
 8385TIP3    H246571   6.133   6.312  11.314 -1.8100 -3.1298  2.8726
 8386TIP3   OH246572   6.358   1.385   5.371 -0.1782  0.1309  0.2610
 8386TIP3    H146573   6.305   1.463   5.387  1.2393  0.8059  2.0689
 8386TIP3    H246574   6.404   1.404   5.289 -1.1844  0.3814 -0.2705
 8387TIP3   OH246575   4.547   5.460   3.071 -0.0646 -0.4906 -0.2679
 8387TIP3    H146576   4.579   5.511   2.996 -1.1896 -0.2246 -0.6031
 8387TIP3    H246577   4.602   5.488   3.144 -0.1400  0.6520 -0.6148
 8388TIP3   OH246578   2.092   1.217   3.441  0.1719 -0.0838  0.0529
 8388TIP3    H146579   2.110   1.197   3.349 -0.0270  1.5306 -0.3708
 8388TIP3    H246580   2.168   1.267   3.470  0.6525 -1.3481  1.0672
 8389TIP3   OH246581   6.792   1.409   5.198 -0.5214  0.0613 -0.0468
 8389TIP3    H146582   6.805   1.409   5.103 -0.1120  1.5883 -0.0135
 8389TIP3    H246583   6.749   1.493   5.216  2.0560  1.1690  1.4469
 8390TIP3   OH246584   0.797   4.371  15.268  0.0518 -0.0868  0.4074
 8390TIP3    H146585   0.745   4.331  15.338 -2.1500  0.7474 -0.6605
 8390TIP3    H246586   0.736   4.429  15.223  1.7570  0.4219 -1.3802
 8391TIP3   OH246587   2.745   2.561   3.304 -0.4241  0.1389  0.1092
 8391TIP3    H146588   2.688   2.494   3.342 -0.7135  1.3887  2.0328
 8391TIP3    H246589   2.827   2.552   3.352  0.4896 -0.5413 -1.4895
 8392TIP3   OH246590   3.157   5.727  12.530  0.7261  0.6409  0.3421
 8392TIP3    H146591   3.202   5.713  12.613 -0.0781 -2.3654  0.3994
 8392TIP3    H246592   3.076   5.676  12.538  1.4453 -1.2629 -2.8692
 8393TIP3   OH246593   3.492   4.451  11.859  0.3032  0.1514 -0.5571
 8393TIP3    H146594   3.579   4.486  11.882 -0.2367  1.1150  0.0803
 8393TIP3    H246595   3.496   4.359  11.885  1.2848  0.0624 -0.9598
 8394TIP3   OH246596   1.519   1.385  16.456  0.7497 -0.5609 -0.0962
 8394TIP3    H146597   1.589   1.342  16.505  0.2632 -0.9611  0.2560
 8394TIP3    H246598   1.527   1.478  16.478 -0.9791 -0.9756  2.7278
 8395TIP3   OH246599   2.080   2.955   1.516 -0.6083  0.2197 -0.4169
 8395TIP3    H146600   2.134   2.991   1.587 -0.8632 -1.9387  0.9589
 8395TIP3    H246601   2.090   3.018   1.444  2.8823  0.4912  0.1240
 8396TIP3   OH246602   4.393   0.789   3.479 -0.1210  0.4243  0.1861
 8396TIP3    H146603   4.437   0.863   3.520  0.7078 -0.0783  0.2305
 8396TIP3    H246604   4.464   0.739   3.439 -0.7744  0.2108 -0.7428
 8397TIP3   OH246605   3.448   5.910  13.046  0.3479  0.2700  0.6815
 8397TIP3    H146606   3.530   5.919  12.998  0.3081 -0.6150  0.4307
 8397TIP3    H246607   3.465   5.953  13.130  1.3779 -0.6794  0.9862
 8398TIP3   OH246608   3.971   3.187   0.717 -0.4742  0.0165 -0.0241
 8398TIP3    H146609   3.915   3.208   0.642  1.0580  0.4561 -1.0947
 8398TIP3    H246610   3.933   3.107   0.753 -1.1125 -0.3493 -1.4253
 8399TIP3   OH246611   1.940   3.727   3.272 -0.0913 -0.3661 -0.8367
 8399TIP3    H146612   2.014   3.704   3.328  0.1365  1.6680 -0.2146
 8399TIP3    H246613   1.884   3.650   3.273  0.7880 -1.0357  0.7419
 8400TIP3   OH246614   3.394   4.095   0.027  0.2532 -0.8903 -0.0153
 8400TIP3    H146615   3.417   4.034   0.097  2.1085 -1.5566 -1.1447
 8400TIP3    H246616   3.427   4.180   0.058  2.2231 -1.4140 -0.5975
 8401TIP3   OH246617   5.018   5.278   4.333 -0.1461 -0.1585 -0.3079
 8401TIP3    H146618   4.926   5.304   4.341 -0.6082 -1.9868  0.9104
 8401TIP3    H246619   5.067   5.360   4.344 -1.5611  0.5663  1.0407
 8402TIP3   OH246620   3.448   0.798  11.510 -0.5217 -0.2264 -0.1915
 8402TIP3    H146621   3.485   0.721  11.554 -0.0428 -0.7524 -1.4706
 8402TIP3    H246622   3.366   0.815  11.556 -0.5459 -1.3969  0.2282
 8403TIP3   OH246623   0.334   6.670   2.298  0.0434 -0.5623  0.5415
 8403TIP3    H146624   0.287   6.605   2.351 -1.5166 -1.7432 -2.0675
 8403TIP3    H246625   0.393   6.617   2.244  0.0640  0.3784 -0.3691
 8404TIP3   OH246626   2.816   4.555  15.371 -0.0437 -0.1532 -0.1461
 8404TIP3    H146627   2.857   4.601  15.444 -2.6449 -1.3166  2.2345
 8404TIP3    H246628   2.727   4.590  15.366 -0.4528 -1.2590 -1.6805
 8405TIP3   OH246629   3.071   5.247  11.899  0.0660 -0.0033  0.0847
 8405TIP3    H146630   3.018   5.252  11.820 -3.0877  2.1820  2.1260
 8405TIP3    H246631   3.008   5.243  11.971  2.7473 -1.1995  2.6138
 8406TIP3   OH246632   1.015   1.979  14.485  0.3845  0.2887 -0.5845
 8406TIP3    H146633   1.033   1.909  14.423 -0.2299 -1.8513  1.5318
 8406TIP3    H246634   1.049   1.947  14.569  0.4094  2.6825  0.4068
 8407TIP3   OH246635   1.416   1.544   4.172 -0.2640 -0.4809  0.3017
 8407TIP3    H146636   1.335   1.578   4.134  0.2377  0.2287 -0.1637
 8407TIP3    H246637   1.404   1.556   4.267 -0.1821  0.8464  0.1647
 8408TIP3   OH246638   0.835   4.149   5.413  0.0775 -0.3077 -0.6561
 8408TIP3    H146639   0.774   4.195   5.472  1.9131  0.3899  0.8115
 8408TIP3    H246640   0.902   4.114   5.472 -0.1613 -3.1991 -1.9513
 8409TIP3   OH246641   2.709   4.040  11.561  0.0299  0.1281 -0.0809
 8409TIP3    H146642   2.692   4.098  11.636 -1.9131 -0.8097  0.2582
 8409TIP3    H246643   2.707   4.099  11.485 -0.1274  0.7715  0.4105
 8410TIP3   OH246644   3.438   2.542   0.206  0.0213 -0.2942  0.4619
 8410TIP3    H146645   3.493   2.468   0.230 -1.4744 -1.4078  0.6192
 8410TIP3    H246646   3.389   2.562   0.286  0.0001  0.5148  0.2588
 8411TIP3   OH246647   0.220   2.035  13.736  0.3396  0.0281  0.1498
 8411TIP3    H146648   0.296   2.025  13.793  0.4959 -2.5995 -0.3981
 8411TIP3    H246649   0.148   1.996  13.786 -0.2113  0.5841 -0.1954
 8412TIP3   OH246650   5.605   4.066  11.280  0.3641  0.0928  0.0779
 8412TIP3    H146651   5.538   4.042  11.343 -0.6298  2.7834  0.2076
 8412TIP3    H246652   5.630   4.156  11.304  1.6677  0.3448 -1.9174
 8413TIP3   OH246653   4.844   3.267  14.652 -0.0889 -0.0894  0.1319
 8413TIP3    H146654   4.861   3.305  14.737 -2.8193  0.6591  0.4097
 8413TIP3    H246655   4.921   3.212  14.635  1.5937  1.5572  1.9743
 8414TIP3   OH246656   6.377   0.457  16.706 -1.0451  0.1363 -0.1856
 8414TIP3    H146657   6.303   0.511  16.733 -0.9701  0.9423 -1.5305
 8414TIP3    H246658   6.349   0.367  16.724 -0.8288  0.5646  2.9566
 8415TIP3   OH246659   1.635   2.968   4.406  0.0304  0.3549  0.6838
 8415TIP3    H146660   1.710   2.928   4.362 -0.3504  0.3013  0.0784
 8415TIP3    H246661   1.657   2.965   4.499  0.2089 -0.8378  0.6132
 8416TIP3   OH246662   1.838   0.657  12.236 -0.3531  0.9043  0.3434
 8416TIP3    H146663   1.844   0.655  12.332 -1.5827  1.8592  0.4680
 8416TIP3    H246664   1.744   0.652  12.218 -0.0420 -1.7580 -0.9351
 8417TIP3   OH246665   6.240   6.135   3.823  0.2178 -0.6402  0.0621
 8417TIP3    H146666   6.233   6.228   3.801 -2.4044 -0.8242 -0.2675
 8417TIP3    H246667   6.153   6.112   3.856  0.9394 -2.8739  0.5644
 8418TIP3   OH246668   6.500   1.944   3.611 -0.0533  0.5391  0.1608
 8418TIP3    H146669   6.561   1.897   3.668  0.5004  1.0855  0.0313
 8418TIP3    H246670   6.523   1.916   3.523 -2.7475 -2.5121  0.2589
 8419TIP3   OH246671   3.272   1.370  11.086 -0.3088 -0.2086 -0.2874
 8419TIP3    H146672   3.353   1.402  11.046  0.3234 -2.4305 -0.9027
 8419TIP3    H246673   3.274   1.404  11.176  1.8454 -1.0677  0.0336
 8420TIP3   OH246674   3.853   1.853   4.409 -0.2860  0.2594 -0.2896
 8420TIP3    H146675   3.925   1.806   4.452 -1.0848 -0.6387  0.1161
 8420TIP3    H246676   3.883   1.864   4.319  0.6740  0.5807  0.0565
 8421TIP3   OH246677   1.193   3.090  10.378 -0.0673  0.0895 -0.0736
 8421TIP3    H146678   1.255   3.018  10.363  0.1136  0.3764 -0.7502
 8421TIP3    H246679   1.242   3.169  10.355 -0.0822  0.4877  1.2155
 8422TIP3   OH246680   0.071   0.779   2.021  0.1727 -0.1947 -0.5595
 8422TIP3    H146681   0.166   0.782   2.012  0.4749  0.8113  2.0065
 8422TIP3    H246682   0.056   0.707   2.082 -0.6363  0.0965 -0.4099
 8423TIP3   OH246683   4.790   3.195  12.179 -0.4801 -0.3279 -0.1039
 8423TIP3    H146684   4.756   3.232  12.098  0.4244 -0.5488 -0.5946
 8423TIP3    H246685   4.790   3.268  12.241 -1.0975 -0.1416 -0.3139
 8424TIP3   OH246686   0.510   0.743   4.664  0.0746 -0.3728 -0.3716
 8424TIP3    H146687   0.473   0.730   4.577 -1.0706  0.2688 -0.0071
 8424TIP3    H246688   0.463   0.682   4.720 -0.1743  0.1682  0.0262
 8425TIP3   OH246689   3.995   6.781   5.309  0.4553 -0.1683 -0.0616
 8425TIP3    H146690   3.982   6.862   5.357 -2.5726 -0.4794 -0.1539
 8425TIP3    H246691   4.077   6.746   5.342  1.0686  2.1649  1.0674
 8426TIP3   OH246692   1.380   0.158  14.567  0.1268 -0.2117 -0.6187
 8426TIP3    H146693   1.304   0.204  14.529  0.3166 -0.0332 -0.7879
 8426TIP3    H246694   1.390   0.080  14.512 -0.2321 -0.4912 -0.2952
 8427TIP3   OH246695   0.005   0.389   3.512  0.6907 -0.1877 -0.2811
 8427TIP3    H146696   0.013   0.304   3.556  0.0394 -0.3942 -0.5484
 8427TIP3    H246697   0.028   0.372   3.421 -0.1121 -0.2402 -0.4891
 8428TIP3   OH246698   2.948   2.026  14.250  0.2510  0.4529  0.0973
 8428TIP3    H146699   2.874   2.081  14.275  0.9773  1.5384 -0.0591
 8428TIP3    H246700   2.922   1.986  14.167  1.0971  3.5262 -1.8288
 8429TIP3   OH246701   4.439   2.463  12.059  0.3928  0.4068 -0.7689
 8429TIP3    H146702   4.518   2.418  12.029  1.5271 -0.0066  2.4046
 8429TIP3    H246703   4.380   2.461  11.984  1.8331 -2.9726 -2.0199
 8430TIP3   OH246704   5.679   1.474   5.392  0.0062  0.1538 -0.1383
 8430TIP3    H146705   5.584   1.483   5.400  0.1172  0.9626  0.3579
 8430TIP3    H246706   5.704   1.416   5.464 -0.1974 -0.7368 -0.7626
 8431TIP3   OH246707   3.803   6.143   4.833  0.7500 -0.5772 -0.4862
 8431TIP3    H146708   3.735   6.081   4.807  0.6367  0.0187 -1.6954
 8431TIP3    H246709   3.764   6.193   4.904 -0.3587  0.2172 -1.6177
 8432TIP3   OH246710   6.863   6.797  15.067  0.3308  0.7434 -0.0084
 8432TIP3    H146711   6.842   6.709  15.098  0.9362  0.1800 -1.1166
 8432TIP3    H246712   6.882   6.847  15.146 -0.1087 -0.1024  0.6453
 8433TIP3   OH246713   1.455   3.030   3.675  0.7544  0.0208 -0.5200
 8433TIP3    H146714   1.549   3.046   3.666  1.0738 -1.8806 -0.9580
 8433TIP3    H246715   1.448   2.937   3.697 -0.9481  0.5602  1.6162
 8434TIP3   OH246716   5.695   1.504  15.280 -0.2989 -0.0536 -0.1310
 8434TIP3    H146717   5.715   1.597  15.285 -1.1198  0.2867 -2.0315
 8434TIP3    H246718   5.751   1.471  15.209  1.0288 -1.3538  1.4473
 8435TIP3   OH246719   0.423   3.702  11.696 -0.0401 -0.4281  0.1211
 8435TIP3    H146720   0.451   3.664  11.613 -1.1638 -1.0829  0.0286
 8435TIP3    H246721   0.505   3.722  11.741  0.6048 -2.0890 -0.2237
 8436TIP3   OH246722   2.553   5.305   4.283 -0.2891 -0.0735  0.4403
 8436TIP3    H146723   2.623   5.363   4.252  1.1318 -2.0189 -0.1796
 8436TIP3    H246724   2.472   5.347   4.253  0.7482  0.9246 -1.1063
 8437TIP3   OH246725   4.324   5.015  14.348  0.4160  0.1682 -0.5867
 8437TIP3    H146726   4.346   5.057  14.431  0.4440 -1.5299  0.3022
 8437TIP3    H246727   4.397   5.036  14.290 -0.5888  3.1893 -0.9488
 8438TIP3   OH246728   0.972   1.677  16.102  0.3562 -0.4035 -0.5472
 8438TIP3    H146729   1.038   1.746  16.096 -1.0411  1.1816  1.0168
 8438TIP3    H246730   0.897   1.710  16.052 -0.6238 -0.3748  0.8743
 8439TIP3   OH246731   3.821   6.097  11.357 -0.0112 -0.1410 -0.1763
 8439TIP3    H146732   3.913   6.123  11.342  0.4063 -1.3758  0.1523
 8439TIP3    H246733   3.771   6.151  11.295  0.9909  0.1170 -0.7888
 8440TIP3   OH246734   0.767   1.354  15.360  0.4364  0.5165  0.5675
 8440TIP3    H146735   0.759   1.435  15.309  0.9862  0.6470  0.6893
 8440TIP3    H246736   0.844   1.311  15.325 -0.6575 -0.6704 -0.4896
 8441TIP3   OH246737   0.392   2.485  14.063 -0.3364 -0.6676  0.4131
 8441TIP3    H146738   0.322   2.424  14.041 -1.0896  0.4229 -0.3633
 8441TIP3    H246739   0.452   2.480  13.989 -1.0094  0.3493 -0.2420
 8442TIP3   OH246740   1.940   0.743   0.969  0.2992 -0.0624 -0.0716
 8442TIP3    H146741   1.961   0.658   0.933 -0.1875  0.4891 -1.7330
 8442TIP3    H246742   1.856   0.731   1.013 -1.0648  0.0529 -2.4584
 8443TIP3   OH246743   0.883   5.072  12.370 -0.3090 -0.1216 -0.2342
 8443TIP3    H146744   0.795   5.037  12.384 -0.2164  0.0338  0.8157
 8443TIP3    H246745   0.942   5.001  12.395 -0.1365  0.2943  0.6098
 8444TIP3   OH246746   3.913   6.290   0.187 -0.1961 -0.2249  0.3330
 8444TIP3    H146747   3.984   6.346   0.218 -1.0172  0.5880  0.8179
 8444TIP3    H246748   3.907   6.221   0.254 -0.9125  0.6265  1.1836
 8445TIP3   OH246749   2.117   3.715   3.459  0.3034 -0.6945  0.4663
 8445TIP3    H146750   2.064   3.738   3.535  0.0401  1.1834 -0.2309
 8445TIP3    H246751   2.191   3.776   3.461 -0.1088 -0.0737 -1.1682
 8446TIP3   OH246752   6.460   1.884   2.069  0.4793 -0.4101 -0.3140
 8446TIP3    H146753   6.524   1.814   2.081  0.8989 -0.2898 -1.6499
 8446TIP3    H246754   6.460   1.900   1.975  0.4694  1.4681 -0.0351
 8447TIP3   OH246755   2.034   2.445   4.606  0.2845  0.0672 -0.4084
 8447TIP3    H146756   2.016   2.421   4.696  0.3930 -2.2263 -0.9374
 8447TIP3    H246757   2.125   2.473   4.606 -0.0808  1.3085  0.3860
 8448TIP3   OH246758   4.630   2.488  13.610  0.0066 -0.7267 -0.2860
 8448TIP3    H146759   4.569   2.427  13.568  1.0046 -0.5467 -2.0911
 8448TIP3    H246760   4.703   2.433  13.637 -0.2252 -0.6979  0.4143
 8449TIP3   OH246761   1.139   6.517   5.241  0.2277  0.2800 -0.5769
 8449TIP3    H146762   1.048   6.540   5.258  0.2149 -0.0419 -0.1772
 8449TIP3    H246763   1.135   6.446   5.177  0.1446 -0.3998  0.1609
 8450TIP3   OH246764   0.708   2.366   1.410 -0.1093  0.4050 -0.1411
 8450TIP3    H146765   0.768   2.436   1.434 -1.6574  0.8016  3.0333
 8450TIP3    H246766   0.763   2.301   1.366  2.3398  1.3893  1.2713
 8451TIP3   OH246767   4.872   0.103   3.821  0.0918 -0.5377 -0.0511
 8451TIP3    H146768   4.887   0.135   3.732 -0.9493 -2.5715 -1.0191
 8451TIP3    H246769   4.932   0.029   3.831 -0.5583 -1.0024  0.5440
 8452TIP3   OH246770   4.829   1.839  13.039  0.3287  0.4975 -0.1996
 8452TIP3    H146771   4.921   1.815  13.048  0.9156  0.4306 -4.4870
 8452TIP3    H246772   4.826   1.933  13.056  0.7179  0.1812  1.9151
 8453TIP3   OH246773   6.648   6.485  12.442  0.5776 -0.2488  0.6756
 8453TIP3    H146774   6.647   6.420  12.511 -0.7264  1.4201  2.3325
 8453TIP3    H246775   6.563   6.478  12.400  0.0129  0.9992  1.5406
 8454TIP3   OH246776   3.740   4.001  14.683  0.2185 -0.0760 -0.6310
 8454TIP3    H146777   3.701   4.036  14.603 -1.6893  1.2246  0.7518
 8454TIP3    H246778   3.699   3.915  14.694 -0.0161  0.0232 -0.7233
 8455TIP3   OH246779   4.231   1.947   2.554 -0.0143 -0.4039  0.5525
 8455TIP3    H146780   4.191   1.900   2.627 -0.8060 -1.6920 -0.6701
 8455TIP3    H246781   4.302   1.998   2.594 -1.0346 -0.3288  2.3410
 8456TIP3   OH246782   6.195   6.607  12.629  0.0904 -0.4361  0.2157
 8456TIP3    H146783   6.273   6.579  12.678  0.8857  0.8084 -0.2840
 8456TIP3    H246784   6.204   6.702  12.621 -1.3501 -0.2998 -0.1048
 8457TIP3   OH246785   0.759   2.829   1.742 -0.6094  0.6274  1.0142
 8457TIP3    H146786   0.719   2.908   1.705  0.8516  1.3704  0.9386
 8457TIP3    H246787   0.849   2.856   1.763 -0.3978 -0.7341  1.9563
 8458TIP3   OH246788   5.768   2.796  12.234 -0.3259 -0.1091 -0.4161
 8458TIP3    H146789   5.726   2.740  12.299 -1.0570 -1.1709 -1.7686
 8458TIP3    H246790   5.741   2.760  12.150  2.7632 -0.4333 -1.3836
 8459TIP3   OH246791   6.849   4.088  12.935 -0.2648  0.1700 -0.2197
 8459TIP3    H146792   6.777   4.131  12.889 -0.9207  0.5814  1.1211
 8459TIP3    H246793   6.817   4.077  13.025  0.7914 -0.9918  0.0518
 8460TIP3   OH246794   1.293   5.159  13.774 -0.0370  0.0148  0.1523
 8460TIP3    H146795   1.212   5.138  13.727  1.2375  1.1026 -2.7729
 8460TIP3    H246796   1.266   5.219  13.843 -1.8663 -0.7149  0.1408
 8461TIP3   OH246797   1.958   2.072   4.410  0.4438  0.1072  0.0679
 8461TIP3    H146798   1.874   2.058   4.367  2.0561 -0.7452 -3.1150
 8461TIP3    H246799   1.974   2.166   4.399  0.3116  0.1075 -0.1384
 8462TIP3   OH246800   2.420   1.967   3.336  0.1097  0.1295  0.1052
 8462TIP3    H146801   2.381   1.880   3.338 -1.0433  0.6396  1.7852
 8462TIP3    H246802   2.403   1.999   3.247 -1.5382 -0.4636  0.1715
 8463TIP3   OH246803   3.323   0.184   2.223 -0.6560 -0.0859  0.1586
 8463TIP3    H146804   3.273   0.156   2.146  0.8380 -0.8375 -0.5883
 8463TIP3    H246805   3.272   0.152   2.297 -2.1348  0.6630 -0.5011
 8464TIP3   OH246806   2.339   3.873  14.314  0.3865 -0.0830  0.7096
 8464TIP3    H146807   2.326   3.888  14.221  0.8946  1.0487  0.8082
 8464TIP3    H246808   2.282   3.798  14.335  0.8035 -0.8042 -0.6318
 8465TIP3   OH246809   1.595   4.454   4.685  0.0579 -0.0296 -0.1874
 8465TIP3    H146810   1.546   4.534   4.706  1.8651  0.9122  0.6768
 8465TIP3    H246811   1.533   4.383   4.701 -1.5023  1.1594 -0.6756
 8466TIP3   OH246812   3.305   6.766   3.088  0.0472  0.2920 -0.1617
 8466TIP3    H146813   3.243   6.694   3.100  0.6508 -0.1112  0.6557
 8466TIP3    H246814   3.274   6.811   3.010 -0.7908 -0.3952 -0.2474
 8467TIP3   OH246815   1.563   1.212  13.162 -0.7184 -0.2829 -0.4115
 8467TIP3    H146816   1.628   1.274  13.129 -1.9547  1.6114  0.4759
 8467TIP3    H246817   1.507   1.194  13.087 -0.4715 -0.1308 -0.6343
 8468TIP3   OH246818   1.346   5.485   3.222 -0.2923 -0.0904  0.1319
 8468TIP3    H146819   1.290   5.435   3.282 -1.3104 -0.4729 -1.0888
 8468TIP3    H246820   1.293   5.561   3.198 -0.9666 -1.2016 -2.1923
 8469TIP3   OH246821   3.922   1.950  11.877 -0.5123  0.2361  0.1216
 8469TIP3    H146822   3.911   2.033  11.923 -2.1664  0.6154 -0.8671
 8469TIP3    H246823   3.985   1.969  11.808  1.0304 -0.0186  1.4034
 8470TIP3   OH246824   5.117   0.460  14.358 -0.1595 -0.0140  0.2786
 8470TIP3    H146825   5.117   0.387  14.296  1.7995 -0.9658  1.3196
 8470TIP3    H246826   5.149   0.423  14.440  1.4320  2.0992  0.7133
 8471TIP3   OH246827   1.602   1.470   0.729  0.3433 -0.2451 -0.0323
 8471TIP3    H146828   1.678   1.425   0.766 -1.1870 -1.7585  1.3776
 8471TIP3    H246829   1.552   1.402   0.685 -1.1120  0.3784  0.5867
 8472TIP3   OH246830   5.922   5.728   3.393 -0.0500 -0.3237  0.3268
 8472TIP3    H146831   5.995   5.690   3.440  2.0191  0.5585 -1.9756
 8472TIP3    H246832   5.855   5.744   3.460  2.2638 -0.1293  2.7173
 8473TIP3   OH246833   0.266   0.436   2.128  0.1550  0.3193 -0.0856
 8473TIP3    H146834   0.221   0.515   2.160  0.8854  0.6653  0.0971
 8473TIP3    H246835   0.252   0.371   2.197 -0.6939  0.1845 -0.3632
 8474TIP3   OH246836   2.666   1.415   0.796  0.1126  0.4014  0.2873
 8474TIP3    H146837   2.599   1.435   0.730  0.9015  0.4242 -0.5164
 8474TIP3    H246838   2.665   1.491   0.854  0.9045  1.3941 -0.9457
 8475TIP3   OH246839   4.992   6.235   3.010  0.0093 -0.0228  0.0716
 8475TIP3    H146840   4.903   6.219   3.039  0.0887 -2.9821 -0.9448
 8475TIP3    H246841   4.983   6.286   2.930 -0.7982 -0.4215 -0.0985
 8476TIP3   OH246842   2.182   4.166   4.662  0.4920  0.1998 -0.4650
 8476TIP3    H146843   2.144   4.252   4.641 -2.1451 -0.7336  0.0302
 8476TIP3    H246844   2.175   4.159   4.757 -1.3889 -1.3242 -0.6323
 8477TIP3   OH246845   2.434   0.085  15.714 -0.4160 -0.8924 -0.3048
 8477TIP3    H146846   2.470   0.173  15.705 -1.1259 -0.6922 -1.3558
 8477TIP3    H246847   2.510   0.029  15.730  0.0083 -0.0641  0.6477
 8478TIP3   OH246848   0.620   0.404   4.938  0.2341 -0.0147  0.2565
 8478TIP3    H146849   0.646   0.496   4.942  0.5418 -0.1253  1.0446
 8478TIP3    H246850   0.701   0.358   4.916  0.0558 -0.0935 -0.2496
 8479TIP3   OH246851   2.693   6.325  15.762  0.3339 -0.5306  0.1218
 8479TIP3    H146852   2.600   6.349  15.756  0.6631  0.9704  0.6064
 8479TIP3    H246853   2.695   6.255  15.828 -0.3902 -0.1869  0.5189
 8480TIP3   OH246854   2.085   4.473  15.467  0.6151  0.1364  0.6204
 8480TIP3    H146855   2.095   4.559  15.508 -1.7990  1.4479 -1.2831
 8480TIP3    H246856   2.027   4.425  15.526 -1.1762  1.2709 -0.1560
 8481TIP3   OH246857   5.627   2.647   0.310  0.2223 -0.0729 -0.4653
 8481TIP3    H146858   5.681   2.706   0.257  2.4978 -0.4009  1.2983
 8481TIP3    H246859   5.543   2.691   0.319  0.3393  0.7826 -2.8179
 8482TIP3   OH246860   2.352   2.421  16.607 -0.0383 -0.3131  0.3625
 8482TIP3    H146861   2.281   2.485  16.608 -0.0190 -0.2448 -0.8735
 8482TIP3    H246862   2.428   2.470  16.640  0.3278  0.7991 -1.9004
 8483TIP3   OH246863   4.802   3.004  15.640 -0.3635  0.1729  0.2225
 8483TIP3    H146864   4.861   2.949  15.589  0.0484 -1.2602  2.1301
 8483TIP3    H246865   4.749   3.049  15.575  0.7083 -0.8942 -1.4662
 8484TIP3   OH246866   0.839   4.379   0.944 -0.0410  0.3432  0.0920
 8484TIP3    H146867   0.828   4.324   0.867  0.6209  1.1085 -0.5697
 8484TIP3    H246868   0.885   4.324   1.007 -0.3641 -0.2059 -0.1440
 8485TIP3   OH246869   3.548   0.911   5.612 -0.2690 -0.3077 -0.0137
 8485TIP3    H146870   3.509   0.967   5.678 -0.0672  0.3446 -0.4335
 8485TIP3    H246871   3.549   0.824   5.651  0.8195  0.2404  1.2634
 8486TIP3   OH246872   1.449   1.493  12.913  0.0499 -0.3186  0.2697
 8486TIP3    H146873   1.492   1.414  12.946  0.5247 -0.2102 -0.0754
 8486TIP3    H246874   1.467   1.560  12.979 -0.4092 -0.5109  0.5955
 8487TIP3   OH246875   1.584   3.127   0.369  0.3571 -0.1262  0.3642
 8487TIP3    H146876   1.601   3.213   0.407  0.3229  0.3582 -0.6570
 8487TIP3    H246877   1.523   3.145   0.297  0.4113 -0.9932  0.0917
 8488TIP3   OH246878   6.202   0.562  14.850  0.3568  0.3591  0.2015
 8488TIP3    H146879   6.121   0.512  14.845 -0.5049  1.6250  0.9772
 8488TIP3    H246880   6.218   0.572  14.944  1.5863 -0.1318  0.0644
 8489TIP3   OH246881   3.271   1.197   2.147 -0.0211  0.0086 -0.0648
 8489TIP3    H146882   3.216   1.214   2.224  1.1081  2.8854  0.2076
 8489TIP3    H246883   3.272   1.101   2.140 -1.0409 -0.3283  2.8257
 8490TIP3   OH246884   5.285   3.381  11.268 -0.1905  0.2331 -0.1913
 8490TIP3    H146885   5.293   3.298  11.222  1.3407  0.1669  0.1431
 8490TIP3    H246886   5.313   3.362  11.357 -0.5368  0.9529  0.0782
 8491TIP3   OH246887   3.326   1.373  11.363 -0.1688  0.2756  0.7130
 8491TIP3    H146888   3.402   1.430  11.349  0.1435 -0.0943  0.8714
 8491TIP3    H246889   3.331   1.348  11.455  1.5290 -2.5268 -0.0024
 8492TIP3   OH246890   5.819   0.118  10.629 -0.5233 -0.5493  0.4821
 8492TIP3    H146891   5.799   0.208  10.605  0.4045 -0.6248 -0.6925
 8492TIP3    H246892   5.893   0.094  10.573  0.1051 -1.6136  1.6934
 8493TIP3   OH246893   6.174   1.297   0.408 -0.1260 -0.3030 -0.4347
 8493TIP3    H146894   6.103   1.358   0.388  0.6617  0.7109 -0.1995
 8493TIP3    H246895   6.206   1.323   0.494  0.3961 -0.8900 -0.4373
 8494TIP3   OH246896   4.126   2.105  10.072 -0.5689 -0.3390 -0.4911
 8494TIP3    H146897   4.038   2.079  10.043 -0.5926  0.2176 -0.9412
 8494TIP3    H246898   4.126   2.088  10.166 -2.2688  2.6421  0.1632
 8495TIP3   OH246899   1.724   1.941   1.590 -0.5533  0.3018 -0.7142
 8495TIP3    H146900   1.800   1.969   1.642 -0.1560  1.2635 -1.7864
 8495TIP3    H246901   1.653   1.936   1.654  0.3015 -0.2098  0.2385
 8496TIP3   OH246902   1.686   1.998   2.378 -0.7190 -0.2931  0.1534
 8496TIP3    H146903   1.739   1.926   2.343 -1.0665 -0.8451  0.7379
 8496TIP3    H246904   1.618   1.955   2.430 -0.6931  0.4784  0.8485
 8497TIP3   OH246905   2.497   6.682   0.599 -0.3938 -0.1991 -0.0953
 8497TIP3    H146906   2.532   6.769   0.619  0.3946 -0.5051 -0.1309
 8497TIP3    H246907   2.508   6.673   0.504  2.8659 -1.7196  0.2935
 8498TIP3   OH246908   3.824   1.808  11.309 -0.0211 -0.1759 -0.5064
 8498TIP3    H146909   3.875   1.881  11.344 -0.6717 -0.1435  0.4236
 8498TIP3    H246910   3.803   1.755  11.386 -1.1123 -0.3526 -0.9053
 8499TIP3   OH246911   0.022   0.103   5.750 -0.2004 -0.0617 -0.0610
 8499TIP3    H146912   0.033   0.189   5.790 -0.1227 -0.2590  0.3593
 8499TIP3    H246913  -0.011   0.048   5.822  2.9641 -1.2225  0.6924
 8500TIP3   OH246914   0.577   6.640  15.806 -0.2587 -0.0772  0.0083
 8500TIP3    H146915   0.564   6.732  15.831 -0.6780 -0.5332  1.5879
 8500TIP3    H246916   0.665   6.638  15.769  0.6185  0.6314  1.8800
 8501TIP3   OH246917   3.806   0.777  15.679  0.0270  0.2914 -0.1212
 8501TIP3    H146918   3.866   0.730  15.738  1.0147  2.1597  0.4346
 8501TIP3    H246919   3.828   0.744  15.592  0.2741 -0.7063  0.3037
 8502TIP3   OH246920   0.861   1.479   5.402 -0.0501  0.2313 -0.4007
 8502TIP3    H146921   0.919   1.547   5.435 -2.9824  1.0233  3.8890
 8502TIP3    H246922   0.789   1.527   5.360 -0.6817 -0.3215  0.0179
 8503TIP3   OH246923   3.045   2.385   4.154 -0.0762  0.1043  0.3637
 8503TIP3    H146924   3.096   2.322   4.205  2.8312  1.7984 -0.1893
 8503TIP3    H246925   3.041   2.464   4.209  1.4361  1.3029 -1.1211
 8504TIP3   OH246926   1.243   4.717   0.011  0.1537 -0.0259  0.0023
 8504TIP3    H146927   1.270   4.687  -0.076 -0.8691 -0.1861 -0.2738
 8504TIP3    H246928   1.303   4.788   0.031 -0.0825  0.5337 -1.1824
 8505TIP3   OH246929   4.010   0.643  15.886 -0.3996  0.2191 -0.2457
 8505TIP3    H146930   4.064   0.565  15.898 -0.7703  0.1822  1.4447
 8505TIP3    H246931   4.009   0.685  15.972 -3.4874 -0.0971 -0.0148
 8506TIP3   OH246932   6.426   2.672  14.356  0.4411 -0.0489  0.1416
 8506TIP3    H146933   6.514   2.661  14.391  1.0853  3.4369 -0.0404
 8506TIP3    H246934   6.438   2.720  14.275 -1.5241 -2.1306 -1.5258
 8507TIP3   OH246935   0.568   1.022   1.453 -0.4854  0.0649 -0.0061
 8507TIP3    H146936   0.495   1.084   1.456 -0.1416  0.4334  1.1916
 8507TIP3    H246937   0.527   0.937   1.438 -1.2323  0.1847  1.2411
 8508TIP3   OH246938   3.765   1.536  14.668 -0.2038  0.1438 -0.3539
 8508TIP3    H146939   3.706   1.565  14.737 -0.7160  0.0341 -0.7459
 8508TIP3    H246940   3.811   1.615  14.640  1.9150 -0.1526  1.8630
 8509TIP3   OH246941   2.676   6.074  15.900  0.0766 -0.1757 -0.0856
 8509TIP3    H146942   2.765   6.052  15.928 -0.0005 -1.7155 -0.9595
 8509TIP3    H246943   2.621   6.049  15.975  0.3023  0.0379  0.1537
 8510TIP3   OH246944   5.643   3.431  15.595 -0.3610  0.1984 -0.1920
 8510TIP3    H146945   5.685   3.354  15.632 -0.8998 -1.2365 -2.4411
 8510TIP3    H246946   5.581   3.459  15.663  0.6470 -0.6280  1.1117
 8511TIP3   OH246947   6.631   4.617  11.557 -0.1212  0.2782  0.0596
 8511TIP3    H146948   6.593   4.590  11.640  1.0114  0.4991  0.6688
 8511TIP3    H246949   6.699   4.552  11.538  0.2368  0.7254 -0.2357
 8512TIP3   OH246950   5.413   6.666  12.025  0.2904 -0.5201 -0.1358
 8512TIP3    H146951   5.361   6.591  11.996  0.4035 -0.9284  0.6960
 8512TIP3    H246952   5.503   6.634  12.028  0.4281 -0.1661 -0.3842
 8513TIP3   OH246953   4.281   0.332  14.804 -0.7684  0.1114  0.9589
 8513TIP3    H146954   4.361   0.361  14.847  0.2519 -0.7474 -0.2693
 8513TIP3    H246955   4.283   0.237  14.811 -0.3539 -0.1068 -1.2081
 8514TIP3   OH246956   4.715   1.217   5.531 -0.0673  0.4832 -0.1986
 8514TIP3    H146957   4.689   1.230   5.439 -1.4933 -1.6564 -0.1650
 8514TIP3    H246958   4.632   1.216   5.579  0.6053  0.6814  1.0079
 8515TIP3   OH246959   1.798   4.351  16.367  0.6045  0.3815 -0.3992
 8515TIP3    H146960   1.733   4.417  16.346  1.0482  0.4653 -1.5643
 8515TIP3    H246961   1.747   4.275  16.397 -0.0008  0.5901 -0.8899
 8516TIP3   OH246962   5.670   2.811   1.439 -0.0890  0.0388  0.5469
 8516TIP3    H146963   5.582   2.813   1.401  0.2990  2.1500 -0.3988
 8516TIP3    H246964   5.675   2.892   1.491  1.2326 -0.1430  0.7306
 8517TIP3   OH246965   3.517   6.736   9.894 -0.4874  0.2255 -0.0316
 8517TIP3    H146966   3.484   6.757   9.807  0.0542  1.5078  0.0457
 8517TIP3    H246967   3.612   6.740   9.886 -0.4098 -0.5286  0.4166
 8518TIP3   OH246968   1.783   1.598  11.516  0.1731  0.0246  0.0576
 8518TIP3    H146969   1.828   1.564  11.439  1.0399  0.9810  0.1240
 8518TIP3    H246970   1.714   1.654  11.482  0.4766  0.3470 -0.0399
 8519TIP3   OH246971   4.149   4.492  11.934  0.2954  0.0139 -0.2223
 8519TIP3    H146972   4.102   4.431  11.877  0.4488 -0.5963  0.2843
 8519TIP3    H246973   4.137   4.578  11.894  2.7988 -0.7010 -2.7946
 8520TIP3   OH246974   1.779   3.412  16.169 -0.1162 -0.1286 -0.3768
 8520TIP3    H146975   1.684   3.395  16.170 -0.4268  1.0780 -2.5018
 8520TIP3    H246976   1.788   3.490  16.114  1.9432  1.1976  1.6775
 8521TIP3   OH246977   4.090   6.870  11.879  0.3694  0.1909 -0.7426
 8521TIP3    H146978   4.134   6.812  11.941  2.8717  1.3230 -1.3392
 8521TIP3    H246979   4.087   6.820  11.797 -3.0628 -1.3604  0.1334
 8522TIP3   OH246980   0.187   4.137  15.884 -0.4294 -0.4484 -0.2776
 8522TIP3    H146981   0.121   4.119  15.818 -0.5008 -1.7292  0.1105
 8522TIP3    H246982   0.196   4.232  15.884  0.8295 -0.4552 -3.3242
 8523TIP3   OH246983   6.211   1.308  15.554  0.8106  0.3381 -0.0987
 8523TIP3    H146984   6.172   1.372  15.613 -1.0098 -0.8775  0.0966
 8523TIP3    H246985   6.227   1.231  15.609  2.0820  0.2562 -0.5346
 8524TIP3   OH246986   6.396   3.654  15.359 -0.4363  0.2395 -0.4565
 8524TIP3    H146987   6.416   3.728  15.416  0.1032 -0.4865  0.3265
 8524TIP3    H246988   6.302   3.662  15.341 -0.9890 -0.3264  1.7837
 8525TIP3   OH246989   1.519   6.879  11.458  0.0345 -0.2486  0.0894
 8525TIP3    H146990   1.521   6.862  11.364  0.5387  0.5367 -0.0544
 8525TIP3    H246991   1.486   6.798  11.497  0.5396 -0.8427 -0.6999
 8526TIP3   OH246992   2.533   6.442  14.783  0.3056  0.4569  0.0138
 8526TIP3    H146993   2.458   6.383  14.787 -0.4255  1.4340  1.8101
 8526TIP3    H246994   2.550   6.466  14.874  1.0427  2.4184 -0.5899
 8527TIP3   OH246995   6.824   1.341   3.474 -0.6151  0.0918  0.1492
 8527TIP3    H146996   6.834   1.385   3.389 -0.8430  0.5218  0.3432
 8527TIP3    H246997   6.865   1.399   3.537 -1.5553  0.3840  0.5064
 8528TIP3   OH246998   6.480   5.521  13.318 -0.2460 -0.2241  0.3966
 8528TIP3    H146999   6.384   5.516  13.318 -0.4901  2.8428  0.6603
 8528TIP3    H247000   6.501   5.573  13.240  1.3960 -2.2341 -0.6018
 8529TIP3   OH247001   5.989   6.524   2.422  0.4805 -0.3294 -0.3646
 8529TIP3    H147002   6.077   6.533   2.386 -0.1769  0.2997 -1.8945
 8529TIP3    H247003   5.994   6.447   2.479  1.3752 -2.0301 -2.5825
 8530TIP3   OH247004   2.878   0.325   0.425  0.0128  0.3068  0.2420
 8530TIP3    H147005   2.933   0.374   0.364 -0.0229 -3.0669 -2.8491
 8530TIP3    H247006   2.799   0.377   0.434  1.9397  3.2684  1.4967
 8531TIP3   OH247007   1.578   6.052  12.471 -0.1321 -0.8368  0.4663
 8531TIP3    H147008   1.624   5.976  12.435 -0.0937 -1.6861  2.2186
 8531TIP3    H247009   1.634   6.083  12.543 -0.4255  0.5176  0.1483
 8532TIP3   OH247010   1.573   1.291  10.602 -0.0973 -0.2552 -0.5946
 8532TIP3    H147011   1.603   1.349  10.531 -0.1973 -0.8051 -1.0968
 8532TIP3    H247012   1.477   1.297  10.598 -0.2131 -2.1781 -2.1570
 8533TIP3   OH247013   3.695   1.159   2.703 -0.0187  0.5188 -0.1639
 8533TIP3    H147014   3.671   1.151   2.795  0.4479  1.1752  0.0196
 8533TIP3    H247015   3.738   1.076   2.682 -0.3122  0.2856  0.1452
 8534TIP3   OH247016   5.376   0.704   2.238  0.3579  0.0801 -0.1576
 8534TIP3    H147017   5.392   0.743   2.152 -0.6001 -0.8359 -0.7735
 8534TIP3    H247018   5.452   0.649   2.254  1.7435  2.1346  0.7353
 8535TIP3   OH247019   6.094   6.111  12.732  0.4880 -0.0424  0.3774
 8535TIP3    H147020   6.169   6.066  12.695  0.1414 -0.2563 -0.0737
 8535TIP3    H247021   6.021   6.089  12.674  0.0499  0.0651  0.8736
 8536TIP3   OH247022   2.086   1.693  11.889 -0.1997 -0.5229 -0.1139
 8536TIP3    H147023   2.181   1.691  11.902 -0.0296  0.4789 -1.0778
 8536TIP3    H247024   2.050   1.718  11.974  0.5854  1.7558 -0.3944
 8537TIP3   OH247025   1.649   4.666   5.738  0.0445  0.1435 -0.2094
 8537TIP3    H147026   1.564   4.661   5.781 -2.0299 -1.1047 -3.9539
 8537TIP3    H247027   1.681   4.754   5.759 -2.5962  1.0049  0.6719
 8538TIP3   OH247028   0.343   2.293  12.015 -0.4538 -0.2067 -0.1104
 8538TIP3    H147029   0.254   2.319  11.993  0.0061 -0.1029 -2.0577
 8538TIP3    H247030   0.392   2.375  12.019 -0.3869 -0.2791  0.7375
 8539TIP3   OH247031   5.026   1.009  14.512  0.1990 -0.5133  0.1229
 8539TIP3    H147032   5.041   1.099  14.484 -0.9166 -0.5941 -0.8213
 8539TIP3    H247033   5.080   0.957  14.452 -1.1479 -0.6071 -1.0399
 8540TIP3   OH247034   0.370   3.211  12.742 -0.0115 -0.0545 -0.1729
 8540TIP3    H147035   0.277   3.196  12.723  0.2222  0.4674 -1.8940
 8540TIP3    H247036   0.410   3.221  12.656  1.3420  1.5485  0.5959
 8541TIP3   OH247037   6.781   2.619   4.374  0.2654 -0.0222 -0.2330
 8541TIP3    H147038   6.850   2.605   4.438  0.5186  0.9552 -0.2760
 8541TIP3    H247039   6.706   2.648   4.426  0.0813 -0.4430 -0.2569
 8542TIP3   OH247040   0.187   6.579   5.811  0.1134 -0.0600 -0.1857
 8542TIP3    H147041   0.241   6.647   5.852 -0.5047  0.8036 -0.7494
 8542TIP3    H247042   0.098   6.614   5.815 -0.0490 -0.2314 -1.6721
 8543TIP3   OH247043   6.036   3.798  15.988  0.2568 -0.1011  0.0733
 8543TIP3    H147044   6.017   3.791  16.082  0.7392  1.6586  0.3452
 8543TIP3    H247045   6.120   3.844  15.985  0.3486 -0.3402 -1.2219
 8544TIP3   OH247046   4.445   6.429  12.263 -0.0023  0.2377  0.4544
 8544TIP3    H147047   4.398   6.448  12.183 -0.0336 -2.2953 -0.2141
 8544TIP3    H247048   4.468   6.336  12.256  1.7129  0.4253  2.4908
 8545TIP3   OH247049   4.058   3.804  16.127 -0.1398  0.6967 -0.3587
 8545TIP3    H147050   4.111   3.815  16.048  0.9197 -0.8965  0.0708
 8545TIP3    H247051   4.014   3.720  16.115 -0.1036  0.5136  0.6650
 8546TIP3   OH247052   5.454   1.640   2.589 -0.3413  0.2887  0.5992
 8546TIP3    H147053   5.526   1.578   2.582 -1.2763 -1.0644  2.2057
 8546TIP3    H247054   5.377   1.592   2.558 -0.4848  2.0096 -2.0121
 8547TIP3   OH247055   1.516   6.356   3.524  0.6394 -0.4691  0.5442
 8547TIP3    H147056   1.488   6.425   3.464  0.4132 -1.2713 -0.2922
 8547TIP3    H247057   1.435   6.314   3.552  0.7261  0.0386  1.6074
 8548TIP3   OH247058   5.813   0.159   1.067  0.1229  0.1760 -0.1547
 8548TIP3    H147059   5.850   0.170   0.980  1.4212 -0.2608  0.3220
 8548TIP3    H247060   5.845   0.074   1.097  1.5224  1.2353  1.5797
 8549TIP3   OH247061   5.678   4.453  10.733 -0.1932 -0.2470 -0.5564
 8549TIP3    H147062   5.668   4.528  10.791  0.3215 -0.8849  0.3716
 8549TIP3    H247063   5.764   4.417  10.755 -0.7775 -1.5933 -0.4220
 8550TIP3   OH247064   1.660   5.913  14.807 -0.0778 -0.1579 -0.1496
 8550TIP3    H147065   1.596   5.842  14.802 -0.2469  0.0284 -0.7468
 8550TIP3    H247066   1.717   5.889  14.880 -0.6917 -0.4386  0.2377
 8551TIP3   OH247067   6.436   3.606   0.683 -0.2529  0.1303  0.5783
 8551TIP3    H147068   6.452   3.671   0.751 -1.2602  1.3661 -0.3241
 8551TIP3    H247069   6.470   3.645   0.603 -3.1620  0.7644 -0.4799
 8552TIP3   OH247070   4.236   5.730  12.602 -0.6421 -0.1255  0.2490
 8552TIP3    H147071   4.184   5.714  12.523  0.4752  0.5365 -0.6546
 8552TIP3    H247072   4.198   5.809  12.640 -3.6299 -2.4262  2.5511
 8553TIP3   OH247073   1.785   3.505   2.244  0.1440  0.0821  0.2578
 8553TIP3    H147074   1.744   3.587   2.218 -0.4818 -0.2696  0.1382
 8553TIP3    H247075   1.770   3.500   2.339  0.4498  0.2523  0.3168
 8554TIP3   OH247076   0.941   6.852  16.679  0.0292 -0.3201 -0.1102
 8554TIP3    H147077   0.953   6.833  16.586  1.6635 -1.7372  0.3329
 8554TIP3    H247078   0.969   6.943  16.690  0.6137 -0.4032 -0.8829
 8555TIP3   OH247079   4.061   5.326  13.255 -0.1705  0.1041  0.0172
 8555TIP3    H147080   4.024   5.306  13.341 -1.3975  0.3164 -0.4322
 8555TIP3    H247081   4.114   5.250  13.234 -0.7422 -0.4472  0.4944
 8556TIP3   OH247082   0.795   0.001   0.658  0.2914  0.0127 -0.2156
 8556TIP3    H147083   0.825  -0.043   0.578 -2.4917 -1.7325 -0.4456
 8556TIP3    H247084   0.871  -0.002   0.717  2.0755  0.3537 -2.3484
 8557TIP3   OH247085   6.156   3.649   0.631  0.1756 -0.4817  0.4890
 8557TIP3    H147086   6.240   3.624   0.669  0.8798 -1.9448 -1.8277
 8557TIP3    H247087   6.151   3.744   0.644  2.0049 -0.4190  0.9786
 8558TIP3   OH247088   6.583   2.241   4.478 -0.5647  0.4882  0.2343
 8558TIP3    H147089   6.502   2.247   4.428  0.6199  0.5240 -1.7613
 8558TIP3    H247090   6.652   2.260   4.415  1.1657 -1.8083  1.2924
 8559TIP3   OH247091   5.310   3.355  14.359  1.4966 -0.3690  0.1311
 8559TIP3    H147092   5.310   3.260  14.370  0.5788 -0.5963 -1.4863
 8559TIP3    H247093   5.402   3.381  14.372  2.0963 -1.7190 -1.1522
 8560TIP3   OH247094   0.029   5.622   0.358 -0.5645 -0.9529 -0.3199
 8560TIP3    H147095   0.113   5.667   0.362 -1.8472  1.7499 -1.6216
 8560TIP3    H247096   0.017   5.601   0.266 -0.7619 -2.5516  0.0365
 8561TIP3   OH247097   0.529   4.259   3.531 -0.0418 -0.0428  0.3494
 8561TIP3    H147098   0.604   4.315   3.509  0.2626 -0.4734  0.2710
 8561TIP3    H247099   0.558   4.212   3.609 -0.9508  1.1637  1.4566
 8562TIP3   OH247100   1.525   2.895  14.365 -0.2760  0.2540  0.2626
 8562TIP3    H147101   1.485   2.849  14.439 -1.2597  0.2384 -0.2710
 8562TIP3    H247102   1.555   2.825  14.306 -1.7713  0.2650 -0.5488
 8563TIP3   OH247103   2.236   2.651   5.266  0.7192 -0.3210 -0.2393
 8563TIP3    H147104   2.286   2.581   5.223  1.1451 -0.4494  0.4521
 8563TIP3    H247105   2.225   2.620   5.356 -0.4248 -0.1962 -0.3221
 8564TIP3   OH247106   0.569   2.651  11.045 -0.1784 -0.5711 -0.0224
 8564TIP3    H147107   0.535   2.727  10.999 -1.2244 -1.0611 -0.1016
 8564TIP3    H247108   0.588   2.683  11.133 -3.7715 -0.8567  1.0184
 8565TIP3   OH247109   1.421   6.623  10.909  0.5997 -0.5806 -0.2715
 8565TIP3    H147110   1.396   6.534  10.935  1.6880 -1.1268 -0.9772
 8565TIP3    H247111   1.368   6.680  10.964 -0.6247 -1.6574 -0.2671
 8566TIP3   OH247112   6.828   3.499   4.472  0.1654 -0.3683 -0.2791
 8566TIP3    H147113   6.908   3.528   4.516 -1.1563  0.3797  1.7875
 8566TIP3    H247114   6.858   3.452   4.394  2.5677  0.7721 -0.1151
 8567TIP3   OH247115   5.996   1.549  10.447  0.0452  0.1228 -0.3220
 8567TIP3    H147116   6.028   1.465  10.414  0.7358 -0.8257  2.5499
 8567TIP3    H247117   5.912   1.529  10.487  0.3247  0.7309  0.6004
 8568TIP3   OH247118   3.597   0.422  11.059 -0.5123  0.5888 -0.2835
 8568TIP3    H147119   3.515   0.374  11.069 -1.0586  1.5272 -0.1502
 8568TIP3    H247120   3.572   0.514  11.067  1.0153  0.8494  3.0484
 8569TIP3   OH247121   1.155   6.601  11.621 -0.3852 -0.1144  0.1628
 8569TIP3    H147122   1.083   6.606  11.558 -0.9896 -0.2859  0.8357
 8569TIP3    H247123   1.113   6.606  11.706  0.4889  0.8387  0.5571
 8570TIP3   OH247124   2.126   6.379   2.872  0.7903  0.2209 -0.0041
 8570TIP3    H147125   2.126   6.372   2.967 -1.3361  0.5367  0.0671
 8570TIP3    H247126   2.180   6.455   2.854  1.0454  0.2851  0.9677
 8571TIP3   OH247127   6.831   4.627  11.282 -0.0185  0.0055  0.4031
 8571TIP3    H147128   6.918   4.587  11.275 -0.1812 -0.2115 -0.3867
 8571TIP3    H247129   6.794   4.588  11.362  1.3040  1.4740  1.8126
 8572TIP3   OH247130   2.157   0.630   1.779  0.1333 -0.4864  0.0606
 8572TIP3    H147131   2.126   0.706   1.730 -0.2954 -0.7091 -0.0201
 8572TIP3    H247132   2.165   0.560   1.714 -0.3175 -0.7478  0.2786
 8573TIP3   OH247133   1.810   3.224   5.747  0.1564  0.0200 -0.2081
 8573TIP3    H147134   1.838   3.287   5.680  0.1353 -1.5676 -1.7957
 8573TIP3    H247135   1.891   3.180   5.774 -0.0573 -0.7024 -0.6864
 8574TIP3   OH247136   4.001   4.803   3.912  0.0071  0.1789  0.0326
 8574TIP3    H147137   4.040   4.727   3.956 -1.2940  0.9484  2.7791
 8574TIP3    H247138   3.936   4.767   3.853  0.3187 -0.8629  0.3157
 8575TIP3   OH247139   1.799   1.560   1.893  0.0982 -0.3116 -0.4061
 8575TIP3    H147140   1.879   1.593   1.852  0.0332 -1.3867 -1.4552
 8575TIP3    H247141   1.761   1.503   1.827 -0.5808 -1.2741  0.7879
 8576TIP3   OH247142   0.175   4.202  12.108  1.0285  0.0252 -0.1421
 8576TIP3    H147143   0.266   4.171  12.110  1.4251  1.1414  0.0386
 8576TIP3    H247144   0.128   4.146  12.169  1.0716 -2.0961 -1.9382
 8577TIP3   OH247145   2.350   1.395   5.830 -0.0475 -0.0548  0.0387
 8577TIP3    H147146   2.335   1.365   5.919 -1.2193  3.6144  1.2250
 8577TIP3    H247147   2.433   1.441   5.833 -0.2944  0.4604 -0.6685
 8578TIP3   OH247148   6.344   4.191  10.407 -0.2990 -0.4533 -0.7904
 8578TIP3    H147149   6.277   4.155  10.349 -0.1361 -1.3173 -0.4575
 8578TIP3    H247150   6.383   4.115  10.450  0.5421  0.0689 -0.5839
 8579TIP3   OH247151   6.213   5.284  13.416 -0.7539  0.1732  0.3431
 8579TIP3    H147152   6.123   5.250  13.406 -1.2119  0.8049  1.9469
 8579TIP3    H247153   6.218   5.357  13.355 -0.5068 -1.2791 -1.4855
 8580TIP3   OH247154   6.205   5.305   1.781 -0.3563  0.0512  0.1773
 8580TIP3    H147155   6.241   5.299   1.869  1.6237 -1.7324 -0.6389
 8580TIP3    H247156   6.199   5.214   1.751 -2.9481  0.4652 -0.8360
 8581TIP3   OH247157   5.555   4.627   0.026  0.4599 -0.8100  0.5745
 8581TIP3    H147158   5.498   4.662   0.094  0.3337  0.3781 -0.1199
 8581TIP3    H247159   5.565   4.698  -0.037 -0.9521 -2.4447 -1.6600
 8582TIP3   OH247160   0.542   6.886  15.893  0.2644  0.1969  0.0446
 8582TIP3    H147161   0.630   6.901  15.928  0.4829 -0.2932 -0.2731
 8582TIP3    H247162   0.483   6.919  15.960  0.6535 -1.3520  1.2118
 8583TIP3   OH247163   4.987   4.811  15.830  0.5592 -0.6217 -0.4586
 8583TIP3    H147164   5.031   4.726  15.827 -0.2515 -1.0184 -2.2791
 8583TIP3    H247165   4.894   4.790  15.838  0.5129  0.1865  1.8523
 8584TIP3   OH247166   3.111   2.435  13.229 -0.0819 -0.0446 -0.7332
 8584TIP3    H147167   3.148   2.410  13.144 -0.5679  0.2807 -1.0456
 8584TIP3    H247168   3.020   2.458  13.210  0.6335  3.3169 -0.7759
 8585TIP3   OH247169   1.331   6.859  12.149  0.0853 -0.3952 -0.3128
 8585TIP3    H147170   1.382   6.915  12.090  0.4231 -1.1657 -0.7675
 8585TIP3    H247171   1.380   6.860  12.231 -1.0173  1.6570  0.3836
 8586TIP3   OH247172   1.934   1.919   2.179 -0.5717 -0.6867  0.2687
 8586TIP3    H147173   1.976   1.860   2.241 -0.7858 -1.0773  0.0437
 8586TIP3    H247174   1.932   2.004   2.224  1.1449 -0.4652 -0.0034
 8587TIP3   OH247175   3.852   6.450  14.289  0.0296  0.5200  0.3314
 8587TIP3    H147176   3.843   6.434  14.196  2.5302  1.0341 -0.0632
 8587TIP3    H247177   3.844   6.545  14.298 -0.3794  0.4561  0.6664
 8588TIP3   OH247178   0.919   5.755  11.967  0.1274  0.2967  0.0891
 8588TIP3    H147179   0.945   5.827  11.910  0.0550 -0.4317 -0.8830
 8588TIP3    H247180   1.001   5.717  11.998  0.1680  1.1276  1.0631
 8589TIP3   OH247181   2.322   4.256   0.685 -0.4487 -0.2819  0.3216
 8589TIP3    H147182   2.282   4.249   0.771 -1.3191 -2.4672 -0.1916
 8589TIP3    H247183   2.347   4.166   0.662  2.0287  0.5601 -0.6861
 8590TIP3   OH247184   2.943   1.391  15.698  0.0208 -0.0338  0.3390
 8590TIP3    H147185   3.013   1.383  15.633 -0.1069  0.1978  0.1711
 8590TIP3    H247186   2.862   1.394  15.646  0.0004  1.4525  0.4274
 8591TIP3   OH247187   6.077   2.695  15.818  0.2200  0.2270  0.0247
 8591TIP3    H147188   6.154   2.739  15.782  0.4985 -2.0490 -2.4500
 8591TIP3    H247189   6.113   2.620  15.866 -0.3551  1.3188  2.3158
 8592TIP3   OH247190   6.571   6.484   4.592 -0.2102  0.1549 -0.1156
 8592TIP3    H147191   6.497   6.450   4.643  0.8400 -3.6094 -0.7593
 8592TIP3    H247192   6.635   6.509   4.658 -0.2515 -1.2062  0.4737
 8593TIP3   OH247193   0.960   0.376  14.992 -0.0948 -0.1339  0.7745
 8593TIP3    H147194   1.011   0.442  14.943  0.5439 -0.7133  0.6435
 8593TIP3    H247195   0.909   0.331  14.925  0.5361 -0.7100  0.6668
 8594TIP3   OH247196   0.969   0.153  15.414 -0.0517  0.0118  0.0854
 8594TIP3    H147197   1.008   0.119  15.333 -0.6736 -1.1790  0.2762
 8594TIP3    H247198   0.928   0.078  15.455  0.1252  0.6305  1.4569
 8595TIP3   OH247199   1.096   2.052   0.172 -0.2713 -0.1696  0.1539
 8595TIP3    H147200   1.163   2.106   0.131 -0.2109 -1.2077 -1.1893
 8595TIP3    H247201   1.105   2.070   0.266  1.0696  0.6182 -0.0940
 8596TIP3   OH247202   0.166   0.998  15.231 -0.3097  0.0592  0.2330
 8596TIP3    H147203   0.229   0.943  15.278 -0.0443 -0.4981 -0.7297
 8596TIP3    H247204   0.084   0.950  15.234 -0.0168 -0.5575 -0.8298
 8597TIP3   OH247205   5.500   5.825  15.093  0.2968 -0.0924  0.5283
 8597TIP3    H147206   5.514   5.912  15.132 -2.6559  0.3171  0.9039
 8597TIP3    H247207   5.505   5.840  14.999  0.0084  0.4587  0.5930
 8598TIP3   OH247208   0.551   2.033  11.002  0.3594  0.1646 -0.1578
 8598TIP3    H147209   0.647   2.039  10.998  0.4479  0.5912  1.5599
 8598TIP3    H247210   0.523   2.119  11.034 -0.4204 -0.5466  1.1638
 8599TIP3   OH247211   0.299   2.088  11.303  0.4449 -0.0634  1.0603
 8599TIP3    H147212   0.264   1.999  11.307  0.8320 -0.2002  1.5702
 8599TIP3    H247213   0.283   2.116  11.213  0.9466 -0.9066  0.6937
 8600TIP3   OH247214   0.663   2.448  11.721 -0.3678 -0.0809  0.4976
 8600TIP3    H147215   0.672   2.517  11.654 -0.6087  1.3526  1.8836
 8600TIP3    H247216   0.693   2.490  11.802 -1.5699 -1.2663  1.5920
 8601TIP3   OH247217   1.445   6.645  12.606  0.1997  0.4157 -0.4270
 8601TIP3    H147218   1.459   6.721  12.549 -0.0086  0.8631  0.1120
 8601TIP3    H247219   1.390   6.678  12.677 -0.8373 -0.5034 -0.7705
 8602TIP3   OH247220   3.669   3.405  15.499 -0.6512  0.3900 -1.1336
 8602TIP3    H147221   3.761   3.416  15.522 -0.9106  0.1156  0.1092
 8602TIP3    H247222   3.667   3.329  15.441  0.0838  1.3897 -2.5369
 8603TIP3   OH247223   2.549   3.094   4.337 -0.3372  0.0926 -0.5699
 8603TIP3    H147224   2.605   3.169   4.314 -0.6119  0.3962 -0.2597
 8603TIP3    H247225   2.519   3.113   4.426 -2.6686  1.0066 -1.4749
 8604TIP3   OH247226   0.213   3.527  15.127  0.8909  0.2709  0.3219
 8604TIP3    H147227   0.295   3.577  15.130  1.3258 -0.4861  1.7693
 8604TIP3    H247228   0.163   3.561  15.201  0.2185  0.1739 -0.0881
 8605TIP3   OH247229   6.482   2.412  14.761  0.3455 -0.3448 -0.1514
 8605TIP3    H147230   6.417   2.378  14.699 -0.4240  0.4917  0.1680
 8605TIP3    H247231   6.467   2.363  14.841 -0.2134  0.1635  0.0614
 8606TIP3   OH247232   0.769   5.512   2.579 -0.4129 -0.8650 -0.7158
 8606TIP3    H147233   0.730   5.426   2.594 -0.4191 -0.8636 -0.7244
 8606TIP3    H247234   0.864   5.495   2.578 -0.3510 -0.7000  0.4642
 8607TIP3   OH247235   4.336   4.953   1.177 -0.6140 -0.1150  0.4761
 8607TIP3    H147236   4.274   4.914   1.238 -0.8493  0.7659  0.8283
 8607TIP3    H247237   4.341   5.045   1.204  0.9718 -0.2063  0.5575
 8608TIP3   OH247238   1.571   1.803   5.093  0.5576 -0.6314 -0.3666
 8608TIP3    H147239   1.642   1.771   5.036  0.9178 -0.3662 -0.0666
 8608TIP3    H247240   1.592   1.768   5.179  1.5589  1.2668  0.2201
 8609TIP3   OH247241   4.368   0.472   3.626  0.1978 -0.2394  0.1252
 8609TIP3    H147242   4.280   0.445   3.601  0.1736  0.2557 -0.3471
 8609TIP3    H247243   4.355   0.533   3.698  0.0603  0.7446 -0.6943
 8610TIP3   OH247244   3.131   5.476  10.954  0.1570  0.7374 -0.2826
 8610TIP3    H147245   3.212   5.448  10.913  0.0573 -0.6383  0.4142
 8610TIP3    H247246   3.150   5.478  11.048 -0.5555  0.5923 -0.1264
 8611TIP3   OH247247   5.077   2.707   2.623  0.4293 -0.6050  0.1548
 8611TIP3    H147248   5.037   2.635   2.575 -1.0276 -0.8388  1.6260
 8611TIP3    H247249   5.023   2.717   2.701  1.1798  1.4500  0.4775
 8612TIP3   OH247250   5.615   3.651   3.609 -0.4807 -0.0565  0.5347
 8612TIP3    H147251   5.538   3.599   3.633 -0.0802 -0.1062  1.7879
 8612TIP3    H247252   5.663   3.595   3.548 -1.3176 -0.1142 -0.0827
 8613TIP3   OH247253   3.732   2.179   1.548  0.3001 -0.2614  0.2478
 8613TIP3    H147254   3.810   2.173   1.492  0.5354 -2.0588  0.6921
 8613TIP3    H247255   3.762   2.224   1.627  0.6603 -0.1277  0.0376
 8614TIP3   OH247256   0.290   2.271  14.773  0.4401  0.0300 -0.3855
 8614TIP3    H147257   0.205   2.229  14.778 -0.7612  2.2290 -0.7754
 8614TIP3    H247258   0.305   2.305  14.862 -1.3352  3.5220 -1.2501
 8615TIP3   OH247259   1.717   5.875   0.533 -0.0087 -0.3050 -0.0749
 8615TIP3    H147260   1.794   5.880   0.477 -0.8801  0.0545 -1.2800
 8615TIP3    H247261   1.709   5.782   0.556 -0.9531 -0.8850 -2.4930
 8616TIP3   OH247262   6.371   6.396  15.884 -0.0529  0.4763 -0.5849
 8616TIP3    H147263   6.455   6.356  15.862  0.9147  1.3787  1.2250
 8616TIP3    H247264   6.350   6.360  15.970 -0.8097  1.3274 -0.4060
 8617TIP3   OH247265   1.487   2.198   2.650  0.1332 -0.3243  0.4518
 8617TIP3    H147266   1.466   2.238   2.735  0.2041 -0.0000  0.3184
 8617TIP3    H247267   1.582   2.186   2.652  0.6579  2.7701 -0.8773
 8618TIP3   OH247268   3.119   4.582   4.677 -0.0410  0.1055  0.1583
 8618TIP3    H147269   3.121   4.678   4.677 -0.3785  0.1157  0.0999
 8618TIP3    H247270   3.206   4.556   4.646  0.3919  0.3746  1.1211
 8619TIP3   OH247271   3.261   2.662  14.483 -0.2630  0.1581  0.0345
 8619TIP3    H147272   3.217   2.600  14.425 -0.0639  0.2138 -0.1802
 8619TIP3    H247273   3.353   2.658  14.456  0.0589 -0.7605  1.1980
 8620TIP3   OH247274   1.362   5.078  13.019  0.7290  0.6233  0.2485
 8620TIP3    H147275   1.321   5.156  13.056 -1.5093 -0.5860  0.4617
 8620TIP3    H247276   1.380   5.022  13.094  1.4714  0.5112  0.0018
 8621TIP3   OH247277   2.333   3.663   5.300 -0.4203 -0.0684  0.0057
 8621TIP3    H147278   2.409   3.709   5.266 -0.7312  0.3344 -0.1519
 8621TIP3    H247279   2.353   3.648   5.392 -0.1003 -0.0734 -0.0634
 8622TIP3   OH247280   5.472   6.157   0.050  0.2521  0.3959  0.8367
 8622TIP3    H147281   5.446   6.138  -0.040  1.3571 -0.2311  0.6280
 8622TIP3    H247282   5.422   6.094   0.103 -0.2848  0.6631  0.6568
 8623TIP3   OH247283   5.639   1.215   4.831 -0.0871  0.6623 -0.2621
 8623TIP3    H147284   5.573   1.273   4.870 -1.3392 -1.1327  0.4347
 8623TIP3    H247285   5.721   1.244   4.870 -0.7479  1.6191  0.4783
 8624TIP3   OH247286   1.726   4.110  16.488  0.2872 -0.1147 -0.0505
 8624TIP3    H147287   1.671   4.040  16.522 -0.6928  1.0786  0.9214
 8624TIP3    H247288   1.816   4.078  16.497 -0.1174 -1.0282  0.8501
 8625TIP3   OH247289   6.653   4.514  14.233 -0.0320 -0.2759  0.1292
 8625TIP3    H147290   6.707   4.517  14.312  1.3380 -0.2418 -0.7602
 8625TIP3    H247291   6.570   4.555  14.259 -0.1406 -1.5031  1.8948
 8626TIP3   OH247292   5.453   0.409   1.785 -0.2339 -0.4171  0.9381
 8626TIP3    H147293   5.459   0.421   1.691 -1.4236 -2.1984  0.5961
 8626TIP3    H247294   5.374   0.456   1.811 -0.1105 -0.2416  1.0023
 8627TIP3   OH247295   5.003   3.941  13.868 -0.6023  0.7464 -0.3008
 8627TIP3    H147296   4.908   3.939  13.866 -0.5957  0.5919 -0.4567
 8627TIP3    H247297   5.027   3.896  13.950 -0.6389  0.0701 -0.6565
 8628TIP3   OH247298   2.470   5.695  14.741 -0.6655 -0.4513  0.1289
 8628TIP3    H147299   2.451   5.607  14.773 -0.7340 -0.9342 -1.1783
 8628TIP3    H247300   2.434   5.754  14.808 -0.4617 -1.4018  1.1035
 8629TIP3   OH247301   1.778   4.510  11.632  0.3821  0.4062  0.0301
 8629TIP3    H147302   1.685   4.489  11.640  0.1747  0.8499 -1.0908
 8629TIP3    H247303   1.822   4.425  11.626 -0.3336  0.1406 -3.3493
 8630TIP3   OH247304   1.791   1.942   0.051  0.2267  0.6883  0.2658
 8630TIP3    H147305   1.746   2.022   0.075  0.0558  0.7852 -0.3558
 8630TIP3    H247306   1.831   1.961  -0.034  0.5172  0.2466  0.2960
 8631TIP3   OH247307   1.870   4.354  14.659  0.2139 -0.5097  0.0812
 8631TIP3    H147308   1.813   4.431  14.659 -0.3731 -0.8262 -2.5173
 8631TIP3    H247309   1.910   4.353  14.746 -1.4612  1.4308  0.9642
 8632TIP3   OH247310   4.289   2.146  12.013 -0.1175 -0.7664  0.0387
 8632TIP3    H147311   4.283   2.064  11.963  1.3127 -0.9737  0.1657
 8632TIP3    H247312   4.256   2.213  11.952  1.0371 -1.1019 -0.9942
 8633TIP3   OH247313   4.851   2.467  10.266  0.5590 -0.3749 -0.3316
 8633TIP3    H147314   4.928   2.412  10.253 -0.7857 -2.7732  1.2306
 8633TIP3    H247315   4.786   2.432  10.206 -0.4281 -0.7121  0.9161
 8634TIP3   OH247316   2.201   2.728  16.358 -0.2582 -0.3657 -0.5603
 8634TIP3    H147317   2.170   2.674  16.431 -0.9384 -0.0643 -0.6159
 8634TIP3    H247318   2.197   2.818  16.392  1.6263 -0.3942 -0.1918
 8635TIP3   OH247319   4.532   1.429   4.902  0.3064  0.2677 -0.1587
 8635TIP3    H147320   4.590   1.502   4.881  0.8354 -0.4741 -1.4088
 8635TIP3    H247321   4.469   1.428   4.830 -0.2843  0.0662  0.3501
 8636TIP3   OH247322   5.013   3.653  14.574 -0.1258  0.0194  0.1989
 8636TIP3    H147323   4.979   3.630  14.661  1.8625  1.5018  1.4697
 8636TIP3    H247324   5.100   3.613  14.571  0.6486  1.6563 -0.2424
 8637TIP3   OH247325   0.057   0.145   3.599  0.0015 -0.9817 -0.3444
 8637TIP3    H147326   0.062   0.101   3.514  1.0581 -3.1539  0.7496
 8637TIP3    H247327   0.106   0.088   3.658 -1.6234 -0.1118  1.9772
 8638TIP3   OH247328   1.704   1.267  15.275  0.3640  0.3144 -0.1237
 8638TIP3    H147329   1.651   1.286  15.198  1.0696  1.8737 -0.2543
 8638TIP3    H247330   1.789   1.240  15.241 -0.0770 -1.5125  0.0999
 8639TIP3   OH247331   2.113   6.263   1.230  0.7974  0.9404  0.0801
 8639TIP3    H147332   2.041   6.308   1.274  1.2029  0.3775  1.3743
 8639TIP3    H247333   2.071   6.205   1.167  0.1089  0.6231  0.8162
 8640TIP3   OH247334   3.406   3.539   4.973 -0.6233  0.0593 -0.1612
 8640TIP3    H147335   3.431   3.570   5.060  0.2641 -0.3518 -0.2577
 8640TIP3    H247336   3.326   3.488   4.988 -1.1423  0.9570  0.2330
 8641TIP3   OH247337   2.592   4.137   1.658 -0.3454  0.9697  0.1836
 8641TIP3    H147338   2.505   4.098   1.672  0.3154 -0.3644  0.7373
 8641TIP3    H247339   2.581   4.191   1.579 -1.5180  0.3301 -0.1241
 8642TIP3   OH247340   0.217   1.056  14.551 -0.4071 -0.1429  0.1316
 8642TIP3    H147341   0.248   1.082  14.465  0.7903 -0.3776  0.4773
 8642TIP3    H247342   0.288   1.003  14.587 -0.8269  0.0763  1.3256
 8643TIP3   OH247343   1.938   5.130  13.060 -0.5761 -0.0601 -0.0768
 8643TIP3    H147344   1.953   5.105  13.151  0.2606  1.7484  0.3188
 8643TIP3    H247345   1.938   5.226  13.060  1.7087  0.0465 -2.2998
 8644TIP3   OH247346   0.283   6.580  13.711  0.4286 -0.8327 -0.2862
 8644TIP3    H147347   0.196   6.555  13.680 -0.6463  2.2446 -0.0476
 8644TIP3    H247348   0.309   6.653  13.654  1.6318  0.1124  1.3970
 8645TIP3   OH247349   3.716   5.571  13.173  0.8797  0.2328  0.0609
 8645TIP3    H147350   3.677   5.566  13.085  0.8488  2.6460 -0.1436
 8645TIP3    H247351   3.803   5.608  13.159  1.2765 -0.3124  0.9841
 8646TIP3   OH247352   4.346   0.633   1.577 -0.0252  0.2440 -0.0562
 8646TIP3    H147353   4.436   0.662   1.566  0.3126  0.1526  2.2008
 8646TIP3    H247354   4.345   0.584   1.659 -1.8441 -0.9785 -0.7344
 8647TIP3   OH247355   3.817   4.151   0.075  0.5213 -0.9224  0.2216
 8647TIP3    H147356   3.900   4.182   0.110  0.6289 -1.0075  0.0445
 8647TIP3    H247357   3.836   4.130  -0.017 -0.0695  0.5672 -0.2810
 8648TIP3   OH247358   5.680   2.867  10.327 -0.0077  0.5370  0.1817
 8648TIP3    H147359   5.730   2.915  10.261  0.5596  0.4455  0.5338
 8648TIP3    H247360   5.592   2.863  10.292  0.6325 -1.0260 -1.3896
 8649TIP3   OH247361   0.371   0.570  12.752 -0.0915 -0.0546  0.4368
 8649TIP3    H147362   0.385   0.484  12.790  1.9849  1.2093  2.8783
 8649TIP3    H247363   0.277   0.585  12.758 -0.2956 -1.5338  1.3777
 8650TIP3   OH247364   3.060   6.818  10.639  0.1835  0.3821 -0.5054
 8650TIP3    H147365   3.153   6.797  10.638  0.0924 -0.0450 -1.7204
 8650TIP3    H247366   3.056   6.910  10.663  0.8894  0.3030 -0.0616
 8651TIP3   OH247367   3.294   0.959   4.020  0.6061  0.2593  0.0758
 8651TIP3    H147368   3.224   0.962   3.954 -0.0529 -0.0587  0.7402
 8651TIP3    H247369   3.271   0.884   4.075  1.7655 -0.1657  0.0008
 8652TIP3   OH247370   4.565   5.645  16.537 -0.1389  0.2749  0.2790
 8652TIP3    H147371   4.479   5.676  16.507 -0.3485  0.1483  0.7507
 8652TIP3    H247372   4.558   5.640  16.632 -0.5056 -2.2949  0.1987
 8653TIP3   OH247373   1.666   5.044   4.836 -0.0701 -0.3204 -0.2516
 8653TIP3    H147374   1.609   4.967   4.829  0.1638 -0.6322  1.1180
 8653TIP3    H247375   1.752   5.013   4.807  0.1627 -0.7552  0.8590
 8654TIP3   OH247376   2.574   4.244  14.180  0.1289 -0.1305  0.1478
 8654TIP3    H147377   2.646   4.282  14.130 -0.4782  0.8377 -0.0208
 8654TIP3    H247378   2.503   4.234  14.116 -0.0751 -0.5228  0.4343
 8655TIP3   OH247379   3.087   0.355   2.377 -0.2273  0.9949  0.0155
 8655TIP3    H147380   3.080   0.369   2.282 -1.0781  1.8648  0.1963
 8655TIP3    H247381   3.149   0.422   2.406  1.6388 -0.5606 -0.1881
 8656TIP3   OH247382   1.708   4.910   2.403  0.1254  0.2436 -0.2458
 8656TIP3    H147383   1.787   4.959   2.426 -0.4610  1.3294 -0.4712
 8656TIP3    H247384   1.658   4.970   2.347 -0.3265 -0.8532 -1.0655
 8657TIP3   OH247385   1.657   0.397   1.385  0.3103 -0.1853  0.5429
 8657TIP3    H147386   1.697   0.422   1.469 -0.2669  0.5972  0.5938
 8657TIP3    H247387   1.706   0.446   1.320 -0.8657  1.1750  0.6474
 8658TIP3   OH247388   5.490   3.173   3.644 -0.7497  0.5919 -0.1548
 8658TIP3    H147389   5.433   3.108   3.603  1.0243 -0.6557 -0.7398
 8658TIP3    H247390   5.496   3.145   3.736  0.4429 -0.4388 -0.5225
 8659TIP3   OH247391   5.823   0.545   0.760  0.1554  0.2024  0.1234
 8659TIP3    H147392   5.767   0.469   0.768  1.4928 -0.9053 -0.6574
 8659TIP3    H247393   5.829   0.561   0.666  1.8244 -0.2623  0.1155
 8660TIP3   OH247394   1.973   0.329   4.943 -0.7210 -0.8164 -0.0167
 8660TIP3    H147395   1.895   0.273   4.950  0.1162 -1.9933  0.1356
 8660TIP3    H247396   2.021   0.314   5.024  0.6073 -1.5718 -0.9056
 8661TIP3   OH247397   4.577   3.920   3.304 -0.2405 -0.4576  0.1788
 8661TIP3    H147398   4.668   3.951   3.308  0.2101 -1.8153  2.3907
 8661TIP3    H247399   4.525   3.997   3.328  0.1575  0.6941 -2.4056
 8662TIP3   OH247400   0.540   5.246   3.855 -0.3066  0.0765  0.1146
 8662TIP3    H147401   0.465   5.275   3.907 -0.9260  2.0859 -1.7071
 8662TIP3    H247402   0.507   5.246   3.765  1.2451 -1.3547 -0.5040
 8663TIP3   OH247403   4.324   4.693  15.139 -0.2758 -0.6611  0.7742
 8663TIP3    H147404   4.248   4.733  15.182 -0.4020 -1.8164  1.6527
 8663TIP3    H247405   4.324   4.602  15.168 -0.1165 -1.3900 -1.3741
 8664TIP3   OH247406   4.226   6.051  13.108 -0.6124  0.0306  0.4053
 8664TIP3    H147407   4.306   6.079  13.064 -0.1843 -0.0862  1.0926
 8664TIP3    H247408   4.159   6.053  13.039  0.0896 -0.3959 -0.3123
 8665TIP3   OH247409   0.716   5.740  16.505 -0.1864  0.1248 -0.0803
 8665TIP3    H147410   0.743   5.745  16.596  0.4701  1.4399 -0.3326
 8665TIP3    H247411   0.639   5.796  16.499 -0.9339 -0.8630 -0.1153
 8666TIP3   OH247412   0.188   3.935  10.771  0.8221 -0.1317 -0.0601
 8666TIP3    H147413   0.275   3.933  10.810  1.1766  1.5641 -0.6739
 8666TIP3    H247414   0.204   3.933  10.676  0.1362 -0.8816 -0.1705
 8667TIP3   OH247415   4.983   2.192   2.140 -0.0686 -0.4945  0.1674
 8667TIP3    H147416   4.946   2.121   2.087 -2.6919  0.7284  0.1980
 8667TIP3    H247417   4.916   2.210   2.206  1.0539  1.1794  0.9134
 8668TIP3   OH247418   1.430   0.936   1.000  0.0809 -0.5571  0.1567
 8668TIP3    H147419   1.341   0.921   1.032 -0.1275 -0.0240 -0.1762
 8668TIP3    H247420   1.427   1.023   0.960  1.3119  0.4848  2.1757
 8669TIP3   OH247421   3.101   0.348  16.401 -0.4902  0.1453 -0.3163
 8669TIP3    H147422   3.155   0.409  16.350  0.3371 -0.3595 -0.0679
 8669TIP3    H247423   3.111   0.264  16.357  4.0125 -1.4884  3.0335
 8670TIP3   OH247424   3.602   0.211  13.434  0.3671  0.7490 -0.1280
 8670TIP3    H147425   3.697   0.213  13.420  0.6461  2.6856  1.6302
 8670TIP3    H247426   3.585   0.281  13.497 -2.1764  0.0650  0.0614
 8671TIP3   OH247427   4.579   6.842  15.921 -0.0597  0.0886 -0.3836
 8671TIP3    H147428   4.614   6.917  15.969 -2.1778  1.1326 -0.3606
 8671TIP3    H247429   4.503   6.877  15.874  0.5693 -1.4052 -2.6789
 8672TIP3   OH247430   6.713   1.212  14.010  0.2487 -0.2191 -0.1156
 8672TIP3    H147431   6.653   1.198  13.936 -0.3821 -0.8713  0.5143
 8672TIP3    H247432   6.721   1.127  14.051  1.2819 -0.0377  0.0698
 8673TIP3   OH247433   3.943   3.192   5.356  0.3462 -0.0074  0.1614
 8673TIP3    H147434   3.856   3.154   5.360  0.2630  0.2620  1.2415
 8673TIP3    H247435   3.996   3.128   5.308  0.0088 -1.0844  1.1862
 8674TIP3   OH247436   1.753   4.712  15.937 -0.0181 -0.3440 -0.2935
 8674TIP3    H147437   1.826   4.741  15.883  0.9070  0.9825  1.5334
 8674TIP3    H247438   1.687   4.781  15.928 -0.2320 -0.5667 -0.4352
 8675TIP3   OH247439   3.229   1.526  14.776 -0.4607 -0.3141  0.0833
 8675TIP3    H147440   3.242   1.619  14.759  0.5682  0.4427  4.0052
 8675TIP3    H247441   3.142   1.521  14.816 -0.2373 -0.8716  0.5256
 8676TIP3   OH247442   3.851   1.614  12.661  0.5113 -1.2022 -0.6104
 8676TIP3    H147443   3.807   1.695  12.687  0.6060 -0.7972 -1.6641
 8676TIP3    H247444   3.944   1.636  12.660  0.4539 -0.8812 -2.2744
 8677TIP3   OH247445   1.861   6.536   3.246  0.2910  0.1898  0.2582
 8677TIP3    H147446   1.791   6.499   3.193  0.1301 -1.2566  1.4025
 8677TIP3    H247447   1.857   6.487   3.328  2.3289  0.3997  0.5364
 8678TIP3   OH247448   4.448   0.392  15.466  0.7795 -0.1717  0.8429
 8678TIP3    H147449   4.425   0.308  15.505  0.6026 -0.2419  0.5889
 8678TIP3    H247450   4.384   0.453  15.501  2.0255  0.2534  2.5143
 8679TIP3   OH247451   2.684   6.589   4.386 -0.1228 -0.2136 -1.0757
 8679TIP3    H147452   2.772   6.627   4.387 -0.4647  0.7474  1.4391
 8679TIP3    H247453   2.695   6.502   4.423 -0.3032  0.2471  0.1163
 8680TIP3   OH247454   2.459   6.470   3.222  0.2379 -0.1089 -0.3718
 8680TIP3    H147455   2.531   6.421   3.181 -0.9841 -0.8656 -1.7343
 8680TIP3    H247456   2.450   6.430   3.308  1.7830  0.3671  0.0415
 8681TIP3   OH247457   4.503   4.020  14.107  0.2310 -0.2530 -0.1559
 8681TIP3    H147458   4.479   4.090  14.046  2.2108  0.0319 -0.6580
 8681TIP3    H247459   4.531   4.066  14.186  0.4999 -0.5100 -0.0996
 8682TIP3   OH247460   1.548   1.521  15.593 -0.0765 -0.4158 -0.2589
 8682TIP3    H147461   1.545   1.560  15.681 -2.6349  0.4649 -0.6720
 8682TIP3    H247462   1.566   1.595  15.535  0.5828 -0.8251 -0.5831
 8683TIP3   OH247463   2.356   5.235   3.940 -0.5341  0.1306  0.1382
 8683TIP3    H147464   2.306   5.226   3.858  2.0220  0.1128 -1.5380
 8683TIP3    H247465   2.362   5.146   3.974 -1.0455  0.0379 -0.0020
 8684TIP3   OH247466   1.721   3.710  13.731  0.0058 -0.1872 -0.2785
 8684TIP3    H147467   1.697   3.697  13.639  0.6198 -0.8738 -0.3481
 8684TIP3    H247468   1.651   3.766  13.766 -2.1967 -2.7552 -0.2541
 8685TIP3   OH247469   4.548   2.248   0.266 -0.7381 -0.5867 -0.3172
 8685TIP3    H147470   4.455   2.267   0.260 -0.2726  1.6992 -1.2862
 8685TIP3    H247471   4.588   2.331   0.290  0.9568 -1.8337  1.5239
 8686TIP3   OH247472   4.777   3.513  13.167 -0.1654 -0.4142  0.5727
 8686TIP3    H147473   4.762   3.563  13.247  1.2500 -1.1094  1.3161
 8686TIP3    H247474   4.871   3.517  13.153 -0.2651 -1.1792 -0.4923
 8687TIP3   OH247475   2.161   6.627  12.228  1.1647  0.1429  0.2035
 8687TIP3    H147476   2.251   6.608  12.203  0.6998  0.2356 -1.6783
 8687TIP3    H247477   2.127   6.680  12.156 -0.3351  0.2761  0.9750
 8688TIP3   OH247478   5.016   3.325   4.534 -0.1813 -0.0627 -0.1849
 8688TIP3    H147479   5.065   3.251   4.498  0.1648  0.3387 -0.5448
 8688TIP3    H247480   4.952   3.346   4.467 -1.3381 -1.0303  0.5689
 8689TIP3   OH247481   0.619   0.127   3.158 -0.3825  0.5957  0.1415
 8689TIP3    H147482   0.531   0.157   3.137 -0.9543 -1.5420 -0.7401
 8689TIP3    H247483   0.670   0.143   3.079 -0.6048 -0.3580 -0.2092
 8690TIP3   OH247484   0.107   3.271  15.194 -0.0978  0.4476 -0.0219
 8690TIP3    H147485   0.166   3.346  15.186 -0.0074  0.2075 -1.9913
 8690TIP3    H247486   0.163   3.200  15.225  0.6613  0.2698 -1.6901
 8691TIP3   OH247487   0.597   0.915  15.070  0.5174  0.6408  0.5617
 8691TIP3    H147488   0.511   0.957  15.075  1.1154  2.1481 -0.7777
 8691TIP3    H247489   0.579   0.821  15.074 -1.3263  0.8739 -1.0361
 8692TIP3   OH247490   4.320   4.546  16.635 -0.0209  0.3352 -0.3513
 8692TIP3    H147491   4.319   4.557  16.730 -1.0995  1.8512 -0.5051
 8692TIP3    H247492   4.242   4.494  16.616 -0.1304  0.5339 -0.4509
 8693TIP3   OH247493   5.235   3.608  12.270  0.3661  0.4754 -0.5684
 8693TIP3    H147494   5.141   3.596  12.288  0.2669  0.3874 -1.1315
 8693TIP3    H247495   5.237   3.651  12.185  0.8325  0.7914 -0.3981
 8694TIP3   OH247496   1.739   6.720  10.385 -0.6000  0.1184 -0.1855
 8694TIP3    H147497   1.722   6.648  10.325  0.0736 -1.5916  1.5973
 8694TIP3    H247498   1.832   6.739  10.373  0.0314 -1.5292  1.5742
 8695TIP3   OH247499   1.523   1.337  10.960 -0.0782  0.1195 -0.7071
 8695TIP3    H147500   1.475   1.419  10.948 -0.3587 -0.0223 -0.5479
 8695TIP3    H247501   1.589   1.358  11.026 -0.2764  0.1634 -0.5232
 8696TIP3   OH247502   2.713   3.981   3.202 -0.3138  0.1459  0.3802
 8696TIP3    H147503   2.631   4.030   3.187  0.1119  0.5576 -0.7438
 8696TIP3    H247504   2.690   3.890   3.181  0.1895  0.6495 -3.0106
 8697TIP3   OH247505   5.687   6.441   4.991  0.2629  0.1739  0.3414
 8697TIP3    H147506   5.692   6.535   5.013 -2.1270  0.5584 -0.5033
 8697TIP3    H247507   5.684   6.439   4.896  1.4078 -0.8693  0.3150
 8698TIP3   OH247508   2.698   1.566   2.570 -0.3568 -0.0654 -0.2706
 8698TIP3    H147509   2.703   1.652   2.529  1.0146 -0.1980 -0.4433
 8698TIP3    H247510   2.756   1.511   2.517 -0.6971 -0.9268  0.2316
 8699TIP3   OH247511   0.567   3.334  15.284 -0.3147 -0.2869  0.6769
 8699TIP3    H147512   0.633   3.282  15.330 -2.2977 -3.0090  0.6778
 8699TIP3    H247513   0.614   3.371  15.208  1.4892 -0.9549  1.4165
 8700TIP3   OH247514   0.493   4.815   0.068  0.6355  0.6887 -0.4954
 8700TIP3    H147515   0.580   4.825   0.108 -0.2471 -2.2377  2.6142
 8700TIP3    H247516   0.488   4.723   0.043 -1.6981  0.6476 -0.1421
 8701TIP3   OH247517   1.505   0.803   0.698 -0.4032  0.3483 -0.7006
 8701TIP3    H147518   1.590   0.796   0.654 -0.6433  0.2944 -1.1634
 8701TIP3    H247519   1.520   0.868   0.766  0.2872 -0.4270 -0.0932
 8702TIP3   OH247520   0.490   0.629  14.167 -0.7722 -0.2346  0.2669
 8702TIP3    H147521   0.573   0.644  14.123  0.4291 -1.5559  1.9563
 8702TIP3    H247522   0.506   0.653  14.258 -1.9142 -1.4658  0.8280
 8703TIP3   OH247523   3.888   5.747   5.091  0.3115  0.3672  0.2791
 8703TIP3    H147524   3.818   5.684   5.106  1.3183 -0.3745  2.0655
 8703TIP3    H247525   3.944   5.705   5.025  0.8824 -0.5795  1.3306
 8704TIP3   OH247526   4.117   4.214  15.343  0.1673 -0.0525 -0.6494
 8704TIP3    H147527   4.115   4.237  15.436 -0.1790  0.0877 -0.6917
 8704TIP3    H247528   4.090   4.294  15.298  0.0855 -0.1963 -0.8581
 8705TIP3   OH247529   5.120   5.432   1.926  0.5204 -0.5777  0.3980
 8705TIP3    H147530   5.141   5.420   2.019 -0.4566  0.5937  0.7960
 8705TIP3    H247531   5.058   5.505   1.925  1.7127  0.4814 -1.3140
 8706TIP3   OH247532   6.860   2.914  16.709  0.6319  0.0428  0.1073
 8706TIP3    H147533   6.893   2.987  16.763  1.2939 -0.6232  0.6228
 8706TIP3    H247534   6.931   2.896  16.647 -0.4127  1.3003 -1.5456
 8707TIP3   OH247535   2.435   5.718  14.479 -0.5236  0.1604  0.7833
 8707TIP3    H147536   2.443   5.710  14.574  1.2520 -0.0207  0.6523
 8707TIP3    H247537   2.457   5.631  14.446  0.0162  0.5259  0.1642
 8708TIP3   OH247538   1.904   3.260  10.323 -0.2384  0.0523  0.2536
 8708TIP3    H147539   1.887   3.302  10.239  2.3646 -0.0605 -0.3974
 8708TIP3    H247540   1.894   3.330  10.387 -3.2701 -0.0740  0.0858
 8709TIP3   OH247541   6.854   4.649   2.418 -0.4929 -0.4549 -0.1536
 8709TIP3    H147542   6.824   4.673   2.506 -1.1371 -0.1420 -0.4478
 8709TIP3    H247543   6.790   4.690   2.359  0.4905  0.1854 -0.8049
 8710TIP3   OH247544   4.473   0.576   5.657 -0.0708  0.2039 -0.0377
 8710TIP3    H147545   4.544   0.523   5.693 -0.6152 -1.2281 -0.9433
 8710TIP3    H247546   4.497   0.666   5.676  1.2707 -0.3306  0.9238
 8711TIP3   OH247547   5.178   1.413   1.671  0.7818  0.3988  0.3391
 8711TIP3    H147548   5.226   1.406   1.589  1.6188 -1.0991  0.9109
 8711TIP3    H247549   5.136   1.327   1.682 -1.2205  1.3268  0.3687
 8712TIP3   OH247550   0.209   3.204   5.566  0.2214 -0.0441  0.2970
 8712TIP3    H147551   0.227   3.270   5.499  0.2176 -0.4873 -0.1446
 8712TIP3    H247552   0.147   3.247   5.625 -0.4213  0.0718 -0.4386
 8713TIP3   OH247553   0.658   2.591   2.468 -0.1279 -0.0892  0.4398
 8713TIP3    H147554   0.733   2.578   2.526 -0.5044 -1.1296  0.7107
 8713TIP3    H247555   0.609   2.663   2.508  0.6962  0.5918  0.2668
 8714TIP3   OH247556   3.282   4.107   1.051  0.3833 -0.6991 -0.3480
 8714TIP3    H147557   3.247   4.042   1.112  1.6097 -0.6619  0.4152
 8714TIP3    H247558   3.207   4.129   0.995 -1.3126  0.6518  2.2786
 8715TIP3   OH247559   3.603   3.409   3.493  0.1764  1.2764  0.0297
 8715TIP3    H147560   3.591   3.435   3.402 -0.1127 -0.4422 -0.4617
 8715TIP3    H247561   3.690   3.367   3.495  0.3552  1.6640  0.6378
 8716TIP3   OH247562   4.878   3.007   5.573 -0.2630  0.0363  0.0385
 8716TIP3    H147563   4.968   2.976   5.585  0.4586  2.0208  0.2345
 8716TIP3    H247564   4.823   2.934   5.601  1.3166 -0.6027  1.6590
 8717TIP3   OH247565   1.969   3.642   5.926 -0.8212 -0.0993  0.4027
 8717TIP3    H147566   2.042   3.582   5.940 -1.8398 -1.3255  0.6210
 8717TIP3    H247567   1.999   3.725   5.963  0.3888 -0.6146  0.6360
 8718TIP3   OH247568   3.020   3.207   6.090  0.0600  0.0795  0.1514
 8718TIP3    H147569   3.100   3.158   6.069 -0.7246 -1.0208 -0.4204
 8718TIP3    H247570   2.992   3.245   6.007 -0.3873 -0.1498  0.1886
 8719TIP3   OH247571   0.736   6.045   1.246 -0.1179  0.3179  0.7057
 8719TIP3    H147572   0.652   6.051   1.293 -0.7419  0.3313 -0.3919
 8719TIP3    H247573   0.777   5.966   1.280 -2.0040 -1.4998 -0.9775
 8720TIP3   OH247574   5.300   6.281  11.059 -0.0234  0.0300 -0.1154
 8720TIP3    H147575   5.312   6.222  10.985  0.3098 -1.3402  0.9826
 8720TIP3    H247576   5.388   6.310  11.082 -0.0427 -0.1512  0.2007
 8721TIP3   OH247577   2.085   5.508   4.234  0.4189 -0.4241  0.0783
 8721TIP3    H147578   2.004   5.463   4.258  0.1328  0.8993  1.8019
 8721TIP3    H247579   2.059   5.599   4.218  1.6835  0.3652  2.0403
 8722TIP3   OH247580   0.119   1.531  16.332  0.1888  0.3331  0.4176
 8722TIP3    H147581   0.100   1.620  16.362 -0.1298 -0.0247  1.3099
 8722TIP3    H247582   0.118   1.537  16.237 -4.0414  0.5072  0.2792
 8723TIP3   OH247583   3.519   2.084  14.901 -0.2798  0.0101  0.3784
 8723TIP3    H147584   3.550   2.127  14.981 -2.5623  0.4311  1.1057
 8723TIP3    H247585   3.568   2.127  14.830 -1.4532  2.9761  1.1818
 8724TIP3   OH247586   3.832   3.108  16.548 -0.0632 -0.5457  0.1659
 8724TIP3    H147587   3.828   3.115  16.452 -4.1318  3.0279  0.2913
 8724TIP3    H247588   3.896   3.173  16.574 -0.2768 -0.2366 -0.0744
 8725TIP3   OH247589   0.041   6.488   0.321 -0.1027  0.3261 -0.3894
 8725TIP3    H147590   0.035   6.524   0.409 -2.5996  0.0939 -0.3942
 8725TIP3    H247591   0.133   6.498   0.297  0.5118  0.9611  1.9791
 8726TIP3   OH247592   5.620   4.018  16.011  0.2206 -0.3434  1.0032
 8726TIP3    H147593   5.620   3.965  16.091 -1.3831  1.5249  2.3455
 8726TIP3    H247594   5.529   4.042  15.999  0.8455  1.8784  0.3366
 8727TIP3   OH247595   6.085   6.649  14.040 -0.1156 -0.6901 -0.0610
 8727TIP3    H147596   6.022   6.633  14.110 -1.5094 -1.9983 -1.5294
 8727TIP3    H247597   6.063   6.736  14.008  1.2049  0.3695  1.7184
 8728TIP3   OH247598   0.472   5.958   3.084  0.7142  0.4246 -0.0812
 8728TIP3    H147599   0.386   5.936   3.121  0.4653 -1.0109 -1.3830
 8728TIP3    H247600   0.534   5.929   3.151  0.2676 -1.8447 -0.5526
 8729TIP3   OH247601   0.582   2.390   0.591  0.2622 -0.2603 -0.4606
 8729TIP3    H147602   0.542   2.471   0.623  0.9806 -0.4816  1.1075
 8729TIP3    H247603   0.599   2.406   0.498 -0.1054  1.1813 -0.2993
 8730TIP3   OH247604   0.235   4.939  11.981  0.2219 -0.1396  0.1677
 8730TIP3    H147605   0.163   4.917  12.039 -1.8230  0.8554 -1.8495
 8730TIP3    H247606   0.279   5.012  12.023  0.0483 -0.7198  1.3980
 8731TIP3   OH247607   0.946   3.838   0.857  0.4665 -0.0376  0.5056
 8731TIP3    H147608   0.946   3.756   0.807  2.7672  0.5920 -0.6573
 8731TIP3    H247609   0.907   3.814   0.941 -0.9044 -1.8007 -0.5520
 8732TIP3   OH247610   3.901   2.385  15.060  0.2944  0.2563 -0.0935
 8732TIP3    H147611   3.931   2.294  15.069  1.0510  0.3953 -1.0773
 8732TIP3    H247612   3.850   2.385  14.979  1.4309  0.9841 -0.8299
 8733TIP3   OH247613   3.199   2.561  13.824  0.4168  0.1004 -0.1861
 8733TIP3    H147614   3.176   2.564  13.917 -0.9196 -0.8485 -0.4580
 8733TIP3    H247615   3.239   2.646  13.807  1.3859  0.0082  1.4171
 8734TIP3   OH247616   3.729   1.006  13.551 -0.0858  0.1952 -0.1686
 8734TIP3    H147617   3.764   1.000  13.462  0.9867  0.8170  0.1910
 8734TIP3    H247618   3.643   0.964  13.546  0.5780 -1.0912 -1.1512
 8735TIP3   OH247619   2.220   0.813   9.984 -0.2578  0.2194  0.1228
 8735TIP3    H147620   2.273   0.830   9.906  0.0898  0.2728  0.3664
 8735TIP3    H247621   2.176   0.730   9.967  0.3719 -0.1296  0.1618
 8736TIP3   OH247622   1.405   4.617   3.677 -0.4004  0.1983  0.5616
 8736TIP3    H147623   1.431   4.557   3.606  2.6557  1.1182  0.7351
 8736TIP3    H247624   1.376   4.696   3.632 -1.2807 -0.2353  0.3493
 8737TIP3   OH247625   0.958   5.190  16.601 -0.6067  0.0323  0.3975
 8737TIP3    H147626   0.932   5.276  16.636 -0.2274  1.3979 -2.3684
 8737TIP3    H247627   0.911   5.183  16.518 -0.6041 -2.4791  0.5396
 8738TIP3   OH247628   5.052   4.419  15.572 -0.3199  0.2284 -0.2004
 8738TIP3    H147629   4.984   4.479  15.604  1.1379  0.7749  2.0525
 8738TIP3    H247630   5.024   4.333  15.603 -0.3326  0.3463  0.1185
 8739TIP3   OH247631   2.155   2.971  16.067  0.5043  0.5267 -0.1473
 8739TIP3    H147632   2.211   3.001  16.139 -0.6542 -0.1589  1.1058
 8739TIP3    H247633   2.065   2.983  16.100 -0.0674  0.3575 -1.5629
 8740TIP3   OH247634   1.651   3.483  14.492  0.1880  0.3181  0.4855
 8740TIP3    H147635   1.725   3.533  14.457  1.7163 -1.0652  1.5602
 8740TIP3    H247636   1.620   3.535  14.566  0.9897  0.2916  0.8583
 8741TIP3   OH247637   5.854   2.391   2.500 -0.4815 -0.1992  0.1203
 8741TIP3    H147638   5.829   2.349   2.418 -0.3762  0.9951 -0.5303
 8741TIP3    H247639   5.948   2.377   2.507 -0.3498  0.4177 -0.3847
 8742TIP3   OH247640   0.353   2.691  12.203  0.5982 -0.6121  0.0421
 8742TIP3    H147641   0.268   2.708  12.163  2.2275 -0.3384 -3.7560
 8742TIP3    H247642   0.342   2.610  12.252 -1.5531 -1.2411 -1.3681
 8743TIP3   OH247643   6.237   1.813  13.992 -0.3655 -0.5674  0.2308
 8743TIP3    H147644   6.313   1.779  14.039 -0.0085  1.5414  1.3324
 8743TIP3    H247645   6.175   1.836  14.061  0.0291  2.2813 -0.2097
 8744TIP3   OH247646   0.848   2.475   5.800  0.0228  1.0065  0.4243
 8744TIP3    H147647   0.759   2.441   5.810  0.2129  0.2570 -0.3067
 8744TIP3    H247648   0.860   2.481   5.706  0.8060  0.9448  0.5183
 8745TIP3   OH247649   1.466   3.003  10.961  0.0202  0.2086  0.2839
 8745TIP3    H147650   1.417   3.079  10.993 -0.3067  0.3211 -0.4665
 8745TIP3    H247651   1.412   2.968  10.890 -0.0939 -1.0318  0.9538
 8746TIP3   OH247652   5.296   1.397  14.977 -0.2306 -0.6625 -0.1577
 8746TIP3    H147653   5.226   1.375  15.038  0.4992 -1.9479  0.2574
 8746TIP3    H247654   5.295   1.325  14.913  0.8878 -0.8628  0.0304
 8747TIP3   OH247655   0.808   3.705  13.884  1.0328  0.2120 -0.5534
 8747TIP3    H147656   0.766   3.791  13.873  0.2877 -0.1353 -0.5048
 8747TIP3    H247657   0.868   3.717  13.957 -0.3780  0.2382  0.6520
 8748TIP3   OH247658   3.275   5.013   1.483 -0.1599  0.0988  0.2149
 8748TIP3    H147659   3.269   4.996   1.389  0.3868 -1.3915  0.4227
 8748TIP3    H247660   3.280   5.109   1.490  0.4988  0.2043 -1.3128
 8749TIP3   OH247661   0.304   1.677   4.588  0.1964  0.2387 -0.2324
 8749TIP3    H147662   0.238   1.695   4.522  0.1327  1.6537  0.1919
 8749TIP3    H247663   0.387   1.682   4.541  0.1432  1.1245 -0.2506
 8750TIP3   OH247664   5.300   2.209   1.099 -0.1010  0.4679 -0.6806
 8750TIP3    H147665   5.223   2.262   1.120 -0.4978  0.0420 -1.0284
 8750TIP3    H247666   5.295   2.196   1.004  0.2278  0.1701 -0.6603
 8751TIP3   OH247667   5.745   0.222   4.251  0.1815 -0.0307 -0.0948
 8751TIP3    H147668   5.778   0.153   4.193  1.8001 -0.8114  1.6525
 8751TIP3    H247669   5.816   0.285   4.255  1.0256 -1.0373  2.6364
 8752TIP3   OH247670   6.251   3.596   4.675  0.4444 -1.0836  0.4550
 8752TIP3    H147671   6.243   3.579   4.769 -0.3148 -0.1294  0.5821
 8752TIP3    H247672   6.328   3.652   4.667 -0.7645  0.6867  0.7914
 8753TIP3   OH247673   4.393   0.454  14.186  0.5084  0.7573 -0.1624
 8753TIP3    H147674   4.373   0.461  14.093 -2.1881  1.2173  0.3853
 8753TIP3    H247675   4.378   0.362  14.206 -0.0911  0.9056  0.0643
 8754TIP3   OH247676   2.991   5.494  12.094 -0.3823  0.3452 -0.0353
 8754TIP3    H147677   3.013   5.403  12.117 -0.6571  0.1920 -0.3725
 8754TIP3    H247678   3.037   5.547  12.159  0.5495  0.0073 -0.4005
 8755TIP3   OH247679   1.562   1.515  11.939  0.3185  0.6261 -0.4854
 8755TIP3    H147680   1.598   1.571  12.009 -3.1236 -1.3569  3.2735
 8755TIP3    H247681   1.586   1.426  11.965 -2.2583 -0.2839 -0.9558
 8756TIP3   OH247682   3.125   2.286  12.407  0.6393  0.4193  0.0585
 8756TIP3    H147683   3.093   2.198  12.426 -1.3007  1.1066  0.2112
 8756TIP3    H247684   3.136   2.326  12.493 -0.8789  1.0934 -0.0315
 8757TIP3   OH247685   5.986   6.272  14.110 -0.1745  0.0342  0.5773
 8757TIP3    H147686   5.956   6.312  14.191 -0.4150 -1.8995  1.5044
 8757TIP3    H247687   6.028   6.190  14.138  0.7700 -0.1321 -1.1612
 8758TIP3   OH247688   5.335   5.708   0.670  0.1505  0.3088 -0.2507
 8758TIP3    H147689   5.419   5.689   0.712 -0.4166  1.6952  1.6223
 8758TIP3    H247690   5.276   5.730   0.742 -1.4300  0.8320 -1.6413
 8759TIP3   OH247691   1.043   4.956   0.802  0.2443 -0.0974 -0.0412
 8759TIP3    H147692   1.120   4.930   0.752 -0.6970  0.0297 -1.6234
 8759TIP3    H247693   0.996   5.016   0.744 -1.8338 -1.3412  0.2428
 8760TIP3   OH247694   5.179   3.197   3.137 -0.1268  0.6943 -0.4595
 8760TIP3    H147695   5.246   3.153   3.084 -0.1251  1.1101 -0.8083
 8760TIP3    H247696   5.154   3.132   3.203 -0.6497 -0.0973 -1.4108
 8761TIP3   OH247697   0.934   3.215   4.168  0.0317  0.0991 -0.3126
 8761TIP3    H147698   0.922   3.185   4.078 -1.7525 -0.1221 -0.0480
 8761TIP3    H247699   0.892   3.301   4.170  1.0431  0.5910  0.0499
 8762TIP3   OH247700   0.214   3.627  16.712 -0.1960 -0.5679 -0.3616
 8762TIP3    H147701   0.275   3.701  16.715 -1.2252  0.3782 -1.4981
 8762TIP3    H247702   0.266   3.554  16.679  0.4842  0.0659 -0.7263
 8763TIP3   OH247703   3.850   4.962   6.141  0.6502  0.1018  0.4854
 8763TIP3    H147704   3.854   4.918   6.226 -0.5756 -0.4752  0.2632
 8763TIP3    H247705   3.855   4.891   6.077  0.5089  0.4400  0.0926
 8764TIP3   OH247706   4.673   6.667   3.916 -0.1718  0.0783 -0.1472
 8764TIP3    H147707   4.767   6.659   3.929 -0.2798 -0.0218  0.6015
 8764TIP3    H247708   4.661   6.656   3.822  0.3659 -1.9180 -0.0116
 8765TIP3   OH247709   5.386   4.325  11.176 -0.3426  0.0079 -0.1596
 8765TIP3    H147710   5.430   4.333  11.091  0.7767  1.8643  0.5487
 8765TIP3    H247711   5.451   4.284  11.233 -0.9159 -0.7761 -0.0599
 8766TIP3   OH247712   5.725   5.888   1.604  0.0927  0.0295 -0.6203
 8766TIP3    H147713   5.754   5.970   1.646  2.7104  0.0527 -2.2490
 8766TIP3    H247714   5.739   5.821   1.672 -1.0970  0.7637  0.3854
 8767TIP3   OH247715   4.506   3.088  15.138 -0.5734 -0.3755  0.3769
 8767TIP3    H147716   4.426   3.038  15.119  0.4613 -1.8946 -0.0832
 8767TIP3    H247717   4.515   3.147  15.064 -0.0161 -1.8491 -0.7670
 8768TIP3   OH247718   0.810   2.679  10.951  0.3087  0.1130 -0.2227
 8768TIP3    H147719   0.730   2.631  10.974  0.5219 -0.3969 -0.5422
 8768TIP3    H247720   0.790   2.717  10.866  1.2832 -2.1084 -1.5334
 8769TIP3   OH247721   3.651   4.342   2.508 -0.0781  0.1598 -0.4668
 8769TIP3    H147722   3.566   4.298   2.516  0.6905 -1.2658  0.3415
 8769TIP3    H247723   3.632   4.424   2.464 -1.6753 -0.7663 -1.5930
 8770TIP3   OH247724   5.056   6.458   3.179 -0.1706  0.0942  0.2912
 8770TIP3    H147725   5.122   6.524   3.159 -0.0027 -0.3390 -0.6140
 8770TIP3    H247726   5.061   6.395   3.107 -0.4290 -0.8294  1.0480
 8771TIP3   OH247727   4.074   6.803   0.330  0.0386 -0.3125 -0.0072
 8771TIP3    H147728   4.036   6.885   0.361  0.3337 -0.3995  0.5932
 8771TIP3    H247729   3.999   6.752   0.300 -0.4121 -0.6885  1.6429
 8772TIP3   OH247730   2.135   3.679   0.941  0.1775  0.3465 -0.0851
 8772TIP3    H147731   2.094   3.732   1.010 -0.7079 -0.0456 -0.2967
 8772TIP3    H247732   2.075   3.605   0.930  1.3893 -0.7016  0.1998
 8773TIP3   OH247733   0.539   6.812   0.722 -0.4395 -0.5095  0.0070
 8773TIP3    H147734   0.555   6.742   0.785 -0.2070 -0.6976 -0.2537
 8773TIP3    H247735   0.626   6.848   0.704 -0.5305 -0.3107 -0.0356
 8774TIP3   OH247736   3.397   1.166  13.996  0.2178  0.1644 -0.4735
 8774TIP3    H147737   3.381   1.243  14.050  1.1010  1.3386 -1.8322
 8774TIP3    H247738   3.322   1.163  13.936  1.4666  1.5845 -2.1975
 8775TIP3   OH247739   6.277   6.271  15.156 -0.2567 -0.1981  0.2686
 8775TIP3    H147740   6.366   6.252  15.185 -0.0548  0.3110 -0.0015
 8775TIP3    H247741   6.288   6.332  15.083 -0.8167 -0.3528  0.0504
 8776TIP3   OH247742   4.153   6.791  12.604 -0.1647 -0.3526  0.6869
 8776TIP3    H147743   4.226   6.741  12.568 -1.1618 -2.4874  1.4832
 8776TIP3    H247744   4.175   6.800  12.697 -0.6012 -0.4349  0.7980
 8777TIP3   OH247745   1.296   4.008   3.409  0.1060 -0.0286 -0.2654
 8777TIP3    H147746   1.261   3.994   3.321  1.5347 -1.5296 -0.6481
 8777TIP3    H247747   1.225   3.979   3.467 -0.6958  0.5967 -0.9038
 8778TIP3   OH247748   6.266   2.895  11.440 -0.0050  0.0975  0.1906
 8778TIP3    H147749   6.224   2.849  11.512  0.5894 -0.2505  0.3187
 8778TIP3    H247750   6.360   2.893  11.461  0.3825 -1.5137 -1.4210
 8779TIP3   OH247751   6.602   1.286   3.189  0.0204  0.7096  0.1138
 8779TIP3    H147752   6.535   1.222   3.165  0.6665 -0.0550  0.2616
 8779TIP3    H247753   6.685   1.239   3.177  0.4756  1.2083  1.1239
 8780TIP3   OH247754   3.212   1.542   2.067 -0.2216 -0.5778 -0.0667
 8780TIP3    H147755   3.288   1.590   2.099 -0.3567  0.1506 -0.8190
 8780TIP3    H247756   3.246   1.455   2.047  0.7305  0.1264 -1.6564
 8781TIP3   OH247757   2.993   5.030   0.846  0.1639 -0.0386  0.0431
 8781TIP3    H147758   2.971   5.101   0.906  0.3243 -0.5433  0.7164
 8781TIP3    H247759   3.070   4.988   0.886  1.1870  0.5156 -1.2721
 8782TIP3   OH247760   1.381   4.397  14.514 -0.1637 -0.1236 -0.2630
 8782TIP3    H147761   1.329   4.478  14.511 -1.5836 -1.0142 -0.8833
 8782TIP3    H247762   1.331   4.339  14.571  1.6152 -0.0953  1.4170
 8783TIP3   OH247763   0.517   6.772   3.279  0.0584 -0.1529  0.3371
 8783TIP3    H147764   0.424   6.783   3.298  0.0137  0.0587 -0.0095
 8783TIP3    H247765   0.544   6.854   3.238  0.4694 -0.0954  0.7020
 8784TIP3   OH247766   4.343   4.449  15.572 -0.8779  0.5892 -0.0841
 8784TIP3    H147767   4.257   4.408  15.586 -1.2053  1.5159  0.7344
 8784TIP3    H247768   4.331   4.540  15.600  0.5772  0.5507  0.7841
 8785TIP3   OH247769   1.636   5.984  10.196  0.6066 -0.0752  0.3007
 8785TIP3    H147770   1.671   6.072  10.208 -2.9203  1.3436  1.4231
 8785TIP3    H247771   1.570   5.994  10.128 -0.8171 -1.5243  1.4128
 8786TIP3   OH247772   5.204   0.906   4.915  0.8662  0.3554  0.3491
 8786TIP3    H147773   5.257   0.932   4.840  0.8412  0.5678  0.4045
 8786TIP3    H247774   5.252   0.938   4.991  0.0029  1.7458  0.3450
 8787TIP3   OH247775   6.208   4.138  12.894  0.3008  0.5394 -0.3759
 8787TIP3    H147776   6.172   4.073  12.954 -1.3859  0.9584 -0.8893
 8787TIP3    H247777   6.249   4.087  12.824  2.1914  0.0454  0.9896
 8788TIP3   OH247778   6.170   2.855   4.432 -0.9094 -0.0649 -0.1983
 8788TIP3    H147779   6.182   2.762   4.417 -0.5424 -0.4401  2.0598
 8788TIP3    H247780   6.173   2.894   4.344  1.0604 -1.9002 -1.0444
 8789TIP3   OH247781   2.688   6.079   0.028  0.3392  0.1436 -0.6624
 8789TIP3    H147782   2.640   6.006  -0.010  0.8164  0.5426 -2.0787
 8789TIP3    H247783   2.630   6.111   0.098 -0.2002 -1.0974 -0.5123
 8790TIP3   OH247784   6.113   2.472  12.223 -0.3154  0.1571  0.3496
 8790TIP3    H147785   6.091   2.417  12.298 -1.4334  0.3574  0.1788
 8790TIP3    H247786   6.143   2.554  12.262  1.3550 -0.5285  0.6043
 8791TIP3   OH247787   6.652   6.603  14.710 -0.1359 -0.2169  0.2898
 8791TIP3    H147788   6.571   6.635  14.670  0.9322  0.8853 -1.0783
 8791TIP3    H247789   6.636   6.509  14.722 -1.1537 -0.2792 -1.1851
 8792TIP3   OH247790   1.368   3.091   5.789 -0.5684  0.5458  0.0050
 8792TIP3    H147791   1.326   3.011   5.820 -1.2342  1.4113  1.4560
 8792TIP3    H247792   1.323   3.112   5.707 -1.9175  0.6005  0.7388
 8793TIP3   OH247793   4.542   3.015  13.141  0.1611  0.5012  0.3294
 8793TIP3    H147794   4.624   3.060  13.162  0.6913 -0.5665  0.6085
 8793TIP3    H247795   4.557   2.924  13.168 -0.7210  0.0541 -0.6268
 8794TIP3   OH247796   4.941   4.196  15.713 -0.4337 -0.0277 -0.2772
 8794TIP3    H147797   4.915   4.104  15.704 -0.8597  0.0242  0.2945
 8794TIP3    H247798   4.992   4.198  15.794  2.0365 -0.2493 -1.7261
 8795TIP3   OH247799   2.951   1.474  16.283 -0.0471  0.6392 -0.0583
 8795TIP3    H147800   2.894   1.406  16.319 -1.2316  2.1116  1.0053
 8795TIP3    H247801   3.035   1.431  16.270 -0.6519 -0.9300  0.9364
 8796TIP3   OH247802   1.809   4.163  15.726  0.0830  0.6141 -0.4763
 8796TIP3    H147803   1.713   4.160  15.726  0.0916 -0.0636  0.0589
 8796TIP3    H247804   1.832   4.167  15.819  0.5639  1.6820 -0.6216
 8797TIP3   OH247805   5.129   6.654   4.115 -0.3550  0.2189 -0.2328
 8797TIP3    H147806   5.176   6.634   4.196 -0.6163  0.3003 -0.0585
 8797TIP3    H247807   5.165   6.738   4.087  0.8589 -0.5472 -1.0519
 8798TIP3   OH247808   2.121   1.211   4.601 -0.5789  0.0457 -0.1551
 8798TIP3    H147809   2.119   1.302   4.571  2.2809 -0.4951 -2.4614
 8798TIP3    H247810   2.160   1.215   4.688 -1.5313  1.0813  0.2487
 8799TIP3   OH247811   5.182   3.190   0.589 -0.2768  0.0709 -0.4462
 8799TIP3    H147812   5.191   3.219   0.680 -0.3718 -1.3945  0.0479
 8799TIP3    H247813   5.088   3.197   0.572 -0.5071 -1.2734  0.1523
 8800TIP3   OH247814   5.198   6.542  12.564  0.0863 -0.1565  0.4488
 8800TIP3    H147815   5.289   6.531  12.591  1.3715 -0.5967 -3.3722
 8800TIP3    H247816   5.194   6.631  12.530 -1.2959  0.2700  1.6509
 8801TIP3   OH247817   5.586   0.381   2.059  0.0483 -0.2969 -0.0211
 8801TIP3    H147818   5.508   0.352   2.107  0.0825 -0.5180 -0.0961
 8801TIP3    H247819   5.553   0.402   1.971  0.3342 -2.0111 -0.5781
 8802TIP3   OH247820   0.743   3.352  14.306 -1.0644 -0.5166  0.1685
 8802TIP3    H147821   0.746   3.276  14.365  1.4525 -0.4640  0.2159
 8802TIP3    H247822   0.695   3.320  14.229  0.9314 -2.6401 -0.3239
 8803TIP3   OH247823   6.274   4.794   0.394 -0.1040  0.0706 -0.2786
 8803TIP3    H147824   6.235   4.709   0.412  0.9385 -0.2414  0.6484
 8803TIP3    H247825   6.265   4.805   0.299 -0.8716 -0.7463 -0.3155
 8804TIP3   OH247826   1.984   3.736   4.594  0.0928 -0.1894  0.5964
 8804TIP3    H147827   2.053   3.763   4.654  0.9142 -1.0818  0.0772
 8804TIP3    H247828   1.960   3.648   4.622 -0.4597 -0.0949  0.4363
 8805TIP3   OH247829   5.858   0.784   0.521 -0.2372  0.0092  0.2954
 8805TIP3    H147830   5.914   0.833   0.460  0.6526 -1.3491 -0.0210
 8805TIP3    H247831   5.866   0.832   0.603 -0.9969  1.5396 -0.4758
 8806TIP3   OH247832   2.607   6.240  13.049  0.5878  0.7130  0.5504
 8806TIP3    H147833   2.556   6.159  13.048  0.6687  0.6646  0.4285
 8806TIP3    H247834   2.570   6.293  12.979 -0.9643  1.7014  2.0545
 8807TIP3   OH247835   0.645   1.430  15.936 -0.3702 -0.2114 -0.5826
 8807TIP3    H147836   0.636   1.335  15.941  0.3299 -0.2316  0.6933
 8807TIP3    H247837   0.561   1.460  15.901 -2.4426 -0.9988  3.0927
 8808TIP3   OH247838   3.039   3.514   0.537  0.3310 -0.1298 -0.5612
 8808TIP3    H147839   3.080   3.453   0.598 -0.3701  0.5122  0.5777
 8808TIP3    H247840   3.021   3.461   0.459  1.2665 -0.9552 -0.2379
 8809TIP3   OH247841   0.637   4.139   3.078  0.6856 -0.3836 -0.4074
 8809TIP3    H147842   0.648   4.177   2.991  2.3508 -0.9777 -0.5008
 8809TIP3    H247843   0.660   4.210   3.138 -3.8759  1.2280 -0.1671
 8810TIP3   OH247844   0.821   2.022  14.715  0.1923  0.0598 -0.0559
 8810TIP3    H147845   0.879   2.015  14.639  1.5038  0.6724  0.8397
 8810TIP3    H247846   0.733   2.025  14.678  0.7961  0.3994 -1.5555
 8811TIP3   OH247847   5.762   5.283  13.659  0.4022 -0.2052  0.3085
 8811TIP3    H147848   5.755   5.375  13.636 -0.7281 -0.3376  0.0790
 8811TIP3    H247849   5.719   5.237  13.587  1.3186 -0.9493  0.2084
 8812TIP3   OH247850   5.806   0.184  16.004  0.3766 -0.1268  0.6874
 8812TIP3    H147851   5.767   0.268  15.980  0.6658  0.1942  1.3293
 8812TIP3    H247852   5.900   0.196  15.990  0.4061 -0.3864  0.6579
 8813TIP3   OH247853   1.611   1.346   1.689 -0.5646  0.0184 -0.2036
 8813TIP3    H147854   1.548   1.317   1.754 -0.9418  0.5247 -0.3307
 8813TIP3    H247855   1.563   1.409   1.635  0.1954  0.8512  0.0461
 8814TIP3   OH247856   3.967   3.720  13.244  0.0639 -0.7076  0.3201
 8814TIP3    H147857   3.991   3.682  13.159  0.0059  0.4403 -0.2224
 8814TIP3    H247858   3.952   3.644  13.300  0.4243 -1.4853 -0.6051
 8815TIP3   OH247859   2.212   4.110  16.291 -0.7447 -0.3986  0.0330
 8815TIP3    H147860   2.136   4.057  16.269 -0.1805 -0.9886 -0.5632
 8815TIP3    H247861   2.271   4.099  16.216 -0.0271 -0.0443  0.5340
 8816TIP3   OH247862   6.642   5.908  10.694 -0.4393 -0.0218  0.3037
 8816TIP3    H147863   6.602   5.955  10.621  0.4273  0.0918 -0.1094
 8816TIP3    H247864   6.669   5.976  10.755  0.1932 -0.0123  0.0235
 8817TIP3   OH247865   0.528   6.764  14.374  0.0712 -0.1325 -0.2151
 8817TIP3    H147866   0.472   6.829  14.332  0.6156 -1.3389 -2.9993
 8817TIP3    H247867   0.533   6.792  14.466 -1.5952  2.3711 -0.8031
 8818TIP3   OH247868   2.779   4.222   4.083 -0.5253  0.4914 -0.1686
 8818TIP3    H147869   2.827   4.193   4.006 -0.9103 -2.6767  0.6320
 8818TIP3    H247870   2.844   4.267   4.137 -0.2675  2.8000 -2.2572
 8819TIP3   OH247871   3.598   6.222   5.003  0.0281 -0.3177 -0.2051
 8819TIP3    H147872   3.534   6.261   4.943 -0.4812 -1.2382 -0.2721
 8819TIP3    H247873   3.578   6.260   5.088 -1.0461 -1.0891 -0.0974
 8820TIP3   OH247874   4.825   2.751  12.658 -0.1175  0.1756  0.1347
 8820TIP3    H147875   4.783   2.829  12.621 -1.3003  0.3320  1.6994
 8820TIP3    H247876   4.814   2.761  12.753  0.6769 -1.3708  0.4165
 8821TIP3   OH247877   4.038   6.237  12.301 -0.6927  0.4012 -0.0945
 8821TIP3    H147878   4.066   6.320  12.338 -0.2543  0.3966 -0.4063
 8821TIP3    H247879   4.019   6.257  12.209 -1.9976  0.4653  0.1720
 8822TIP3   OH247880   5.329   1.310  13.402 -0.0989  0.3118  0.4511
 8822TIP3    H147881   5.256   1.296  13.462  1.2664  1.8848  2.6335
 8822TIP3    H247882   5.372   1.389  13.435  2.2818 -0.2542 -1.0563
 8823TIP3   OH247883   2.950   6.142   1.182  0.3395 -0.1429 -0.1329
 8823TIP3    H147884   3.028   6.198   1.176  0.0705  0.3007  0.3725
 8823TIP3    H247885   2.978   6.057   1.148  1.6146 -0.5680  1.7987
 8824TIP3   OH247886   6.371   3.261  13.291 -0.1666  0.3978  0.0249
 8824TIP3    H147887   6.360   3.217  13.207 -0.5966  1.3921 -0.4634
 8824TIP3    H247888   6.372   3.191  13.355  0.5996 -0.4120 -0.8449
 8825TIP3   OH247889   1.208   6.133   0.459 -0.5432  0.4013  0.3883
 8825TIP3    H147890   1.297   6.165   0.473 -0.3300 -0.1117  0.2437
 8825TIP3    H247891   1.152   6.196   0.503 -0.1927  1.4578 -0.6376
 8826TIP3   OH247892   6.190   2.158  10.729  0.1991  0.1278  0.0749
 8826TIP3    H147893   6.280   2.155  10.760 -0.2467 -1.2859  1.3948
 8826TIP3    H247894   6.143   2.096  10.786 -1.7047  1.2047 -0.2119
 8827TIP3   OH247895   3.941   2.806   5.810  0.2640  0.2259  0.4960
 8827TIP3    H147896   3.892   2.830   5.889 -0.4767  0.1014  0.0856
 8827TIP3    H247897   4.012   2.750   5.842 -0.7655 -0.8606  0.9618
 8828TIP3   OH247898   0.307   1.572  14.624 -0.0974  0.6297 -0.0677
 8828TIP3    H147899   0.311   1.633  14.698 -1.3691 -0.6303  1.0916
 8828TIP3    H247900   0.366   1.501  14.648 -0.5790  0.1739 -0.2112
 8829TIP3   OH247901   4.154   3.189  13.973 -0.1611  0.1723  1.1804
 8829TIP3    H147902   4.161   3.098  13.947 -0.7257  0.2489  0.7436
 8829TIP3    H247903   4.193   3.193  14.060 -1.0044 -0.6599  1.6008
 8830TIP3   OH247904   0.786   6.081   1.599 -0.2552  0.6187 -0.5234
 8830TIP3    H147905   0.704   6.051   1.561 -0.5898  0.7142  0.1094
 8830TIP3    H247906   0.824   6.139   1.533  0.5689 -1.4007 -1.9383
 8831TIP3   OH247907   0.151   0.497  13.918 -0.0216 -0.4354  0.4818
 8831TIP3    H147908   0.154   0.510  14.013  1.0344  0.2933  0.3616
 8831TIP3    H247909   0.151   0.586  13.881 -1.7618 -0.6746 -0.1948
 8832TIP3   OH247910   0.839   5.567  11.639 -0.0653  0.1362 -0.1218
 8832TIP3    H147911   0.870   5.648  11.597 -1.3136  0.3945 -0.5873
 8832TIP3    H247912   0.893   5.560  11.719  0.6151  0.9842 -0.4829
 8833TIP3   OH247913   1.768   0.456  10.429 -0.4073  0.2253 -0.6188
 8833TIP3    H147914   1.797   0.365  10.432 -2.9682 -0.6557  0.0221
 8833TIP3    H247915   1.812   0.497  10.504  0.5725 -0.5202 -0.7635
 8834TIP3   OH247916   0.416   5.122  14.894 -0.3978 -0.2061  0.2905
 8834TIP3    H147917   0.334   5.164  14.921 -0.2460  0.4084 -0.1654
 8834TIP3    H247918   0.445   5.174  14.819  0.2849 -0.5677  0.3005
 8835TIP3   OH247919   0.601   6.649  15.489  0.0338 -0.1600  0.1096
 8835TIP3    H147920   0.622   6.644  15.395 -0.2528  1.9132 -0.1233
 8835TIP3    H247921   0.607   6.559  15.520  1.2448 -0.7551 -1.6665
 8836TIP3   OH247922   0.373   1.942  15.179 -0.0587 -0.5768  0.3094
 8836TIP3    H147923   0.337   1.866  15.224 -0.6488 -1.4076 -1.4920
 8836TIP3    H247924   0.447   1.908  15.129  0.6409  0.3411  0.6861
 8837TIP3   OH247925   0.800   0.315   2.470 -0.3615  0.3308 -1.0241
 8837TIP3    H147926   0.779   0.305   2.377  1.0269 -0.7650 -1.2542
 8837TIP3    H247927   0.723   0.281   2.515 -0.7305  0.1490 -1.7635
 8838TIP3   OH247928   6.061   1.899  16.400 -0.2457 -0.5241  0.4669
 8838TIP3    H147929   6.030   1.926  16.487  0.3575  0.0869  0.4967
 8838TIP3    H247930   6.056   1.804  16.402  0.0442 -0.5284  1.2777
 8839TIP3   OH247931   5.502   3.560   2.274  0.1330 -0.1674  0.2199
 8839TIP3    H147932   5.436   3.535   2.338 -0.1223  1.0664  0.4545
 8839TIP3    H247933   5.559   3.483   2.268 -1.4670 -1.3535 -0.2065
 8840TIP3   OH247934   4.707   4.238  16.036  0.5155 -0.4346  0.1287
 8840TIP3    H147935   4.744   4.326  16.042 -3.9185  1.8010 -0.6530
 8840TIP3    H247936   4.633   4.239  16.097  0.7953 -4.0305  0.7576
 8841TIP3   OH247937   2.102   4.105   4.922  0.2098 -0.1441 -0.7249
 8841TIP3    H147938   2.090   4.162   4.999  1.3719 -0.6582 -0.1484
 8841TIP3    H247939   2.026   4.047   4.923  0.5947 -0.6570  0.4988
 8842TIP3   OH247940   1.388   3.097  14.081  0.2995  0.1944  0.3519
 8842TIP3    H147941   1.358   3.077  13.992  0.5470  1.1273  0.0454
 8842TIP3    H247942   1.396   3.012  14.123  1.8639 -0.4333 -1.0726
 8843TIP3   OH247943   3.372   6.692   3.841 -0.3468  0.0289  0.0352
 8843TIP3    H147944   3.365   6.787   3.855  0.3145  0.1258 -0.2563
 8843TIP3    H247945   3.443   6.682   3.777 -0.0546 -0.6972  0.4624
 8844TIP3   OH247946   6.009   4.016  11.061  0.2966 -0.2490 -0.2280
 8844TIP3    H147947   6.060   4.097  11.056  1.2000 -0.7968 -0.1120
 8844TIP3    H247948   6.070   3.948  11.032 -0.6855 -0.7946 -1.0742
 8845TIP3   OH247949   2.168   5.108  13.245 -0.1541  0.6074  0.5650
 8845TIP3    H147950   2.114   5.186  13.248 -1.4720 -0.2137 -0.6207
 8845TIP3    H247951   2.242   5.131  13.189 -0.6615  0.9239  0.0284
 8846TIP3   OH247952   3.757   6.723  16.562  0.4313 -0.1450 -0.3929
 8846TIP3    H147953   3.703   6.799  16.540 -1.3817 -0.8923  1.1047
 8846TIP3    H247954   3.696   6.663  16.604  2.1291 -1.8040 -0.1829
 8847TIP3   OH247955   2.128   2.262  15.633  0.0446  0.1452 -0.0499
 8847TIP3    H147956   2.122   2.318  15.556 -3.5962 -0.9386 -0.7299
 8847TIP3    H247957   2.175   2.184  15.603  1.8151  1.2000 -0.1186
 8848TIP3   OH247958   4.185   6.209  11.848 -0.2898 -0.0532 -0.1095
 8848TIP3    H147959   4.281   6.217  11.846 -0.2685 -0.1589  0.2986
 8848TIP3    H247960   4.157   6.237  11.761  0.0872  0.3389 -0.1115
 8849TIP3   OH247961   2.904   5.092  11.665 -0.1765 -0.0144  0.3478
 8849TIP3    H147962   2.897   5.001  11.695  0.7546 -0.3738 -0.4627
 8849TIP3    H247963   2.883   5.087  11.572  0.8720  0.4294  0.0751
 8850TIP3   OH247964   2.888   0.868   5.531 -1.1016  0.3392 -0.6544
 8850TIP3    H147965   2.896   0.778   5.560 -0.2043  0.8304  0.7206
 8850TIP3    H247966   2.977   0.894   5.508 -0.9977  1.4378  0.8315
 8851TIP3   OH247967   0.002   2.166  13.460  0.0380  0.2231 -0.5710
 8851TIP3    H147968  -0.015   2.073  13.474 -1.4005  0.1852 -2.2085
 8851TIP3    H247969  -0.029   2.183  13.371  0.5423  2.2111 -0.4171
 8852TIP3   OH247970   0.083   6.248   0.685  0.4188  0.4073  0.3390
 8852TIP3    H147971   0.106   6.305   0.758  0.0369  2.5338 -1.1081
 8852TIP3    H247972   0.146   6.176   0.690  0.0185  0.1310  3.0622
 8853TIP3   OH247973   2.924   3.273  16.419 -0.0958 -0.4173 -0.4874
 8853TIP3    H147974   2.965   3.210  16.359 -0.2404 -0.5318 -0.4650
 8853TIP3    H247975   2.987   3.282  16.491 -1.3854 -2.8779  1.0695
 8854TIP3   OH247976   0.616   0.056   2.128  0.6508 -0.0753 -0.4124
 8854TIP3    H147977   0.529   0.075   2.164  0.5707  2.0355 -1.5778
 8854TIP3    H247978   0.652  -0.010   2.187 -1.1930  0.0170  0.9033
 8855TIP3   OH247979   0.001   5.324   5.906  0.9726  0.3742  0.4061
 8855TIP3    H147980   0.066   5.257   5.883 -0.1308 -1.2326  1.6946
 8855TIP3    H247981  -0.063   5.321   5.835 -1.4933 -3.3276  2.4087
 8856TIP3   OH247982   5.623   3.801   9.935  0.5726  0.0308  0.0616
 8856TIP3    H147983   5.563   3.873   9.954  0.6490  0.0772  0.1278
 8856TIP3    H247984   5.690   3.840   9.879 -0.0251 -0.2651 -0.8908
 8857TIP3   OH247985   1.703   5.289   5.276  0.6355  0.0147 -0.8636
 8857TIP3    H147986   1.634   5.231   5.306  0.9760 -0.6147 -1.2883
 8857TIP3    H247987   1.690   5.296   5.182  0.9756  0.1207 -0.9032
 8858TIP3   OH247988   5.948   4.571   3.178 -0.3333 -0.2483  0.2399
 8858TIP3    H147989   6.036   4.609   3.183 -0.2408 -0.4244 -0.0536
 8858TIP3    H247990   5.890   4.646   3.163 -0.2650 -0.0989  0.6912
 8859TIP3   OH247991   4.748   6.217   1.184 -0.4305  0.2367 -0.2059
 8859TIP3    H147992   4.807   6.161   1.235  0.3608  0.0712 -1.2592
 8859TIP3    H247993   4.662   6.203   1.224 -0.1919 -1.4212 -0.1636
 8860TIP3   OH247994   1.769   4.773  16.274 -0.1450  0.2264 -0.0369
 8860TIP3    H147995   1.709   4.848  16.276  1.0140  1.1622  1.1782
 8860TIP3    H247996   1.835   4.797  16.209  0.0227  0.0932  0.0829
 8861TIP3   OH247997   5.423   5.358   1.276  0.1793 -0.4551  0.0877
 8861TIP3    H147998   5.366   5.389   1.206 -1.3324 -2.4527  0.3282
 8861TIP3    H247999   5.509   5.348   1.234 -0.1942  0.3812 -0.9172
 8862TIP3   OH248000   6.484   0.867  16.114  0.3365  0.5429 -0.4374
 8862TIP3    H148001   6.542   0.837  16.184  0.7859  1.1676 -0.5324
 8862TIP3    H248002   6.396   0.854  16.148  0.5254 -0.2735 -0.2310
 8863TIP3   OH248003   4.658   0.069  11.713  0.1779 -0.1710  0.5750
 8863TIP3    H148004   4.746   0.083  11.678 -0.0191 -0.6676 -0.1259
 8863TIP3    H248005   4.666  -0.009  11.768 -0.1773 -1.2105 -0.8141
 8864TIP3   OH248006   3.299   1.486   0.660  0.6019 -0.1437 -0.0559
 8864TIP3    H148007   3.343   1.568   0.682 -0.8515  0.3257  1.2840
 8864TIP3    H248008   3.264   1.500   0.572 -2.2192  1.9045  1.2526
 8865TIP3   OH248009   4.112   1.050   0.119  0.3524 -0.2743  0.0581
 8865TIP3    H148010   4.168   1.043   0.042 -0.1007  0.1525 -0.3144
 8865TIP3    H248011   4.033   1.000   0.095  0.2676 -0.2540  0.2958
 8866TIP3   OH248012   6.150   5.744  15.402  0.3142 -0.6495 -0.2165
 8866TIP3    H148013   6.113   5.828  15.374 -1.5458 -0.7601  1.6289
 8866TIP3    H248014   6.230   5.768  15.449  1.4950 -0.2151 -2.3233
 8867TIP3   OH248015   1.993   1.480  15.159 -0.2095  0.6693 -0.3123
 8867TIP3    H148016   1.985   1.394  15.199 -0.5048  1.0680  0.5210
 8867TIP3    H248017   1.978   1.466  15.066 -2.1219  0.0903  0.0448
 8868TIP3   OH248018   0.538   0.017   5.242  0.3196 -0.2927  0.3214
 8868TIP3    H148019   0.540   0.046   5.151 -0.5948 -0.3338  0.2775
 8868TIP3    H248020   0.507   0.093   5.290 -0.4815 -0.6743  0.4204
 8869TIP3   OH248021   4.835   5.634   2.489  0.4622 -0.4471 -0.1428
 8869TIP3    H148022   4.805   5.712   2.535  0.3873  0.3535 -1.5115
 8869TIP3    H248023   4.894   5.591   2.551 -0.9197 -0.3080  1.3270
 8870TIP3   OH248024   3.256   0.298   1.538 -0.3571 -0.5067  0.3382
 8870TIP3    H148025   3.260   0.203   1.552  0.7823 -0.4500  0.4804
 8870TIP3    H248026   3.256   0.335   1.626 -0.9877 -0.3635  0.2877
 8871TIP3   OH248027   0.885   1.168  13.977  0.1600  0.3137  0.6679
 8871TIP3    H148028   0.853   1.160  13.888  1.0020  0.3530  0.3549
 8871TIP3    H248029   0.923   1.082  13.997 -0.7057  0.0539  1.2704
 8872TIP3   OH248030   0.715   1.879   0.375  0.1352 -0.0202  0.4702
 8872TIP3    H148031   0.688   1.955   0.322  0.5376  0.7625  1.3640
 8872TIP3    H248032   0.780   1.834   0.320  0.3523  0.6336  0.1732
 8873TIP3   OH248033   2.708   6.512   5.663  0.3835  0.2620 -0.1850
 8873TIP3    H148034   2.710   6.465   5.580 -1.4554 -0.0246 -0.1260
 8873TIP3    H248035   2.624   6.487   5.702  1.5174 -0.2365  2.1299
 8874TIP3   OH248036   1.160   0.206   3.172 -0.5681  0.3811  0.0644
 8874TIP3    H148037   1.179   0.140   3.104  0.8778 -0.1382  0.9366
 8874TIP3    H248038   1.241   0.256   3.181 -0.7270  0.4320  1.4213
 8875TIP3   OH248039   4.962   1.917   3.472 -0.5271  0.1779  0.0463
 8875TIP3    H148040   4.928   1.837   3.514 -0.9598  1.2973  1.9283
 8875TIP3    H248041   5.021   1.955   3.538 -1.4036  2.1285 -0.2310
 8876TIP3   OH248042   0.489   3.858   4.786 -0.5001 -0.8829 -0.6660
 8876TIP3    H148043   0.409   3.882   4.832 -0.2124 -0.5736 -0.3189
 8876TIP3    H248044   0.525   3.786   4.836  0.0962 -0.1927 -0.0781
 8877TIP3   OH248045   6.298   5.676   0.650  1.0540  0.1291 -0.0507
 8877TIP3    H148046   6.275   5.766   0.673 -2.5512 -1.3634  3.5501
 8877TIP3    H248047   6.368   5.653   0.711  2.0837  0.4525 -1.0754
 8878TIP3   OH248048   1.933   4.944   0.112  0.4111  0.5832 -0.7676
 8878TIP3    H148049   1.982   4.999   0.052 -0.2985  0.8954 -1.0744
 8878TIP3    H248050   1.982   4.862   0.114  0.8362  0.8183 -1.2196
 8879TIP3   OH248051   1.419   3.713  11.907  0.2042  0.5545 -0.4981
 8879TIP3    H148052   1.353   3.737  11.972  1.7380 -0.1478  1.4254
 8879TIP3    H248053   1.406   3.619  11.892 -1.2597  1.0219 -2.6376
 8880TIP3   OH248054   6.518   0.086  15.908 -0.0796  0.7569  0.0087
 8880TIP3    H148055   6.597   0.130  15.877  0.6359 -0.8143 -0.4986
 8880TIP3    H248056   6.459   0.087  15.833  0.4143 -0.2035 -0.4095
 8881TIP3   OH248057   4.764   3.326  14.928 -0.2410  0.0005  0.5837
 8881TIP3    H148058   4.738   3.392  14.993 -0.3591  0.6486 -0.1063
 8881TIP3    H248059   4.821   3.266  14.977 -0.8559  0.1005  1.4402
 8882TIP3   OH248060   0.517   2.618   3.303 -0.0645 -0.0060 -0.7515
 8882TIP3    H148061   0.577   2.669   3.249  0.2520 -1.3709 -1.7281
 8882TIP3    H248062   0.469   2.564   3.241 -0.1096 -1.1802  0.2738
 8883TIP3   OH248063   2.927   1.051  15.720  0.3750 -0.1237  0.1330
 8883TIP3    H148064   2.974   1.081  15.798  1.9881  2.2958 -1.6509
 8883TIP3    H248065   2.996   1.034  15.656 -1.0312  0.6065 -1.6378
 8884TIP3   OH248066   1.379   2.119  12.552  0.2881  0.1986  0.6422
 8884TIP3    H148067   1.370   2.214  12.545 -1.5675  0.0638  0.8932
 8884TIP3    H248068   1.356   2.087  12.465  1.3496 -0.0348  0.4234
 8885TIP3   OH248069   1.204   6.465  12.635  0.2610 -0.5033  0.7766
 8885TIP3    H148070   1.270   6.431  12.695  1.7843  1.0656  0.0889
 8885TIP3    H248071   1.246   6.541  12.594 -1.3629 -0.4584 -0.9503
 8886TIP3   OH248072   4.360   1.536   3.508 -0.2386 -0.0287 -0.3842
 8886TIP3    H148073   4.337   1.575   3.593  0.3118 -3.3203  1.4387
 8886TIP3    H248074   4.278   1.537   3.459 -1.1388  0.0172  1.0395
 8887TIP3   OH248075   5.239   3.053  11.723  0.0631  0.3965 -0.0320
 8887TIP3    H148076   5.188   3.011  11.793  1.0614 -0.3596  0.2575
 8887TIP3    H248077   5.329   3.054  11.756  0.1910  2.1715 -0.3229
 8888TIP3   OH248078   3.591   4.934   5.050 -0.1556  0.1041  0.3528
 8888TIP3    H148079   3.500   4.944   5.077 -0.2962  1.3671 -0.4979
 8888TIP3    H248080   3.586   4.911   4.957  0.3807 -1.2425  0.6272
 8889TIP3   OH248081   4.162   4.194  15.064  0.2584  0.1491  0.6041
 8889TIP3    H148082   4.144   4.153  15.148  0.7719 -0.9365  0.1961
 8889TIP3    H248083   4.255   4.176  15.048 -0.0904 -0.6013 -0.6949
 8890TIP3   OH248084   3.646   5.423   3.500  0.3588 -0.2273 -0.0903
 8890TIP3    H148085   3.735   5.459   3.497  0.1538  1.1347  3.6464
 8890TIP3    H248086   3.589   5.501   3.505 -1.2135 -1.0487 -3.1577
 8891TIP3   OH248087   5.859   2.761  16.013  0.2479  0.7945  0.0986
 8891TIP3    H148088   5.809   2.722  15.941  1.2222  1.2869 -0.8689
 8891TIP3    H248089   5.949   2.762  15.982  0.5613  1.7703  0.9931
 8892TIP3   OH248090   0.694   0.401  14.350 -0.4510  0.6764 -0.7688
 8892TIP3    H148091   0.709   0.404  14.256  0.4883 -0.6545 -0.6977
 8892TIP3    H248092   0.654   0.315  14.366  1.2739 -0.0001  0.2353
 8893TIP3   OH248093   1.592   2.118   4.697 -0.4741 -0.2680  0.6371
 8893TIP3    H148094   1.667   2.177   4.687  0.0434 -0.7519  1.4908
 8893TIP3    H248095   1.612   2.044   4.639  0.0361 -0.6930  1.3335
 8894TIP3   OH248096   1.403   5.286  15.782 -0.3556 -0.1900  0.4395
 8894TIP3    H148097   1.344   5.327  15.719 -1.1885 -0.8457  0.7647
 8894TIP3    H248098   1.397   5.192  15.762  1.3470 -0.2012 -0.1577
 8895TIP3   OH248099   6.255   3.632  12.038 -0.1681  0.3684 -0.5770
 8895TIP3    H148100   6.241   3.580  12.116  1.5435  0.0412 -0.4372
 8895TIP3    H248101   6.345   3.663  12.046 -0.4066  1.4537 -1.7624
 8896TIP3   OH248102   2.704   1.633  14.884  0.2356  0.0434 -0.0469
 8896TIP3    H148103   2.685   1.724  14.907 -1.3283  0.2155 -1.8045
 8896TIP3    H248104   2.618   1.594  14.868  0.8999 -1.6905  0.4164
 8897TIP3   OH248105   1.030   5.143   3.699  0.3310 -0.5951 -0.4630
 8897TIP3    H148106   0.955   5.201   3.708  1.4312  1.0968 -1.6803
 8897TIP3    H248107   1.051   5.117   3.789 -0.3247  0.7165  0.0972
 8898TIP3   OH248108   5.503   3.037  11.266 -0.3156  0.1152  0.9461
 8898TIP3    H148109   5.412   3.066  11.275 -0.1699  0.8288  0.2110
 8898TIP3    H248110   5.496   2.942  11.256 -0.8492 -0.0519  2.6579
 8899TIP3   OH248111   4.121   6.475   2.208 -0.1551  0.1911 -0.0940
 8899TIP3    H148112   4.215   6.493   2.206 -0.3329  1.2587  0.4582
 8899TIP3    H248113   4.112   6.406   2.274  0.1410  0.8551  0.6700
 8900TIP3   OH248114   6.446   3.994  14.190  1.1875 -0.0566  0.0786
 8900TIP3    H148115   6.489   4.077  14.206  2.8446 -1.1193  1.4884
 8900TIP3    H248116   6.501   3.929  14.234 -0.6387 -1.7842 -0.0342
 8901TIP3   OH248117   3.186   5.340   4.330 -0.2969 -0.2162 -0.7025
 8901TIP3    H148118   3.222   5.427   4.316 -1.7437  0.2413 -1.7945
 8901TIP3    H248119   3.142   5.346   4.415  0.7462 -0.3066 -0.1374
 8902TIP3   OH248120   3.442   3.184  14.424 -0.5775 -0.0060  0.1468
 8902TIP3    H148121   3.347   3.182  14.418 -0.6571  1.0845  0.9055
 8902TIP3    H248122   3.463   3.125  14.497 -0.7310  0.3879  0.5123
 8903TIP3   OH248123   5.626   6.314  12.651  0.4544 -0.1324 -0.1531
 8903TIP3    H148124   5.678   6.293  12.728  1.2276 -0.6367 -0.8058
 8903TIP3    H248125   5.689   6.320  12.579  0.0473  2.3953 -0.4184
 8904TIP3   OH248126   2.423   0.816  13.881  0.3751 -0.6958 -0.1062
 8904TIP3    H148127   2.446   0.871  13.806 -0.2820  0.6053  0.6197
 8904TIP3    H248128   2.328   0.805  13.875  0.2144  0.0079  0.9118
 8905TIP3   OH248129   4.724   3.697  15.408  0.5203  0.1177 -0.7951
 8905TIP3    H148130   4.738   3.742  15.490 -2.9475 -0.3463  0.2394
 8905TIP3    H248131   4.632   3.714  15.386  0.1770 -2.9754 -2.4818
 8906TIP3   OH248132   2.347   4.257  14.029 -0.9364 -0.3191 -0.5260
 8906TIP3    H148133   2.280   4.275  14.095 -1.8840 -0.0172 -1.5545
 8906TIP3    H248134   2.316   4.299  13.950  1.6074  1.8719 -0.4925
 8907TIP3   OH248135   2.488   3.332  10.200  0.5046 -0.6851  0.0512
 8907TIP3    H148136   2.582   3.318  10.199  0.6518  0.1792 -0.9208
 8907TIP3    H248137   2.470   3.369  10.286  1.1491 -0.3195  0.0361
 8908TIP3   OH248138   5.189   6.602  16.326  0.5163  0.3496 -0.4294
 8908TIP3    H148139   5.283   6.608  16.307  0.7321  0.4466  0.6145
 8908TIP3    H248140   5.157   6.691  16.317  1.2282  1.0344  2.5478
 8909TIP3   OH248141   4.962   1.373   1.097 -0.2349 -0.0115  0.6351
 8909TIP3    H148142   4.957   1.379   1.192  1.2555 -0.4324  0.7674
 8909TIP3    H248143   4.925   1.288   1.076  0.9554 -0.6534  1.0232
 8910TIP3   OH248144   0.328   1.821   4.841  0.3414 -0.5217  0.6545
 8910TIP3    H148145   0.419   1.796   4.856  1.0964  1.2186 -0.7210
 8910TIP3    H248146   0.305   1.779   4.758  0.4642  0.4096  0.1403
 8911TIP3   OH248147   5.060   2.356   1.444 -0.0476  0.2012  0.7500
 8911TIP3    H148148   5.120   2.292   1.482  1.1512  1.7861  1.7163
 8911TIP3    H248149   4.999   2.377   1.515 -1.3314 -0.8494  0.0026
 8912TIP3   OH248150   0.316   3.418  13.714  0.5736  0.2176 -0.0846
 8912TIP3    H148151   0.286   3.466  13.637  0.4998  1.7063  0.8262
 8912TIP3    H248152   0.328   3.485  13.781 -1.4763 -1.2175  1.8948
 8913TIP3   OH248153   4.051   1.228  15.042 -0.4491  0.6847  0.2076
 8913TIP3    H148154   3.957   1.232  15.059 -0.3784  0.3094  0.7142
 8913TIP3    H248155   4.084   1.315  15.065 -0.5363  0.5420  0.8826
 8914TIP3   OH248156   0.669   1.787  13.394  0.3033 -0.2352  0.7658
 8914TIP3    H148157   0.650   1.831  13.476 -1.6701  0.6941 -0.1149
 8914TIP3    H248158   0.764   1.797  13.383  0.2135  2.2188  1.5155
 8915TIP3   OH248159   3.010   0.119  12.405  0.2837 -0.3255 -0.1072
 8915TIP3    H148160   3.039   0.060  12.335  0.3480  0.6107 -0.8830
 8915TIP3    H248161   3.020   0.207  12.369 -4.3441  0.1421 -0.8530
 8916TIP3   OH248162   5.061   3.497  11.139  0.4257  0.8302 -0.1724
 8916TIP3    H148163   5.135   3.472  11.195  0.6265  2.6867  0.4614
 8916TIP3    H248164   5.102   3.542  11.064  0.1874 -1.8846 -2.0584
 8917TIP3   OH248165   6.842   2.111   3.573 -0.1995  0.3783 -0.6912
 8917TIP3    H148166   6.771   2.117   3.636  0.0703  0.8935 -0.4278
 8917TIP3    H248167   6.798   2.109   3.488 -0.5076  2.2174 -0.6131
 8918TIP3   OH248168   2.718   1.065  12.799  0.3526 -0.1455  0.4326
 8918TIP3    H148169   2.730   1.023  12.885  1.5942 -1.3904 -0.3157
 8918TIP3    H248170   2.806   1.072  12.763 -0.2878 -1.3932 -1.5347
 8919TIP3   OH248171   3.931   5.034  13.254  0.1966 -0.0483  0.4221
 8919TIP3    H148172   3.913   5.097  13.185 -1.3700  0.0382  0.8661
 8919TIP3    H248173   3.896   4.951  13.221  1.0493 -0.4135  0.3937
 8920TIP3   OH248174   4.973   5.549   2.715  0.2496 -0.4309 -0.6656
 8920TIP3    H148175   5.032   5.607   2.763  0.0828  0.7250 -1.7925
 8920TIP3    H248176   5.020   5.465   2.710  1.2885  0.1275 -0.5372
 8921TIP3   OH248177   2.393   3.858  13.277 -0.2456  0.3363  0.2642
 8921TIP3    H148178   2.360   3.904  13.354  1.6901  4.7143 -1.1660
 8921TIP3    H248179   2.486   3.880  13.274 -0.2729  0.6033 -3.3486
 8922TIP3   OH248180   4.458   4.051  10.302  0.5889 -0.1655 -0.0839
 8922TIP3    H148181   4.544   4.014  10.319 -0.4596 -2.5988  0.2935
 8922TIP3    H248182   4.400   3.975  10.295 -1.3209  1.3390 -1.5671
 8923TIP3   OH248183   1.242   3.915   0.219 -0.0849  0.0760  0.2188
 8923TIP3    H148184   1.285   3.914   0.304  0.6398  1.1091 -0.1140
 8923TIP3    H248185   1.218   3.824   0.203 -0.5839 -0.0642  1.6963
 8924TIP3   OH248186   4.276   6.863  14.516 -0.2384  0.2775 -0.9156
 8924TIP3    H148187   4.337   6.936  14.528 -0.9636  0.5888  1.3048
 8924TIP3    H248188   4.304   6.798  14.581 -2.5151  0.6319  0.4987
 8925TIP3   OH248189   4.921   5.042   3.984 -0.3272  0.2515  0.0257
 8925TIP3    H148190   4.861   4.979   3.945 -1.2146 -0.1550  1.9319
 8925TIP3    H248191   4.996   4.989   4.012  1.0183  0.7527 -2.3291
 8926TIP3   OH248192   3.097   1.364  14.297  0.0145 -0.1004 -0.4044
 8926TIP3    H148193   3.178   1.383  14.250  1.5508 -0.6993  1.8610
 8926TIP3    H248194   3.036   1.335  14.229  1.9177 -0.3247 -2.0923
 8927TIP3   OH248195   1.982   4.041   3.701  0.4605  0.0545 -0.0695
 8927TIP3    H148196   1.990   4.085   3.616 -1.0745  1.1292  0.2895
 8927TIP3    H248197   1.913   3.976   3.689 -1.9241  2.1866  1.0068
 8928TIP3   OH248198   5.905   4.598  12.983 -0.2881  0.3986 -0.4798
 8928TIP3    H148199   5.955   4.526  13.020 -0.6982 -0.2532 -1.1745
 8928TIP3    H248200   5.839   4.618  13.049 -0.9022 -0.6395 -0.7508
 8929TIP3   OH248201   5.343   5.803  16.082 -0.1346  0.5989  0.2314
 8929TIP3    H148202   5.323   5.798  16.176 -0.5593  1.0462  0.1662
 8929TIP3    H248203   5.402   5.729  16.067 -1.3628 -0.4760  0.5286
 8930TIP3   OH248204   6.167   3.022   9.491  0.1935 -0.2361  0.3076
 8930TIP3    H148205   6.182   3.110   9.526  0.2439 -0.1460  0.0623
 8930TIP3    H248206   6.203   2.964   9.558  0.6225 -0.0547  0.2412
 8931TIP3   OH248207   0.585   3.857  10.182 -0.1338 -0.0163 -0.4011
 8931TIP3    H148208   0.630   3.824  10.260  0.1665  0.8666 -0.1788
 8931TIP3    H248209   0.582   3.952  10.195 -1.5214  0.0020 -0.7108
 8932TIP3   OH248210   5.752   1.836  11.480 -0.0321 -0.0125 -0.1698
 8932TIP3    H148211   5.744   1.869  11.391 -0.4644  0.3349 -0.0070
 8932TIP3    H248212   5.736   1.742  11.473  0.2253 -0.0320 -0.4986
 8933TIP3   OH248213   3.732   2.304  12.616 -0.1795  0.5458 -0.1139
 8933TIP3    H148214   3.758   2.241  12.683  0.8885  0.8787 -0.1961
 8933TIP3    H248215   3.782   2.383  12.637  1.1124  0.2917 -1.9747
 8934TIP3   OH248216   5.699   6.672  16.087 -0.6764 -0.7422  0.4171
 8934TIP3    H148217   5.642   6.746  16.064 -0.7144 -0.8565  0.1371
 8934TIP3    H248218   5.787   6.706  16.076 -0.6939 -0.7329  0.2968
 8935TIP3   OH248219   0.283   6.777   1.126  0.1096 -0.0970 -0.4218
 8935TIP3    H148220   0.331   6.837   1.069  1.8370 -0.1935  0.8523
 8935TIP3    H248221   0.196   6.770   1.086  0.9855  0.4658 -2.5691
 8936TIP3   OH248222   1.143   5.038   3.145  0.4603 -0.5263 -0.1169
 8936TIP3    H148223   1.229   4.997   3.137  0.5432 -0.8707  2.0742
 8936TIP3    H248224   1.133   5.055   3.238 -2.1998 -1.2511 -0.1989
 8937TIP3   OH248225   2.604   1.540   2.237 -0.3395 -0.0017  0.4015
 8937TIP3    H148226   2.640   1.628   2.244  1.3059 -0.5775 -0.3588
 8937TIP3    H248227   2.540   1.546   2.166  1.2121  0.1688 -1.0431
 8938TIP3   OH248228   3.589   1.107  15.388 -0.1820  0.1512  0.2599
 8938TIP3    H148229   3.576   1.021  15.346 -0.0750  0.1079  0.3158
 8938TIP3    H248230   3.592   1.087  15.481 -0.2334  0.2257  0.2769
 8939TIP3   OH248231   1.306   6.626  15.124 -0.1227  0.5947  0.1794
 8939TIP3    H148232   1.321   6.599  15.215  0.3371 -0.3909 -0.1672
 8939TIP3    H248233   1.393   6.648  15.091  0.2879 -2.2225 -0.9537
 8940TIP3   OH248234   0.043   0.153   6.174  0.4440  0.3083  0.5047
 8940TIP3    H148235   0.054   0.075   6.121  0.1093  0.1597  0.6493
 8940TIP3    H248236  -0.042   0.141   6.217 -0.3020  1.3896 -0.5841
 8941TIP3   OH248237   1.775   5.707  14.268 -0.2160 -0.5699 -0.0786
 8941TIP3    H148238   1.803   5.769  14.335 -0.2377 -0.4094 -0.2183
 8941TIP3    H248239   1.698   5.664  14.306 -0.4649 -0.1984 -0.1596
 8942TIP3   OH248240   1.311   2.496   1.050 -0.5229 -0.2062  0.1702
 8942TIP3    H148241   1.321   2.586   1.018 -0.1222  0.1927  1.3650
 8942TIP3    H248242   1.372   2.445   0.997 -1.4445  0.0390 -1.1688
 8943TIP3   OH248243   1.921   5.845   0.391 -0.0004 -0.1944 -0.1129
 8943TIP3    H148244   1.924   5.762   0.343 -1.4477 -0.4781  0.2374
 8943TIP3    H248245   2.000   5.846   0.444  1.4633 -0.0455 -2.1944
 8944TIP3   OH248246   2.274   1.522   1.593 -0.1344  0.7512  0.3272
 8944TIP3    H148247   2.345   1.459   1.607 -0.5747  0.2374  0.2859
 8944TIP3    H248248   2.237   1.499   1.508  0.9734  2.3419 -0.6334
 8945TIP3   OH248249   5.649   0.415  16.327 -0.4135  0.5422 -0.0305
 8945TIP3    H148250   5.617   0.436  16.415 -1.1150 -1.2690  0.1754
 8945TIP3    H248251   5.598   0.472  16.269 -2.0699 -0.3117  0.5244
 8946TIP3   OH248252   5.757   5.312   3.529 -0.4026  0.1562 -0.4955
 8946TIP3    H148253   5.679   5.357   3.497 -0.7765 -1.9092 -2.7177
 8946TIP3    H248254   5.727   5.224   3.552  1.3608 -1.0408 -2.3844
 8947TIP3   OH248255   4.267   5.796  13.227 -0.1488  0.4385 -0.1256
 8947TIP3    H148256   4.263   5.857  13.153 -0.0119 -0.3976 -0.8425
 8947TIP3    H248257   4.212   5.836  13.294  0.9267  1.9683 -0.0903
 8948TIP3   OH248258   0.834   0.569   1.128  0.0100 -0.0975  0.4163
 8948TIP3    H148259   0.796   0.497   1.078  1.2822  0.0675 -0.8503
 8948TIP3    H248260   0.864   0.528   1.209  0.5844 -1.0011 -0.2199
 8949TIP3   OH248261   4.127   5.982  10.926  0.6284 -0.2532 -0.6516
 8949TIP3    H148262   4.136   5.918  10.856  0.1925  0.7027 -1.6173
 8949TIP3    H248263   4.166   5.940  11.003 -0.9154 -2.2444 -0.8672
 8950TIP3   OH248264   0.667   5.866  15.066  0.1200 -0.2083  0.0179
 8950TIP3    H148265   0.665   5.900  14.977  1.3929 -1.2262 -0.4173
 8950TIP3    H248266   0.578   5.882  15.100 -0.4093  0.0903 -1.4558
 8951TIP3   OH248267   4.505   4.861  15.651 -0.8595  0.4988 -0.2255
 8951TIP3    H148268   4.450   4.939  15.649  0.0623  1.1417 -1.4393
 8951TIP3    H248269   4.595   4.894  15.644 -0.3212 -0.5699  1.0127
 8952TIP3   OH248270   5.326   3.645   1.301 -0.3741 -0.4038 -0.2624
 8952TIP3    H148271   5.272   3.657   1.379 -1.8889  0.1955 -1.3482
 8952TIP3    H248272   5.403   3.700   1.315  0.2566 -1.6662  1.5386
 8953TIP3   OH248273   6.470   5.377  15.324 -0.0455 -0.0963  0.6192
 8953TIP3    H148274   6.395   5.343  15.275  1.6990 -0.2288 -2.2492
 8953TIP3    H248275   6.458   5.472  15.323  1.0582  0.1452 -2.3907
 8954TIP3   OH248276   0.058   3.686   3.405  0.6031 -0.0717 -0.0755
 8954TIP3    H148277   0.131   3.738   3.370  0.6251 -1.5650 -2.3946
 8954TIP3    H248278   0.087   3.663   3.494  1.2929  2.4215  0.4377
 8955TIP3   OH248279   4.560   3.865   4.118  0.0680 -0.2701  0.1142
 8955TIP3    H148280   4.555   3.807   4.042 -0.1593 -0.1410  0.0282
 8955TIP3    H248281   4.625   3.931   4.094  0.6902 -0.7747  0.4103
 8956TIP3   OH248282   6.183   6.591  11.157  0.3073  0.4031 -0.1550
 8956TIP3    H148283   6.168   6.537  11.080 -0.7022  1.6615 -0.8637
 8956TIP3    H248284   6.117   6.660  11.153  1.8129  1.9766  0.4748
 8957TIP3   OH248285   2.265   4.530  10.611 -0.3088 -0.0695  0.0147
 8957TIP3    H148286   2.198   4.517  10.545 -0.1709  3.3795 -0.9970
 8957TIP3    H248287   2.222   4.578  10.682  0.2352 -1.1722  1.1428
 8958TIP3   OH248288   0.198   2.794   4.609 -0.4131 -0.2815  0.5038
 8958TIP3    H148289   0.141   2.726   4.643 -1.6708 -0.5093 -1.8214
 8958TIP3    H248290   0.156   2.876   4.633 -1.6180 -0.4456 -0.8925
 8959TIP3   OH248291   2.749   5.624   4.674 -0.0387 -0.1184  0.6353
 8959TIP3    H148292   2.804   5.702   4.674  0.7596 -0.5779 -1.5227
 8959TIP3    H248293   2.676   5.646   4.616  0.3373 -1.0037 -0.2225
 8960TIP3   OH248294   0.578   2.362  12.773 -0.1563  0.1952 -0.1508
 8960TIP3    H148295   0.565   2.380  12.867 -2.6465 -2.7353  0.2109
 8960TIP3    H248296   0.662   2.316  12.770  1.4224  2.8957  0.1552
 8961TIP3   OH248297   3.285   1.719   4.471 -0.4719 -0.4269 -0.3582
 8961TIP3    H148298   3.200   1.761   4.483 -0.1342 -0.0039  0.7571
 8961TIP3    H248299   3.348   1.784   4.506  0.2491 -0.9476 -0.6721
 8962TIP3   OH248300   5.866   6.310  12.515 -0.0185  0.0408 -0.4714
 8962TIP3    H148301   5.879   6.357  12.598 -0.4317 -0.6669  0.0039
 8962TIP3    H248302   5.916   6.229  12.525 -0.7856 -0.4514 -0.5626
 8963TIP3   OH248303   5.839   4.980  16.143  0.3167  0.2454  0.2643
 8963TIP3    H148304   5.861   4.887  16.151 -1.0621 -0.4283 -2.5601
 8963TIP3    H248305   5.774   4.995  16.212  0.0540 -1.0642  0.3327
 8964TIP3   OH248306   3.004   0.997   4.666 -0.2019  0.2734 -0.1608
 8964TIP3    H148307   3.002   1.087   4.700  0.6860 -0.0162  0.6880
 8964TIP3    H248308   3.085   0.960   4.700 -1.0457 -1.1867  0.3488
 8965TIP3   OH248309   0.959   2.965  15.360  0.8395 -0.2470  0.1471
 8965TIP3    H148310   0.932   2.911  15.286 -0.5529  0.3178  0.2185
 8965TIP3    H248311   0.963   2.904  15.434  3.5053 -1.0811 -0.5858
 8966TIP3   OH248312   1.772   6.778   3.305  0.1358 -0.1739 -0.2497
 8966TIP3    H148313   1.814   6.695   3.281 -0.5212 -0.9542  1.1726
 8966TIP3    H248314   1.840   6.844   3.291  0.9083 -1.0347 -0.7016
 8967TIP3   OH248315   4.349   6.241  14.791 -0.6164  0.2192 -0.1812
 8967TIP3    H148316   4.399   6.300  14.848  0.6555 -0.5817 -0.4264
 8967TIP3    H248317   4.320   6.297  14.718 -0.2458  0.7447  0.0675
 8968TIP3   OH248318   3.705   6.643   1.244 -0.6889 -0.4945 -0.6389
 8968TIP3    H148319   3.627   6.697   1.261 -0.8503 -1.5450  2.5971
 8968TIP3    H248320   3.769   6.674   1.308  0.0006 -2.5190 -0.2764
 8969TIP3   OH248321   0.798   3.114   1.585 -0.0840  0.2040 -0.2421
 8969TIP3    H148322   0.794   3.205   1.555  1.7202  0.2668 -0.3827
 8969TIP3    H248323   0.849   3.117   1.666  1.3638 -0.8647 -1.0787
 8970TIP3   OH248324   5.121   1.906   2.062 -0.2322 -0.1316 -0.3336
 8970TIP3    H148325   5.146   1.863   1.981 -0.8518 -0.0112 -0.5931
 8970TIP3    H248326   5.202   1.911   2.113 -0.0349 -1.0498 -0.5498
 8971TIP3   OH248327   4.775   3.184  10.609 -0.3950  0.2084 -0.3755
 8971TIP3    H148328   4.823   3.205  10.529 -0.1824  1.4181  0.0465
 8971TIP3    H248329   4.687   3.164  10.579 -0.5514  1.5081 -0.8607
 8972TIP3   OH248330   6.387   0.925  14.925 -0.0530  0.1357  0.1463
 8972TIP3    H148331   6.333   0.894  14.998 -1.0020 -1.8977 -1.3075
 8972TIP3    H248332   6.336   0.904  14.847  2.1447 -0.4772 -1.2364
 8973TIP3   OH248333   0.705   0.964  13.518 -0.0077  0.0548  0.3052
 8973TIP3    H148334   0.779   0.922  13.562 -0.0671  1.6449  2.0775
 8973TIP3    H248335   0.640   0.895  13.507  0.7875 -0.8237  0.9987
 8974TIP3   OH248336   2.904   5.925   3.313 -0.1596 -0.0045 -0.5650
 8974TIP3    H148337   2.999   5.910   3.321 -0.3884 -0.8647  1.0340
 8974TIP3    H248338   2.871   5.911   3.402 -1.8684 -0.2811 -1.2185
 8975TIP3   OH248339   4.196   4.685   1.121 -0.1762  0.0506 -0.1588
 8975TIP3    H148340   4.109   4.653   1.097 -0.1089  0.1188 -0.5037
 8975TIP3    H248341   4.190   4.706   1.214 -0.6725  0.5285 -0.2943
 8976TIP3   OH248342   1.177   1.980  15.886  0.1074  0.1547  0.3876
 8976TIP3    H148343   1.162   2.074  15.889 -1.1553 -0.0420  0.7821
 8976TIP3    H248344   1.229   1.966  15.807  1.0223  1.2588  0.7686
 8977TIP3   OH248345   0.307   6.355  12.543  0.1936 -0.3314 -0.2281
 8977TIP3    H148346   0.213   6.355  12.521  0.2438  0.7395 -0.4902
 8977TIP3    H248347   0.310   6.327  12.634 -0.5980  1.7532  0.5151
 8978TIP3   OH248348   1.951   0.634  11.189 -0.1945 -0.3133  0.3662
 8978TIP3    H148349   1.980   0.548  11.219  2.2508 -0.1039 -1.1495
 8978TIP3    H248350   2.032   0.679  11.162 -1.5553  1.9009 -0.3129
 8979TIP3   OH248351   3.615   4.149  13.301  0.1204 -0.2088  0.4469
 8979TIP3    H148352   3.608   4.127  13.394  0.9970  1.2485  0.8954
 8979TIP3    H248353   3.525   4.157  13.271 -0.1690 -0.6021  1.1966
 8980TIP3   OH248354   6.640   0.927  13.012 -0.2746 -0.3070 -0.3862
 8980TIP3    H148355   6.580   0.963  12.947 -1.7098 -0.5900  0.7052
 8980TIP3    H248356   6.644   0.994  13.080 -1.0219 -1.1191  0.5074
 8981TIP3   OH248357   5.375   0.592   5.507  0.3340  0.1802 -0.1042
 8981TIP3    H148358   5.374   0.649   5.431 -2.2188 -1.7601 -1.6932
 8981TIP3    H248359   5.380   0.652   5.582  0.3907  2.3013 -1.7218
 8982TIP3   OH248360   5.330   6.787   2.063  0.2269 -0.2352 -0.0097
 8982TIP3    H148361   5.235   6.802   2.062  0.3297  0.5479  0.7218
 8982TIP3    H248362   5.341   6.714   2.124  0.0881 -0.4218 -0.2043
 8983TIP3   OH248363   0.233   2.621   2.463  0.0185 -0.7167 -0.1785
 8983TIP3    H148364   0.253   2.671   2.542  0.0526  1.3662 -1.4455
 8983TIP3    H248365   0.319   2.601   2.426 -0.0304 -0.4462 -0.4359
 8984TIP3   OH248366   6.555   1.311  10.906  0.1222  0.0312 -0.3418
 8984TIP3    H148367   6.490   1.379  10.894 -0.5452 -0.2984  1.1541
 8984TIP3    H248368   6.626   1.353  10.954 -0.6000 -0.4372  1.2197
 8985TIP3   OH248369   2.415   5.779  16.281 -0.3188 -0.2487  0.2439
 8985TIP3    H148370   2.400   5.710  16.345  0.5738 -0.5210  0.1741
 8985TIP3    H248371   2.328   5.815  16.264 -0.6190 -0.4020  1.3436
 8986TIP3   OH248372   3.478   2.510  13.257 -0.4005  0.2788 -0.2619
 8986TIP3    H148373   3.478   2.577  13.189 -1.0329  0.7640  0.1949
 8986TIP3    H248374   3.531   2.439  13.221  1.7720  1.7045 -0.0755
 8987TIP3   OH248375   2.852   3.601  15.249 -0.4900 -0.1978  0.1245
 8987TIP3    H148376   2.859   3.522  15.301 -0.0821  0.1102  0.5449
 8987TIP3    H248377   2.901   3.667  15.298 -0.5570  0.2341 -0.3764
 8988TIP3   OH248378   4.764   0.340  11.917 -0.5025  0.2022 -0.0815
 8988TIP3    H148379   4.700   0.411  11.914 -0.6613  0.0405 -0.5190
 8988TIP3    H248380   4.756   0.305  12.006 -0.4034  0.7451  0.1425
 8989TIP3   OH248381   3.719   4.908   0.702 -0.3426 -0.0228 -0.0001
 8989TIP3    H148382   3.803   4.864   0.711 -0.1618  0.3039 -0.0735
 8989TIP3    H248383   3.741   4.995   0.668 -0.6606  0.2511  0.4832
 8990TIP3   OH248384   4.200   3.499  10.991  0.1747  0.7598 -0.4818
 8990TIP3    H148385   4.275   3.546  11.028 -0.1294  0.8915 -0.0323
 8990TIP3    H248386   4.156   3.565  10.937  0.3824  0.6793 -0.7556
 8991TIP3   OH248387   3.186   4.160   3.783  0.1184  0.0804  0.1923
 8991TIP3    H148388   3.167   4.211   3.704  0.0439  0.1164  0.2337
 8991TIP3    H248389   3.281   4.145   3.780  0.0239 -0.4521 -0.2299
 8992TIP3   OH248390   0.863   0.114   2.228 -0.1339  0.5262 -0.2557
 8992TIP3    H148391   0.775   0.122   2.190  0.1306 -1.5829 -1.5084
 8992TIP3    H248392   0.920   0.159   2.166  0.0477 -1.1483 -1.3633
 8993TIP3   OH248393   2.177   6.160  12.639 -0.6621  0.3946  0.2257
 8993TIP3    H148394   2.186   6.246  12.679 -2.7833  0.2179  1.1918
 8993TIP3    H248395   2.231   6.102  12.692  0.4857  1.0219 -0.2148
 8994TIP3   OH248396   1.426   4.258   0.179 -0.6716 -0.0847 -0.0818
 8994TIP3    H148397   1.424   4.354   0.182  0.8364 -0.0469  0.7875
 8994TIP3    H248398   1.363   4.230   0.245  0.6215  0.3741  1.4265
 8995TIP3   OH248399   5.641   5.956  10.699  0.1045  0.0170  0.0793
 8995TIP3    H148400   5.585   5.878  10.694  1.3478 -0.9025 -0.0055
 8995TIP3    H248401   5.591   6.018  10.752 -1.6089 -0.2163 -1.1596
 8996TIP3   OH248402   4.183   1.861  15.473 -0.0811  0.6863 -0.0735
 8996TIP3    H148403   4.152   1.777  15.442  1.7484 -0.6308  1.4520
 8996TIP3    H248404   4.225   1.902  15.397 -1.3528  0.4404 -0.9291
 8997TIP3   OH248405   5.755   1.137   1.148  0.3213 -0.2535 -0.1769
 8997TIP3    H148406   5.803   1.217   1.132  0.2388 -0.3606 -0.9982
 8997TIP3    H248407   5.683   1.163   1.205  0.4963  0.1909 -0.1584
 8998TIP3   OH248408   2.665   1.884   4.446  0.6379  0.3056 -0.0790
 8998TIP3    H148409   2.750   1.896   4.488 -0.3600 -1.2838  2.6889
 8998TIP3    H248410   2.672   1.801   4.400  0.6516  0.2630 -0.0001
 8999TIP3   OH248411   4.903   0.898  14.265  0.2810  0.4251 -0.7060
 8999TIP3    H148412   4.945   0.911  14.180  3.2346  1.6167  0.7800
 8999TIP3    H248413   4.844   0.974  14.274  1.3589  1.3096 -0.9289
 9000TIP3   OH248414   2.538   6.377   4.063  0.4144  0.0146 -0.8318
 9000TIP3    H148415   2.633   6.369   4.057  0.5889  2.3100 -2.6572
 9000TIP3    H248416   2.522   6.407   4.153  1.1505 -2.3260  0.1556
 9001TIP3   OH248417   1.813   4.453   2.909 -0.1031  0.0841 -0.4530
 9001TIP3    H148418   1.830   4.547   2.902  0.0900  0.0029 -1.1999
 9001TIP3    H248419   1.899   4.412   2.897  0.0170 -0.1587  1.0803
 9002TIP3   OH248420   5.486   5.160  15.437  0.1771 -0.1412 -0.1337
 9002TIP3    H148421   5.534   5.159  15.519 -0.2220  1.8073  0.1610
 9002TIP3    H248422   5.535   5.101  15.380  0.5660 -1.3798  1.4158
 9003TIP3   OH248423   1.698   5.861  12.051  0.4823  0.4047 -0.2541
 9003TIP3    H148424   1.606   5.848  12.071  1.0392  0.0973  2.5376
 9003TIP3    H248425   1.735   5.772  12.049  1.0080  0.5968  0.4397
 9004TIP3   OH248426   0.720   2.404  15.866  0.1190  0.7346  0.0130
 9004TIP3    H148427   0.701   2.407  15.772  0.1831  0.9974  0.0064
 9004TIP3    H248428   0.647   2.355  15.903  1.3066 -1.5224 -0.4589
 9005TIP3   OH248429   6.641   1.689   2.111 -0.5161 -0.4121  0.6160
 9005TIP3    H148430   6.703   1.731   2.170 -0.2714  0.9521 -0.5772
 9005TIP3    H248431   6.672   1.598   2.105  0.1571 -0.2664  1.6192
 9006TIP3   OH248432   3.428   1.329  15.651  0.2292  0.4978 -0.0325
 9006TIP3    H148433   3.522   1.345  15.660  0.2858 -0.1280  0.5360
 9006TIP3    H248434   3.402   1.382  15.576  1.0192  0.7516 -0.1343
 9007TIP3   OH248435   4.643   5.214   0.099  0.3933 -0.1798  0.2072
 9007TIP3    H148436   4.611   5.237   0.012  0.1870 -0.4370  0.2153
 9007TIP3    H248437   4.691   5.133   0.087 -1.3166 -1.3044  0.6598
 9008TIP3   OH248438   3.494   6.392  12.263  0.0200  0.3421  0.3551
 9008TIP3    H148439   3.433   6.429  12.326  0.3946  2.5077 -0.4748
 9008TIP3    H248440   3.562   6.458  12.253  0.7934 -0.6132 -1.1444
 9009TIP3   OH248441   5.903   2.004  12.943  0.6300  0.1831 -0.2458
 9009TIP3    H148442   5.956   1.992  12.864 -0.5333  1.9722 -1.3464
 9009TIP3    H248443   5.929   2.089  12.977 -1.0478  0.8034 -0.4457
 9010TIP3   OH248444   3.026   0.443   0.206 -0.3757  0.0742  0.0369
 9010TIP3    H148445   3.069   0.519   0.245 -1.4380  1.5590 -1.5202
 9010TIP3    H248446   3.074   0.428   0.124 -0.3083 -0.7970  0.2315
 9011TIP3   OH248447   6.315   4.477  16.158  0.3747 -0.5362 -0.7896
 9011TIP3    H148448   6.404   4.492  16.126  0.5096 -2.9327 -1.6961
 9011TIP3    H248449   6.259   4.508  16.087  0.5704 -1.7220 -1.4712
 9012TIP3   OH248450   1.535   2.125  10.066  0.1234  0.6796 -0.0065
 9012TIP3    H148451   1.494   2.114   9.981 -0.1044 -1.2623  0.3138
 9012TIP3    H248452   1.471   2.174  10.118 -0.5349  0.2527 -0.4033
 9013TIP3   OH248453   2.684   1.137  15.609 -0.3358 -0.2932 -0.1231
 9013TIP3    H148454   2.686   1.233  15.616  0.0539 -0.3913  1.9312
 9013TIP3    H248455   2.756   1.108  15.665 -0.8125 -1.8083 -0.2502
 9014TIP3   OH248456   2.017   4.294   3.803  0.0353 -0.7911 -0.3963
 9014TIP3    H148457   1.990   4.226   3.741  0.6967  0.1394 -1.7582
 9014TIP3    H248458   1.935   4.338   3.826 -0.0988 -0.3945 -1.5512
 9015TIP3   OH248459   1.427   2.210   0.667  0.2853 -0.5559 -0.3943
 9015TIP3    H148460   1.509   2.236   0.625 -0.0571  0.1501 -0.6405
 9015TIP3    H248461   1.381   2.159   0.600 -1.0556  2.0562 -1.5973
 9016TIP3   OH248462   0.307   2.318   0.538  0.1424 -0.3905 -0.1313
 9016TIP3    H148463   0.361   2.392   0.511  0.0799  0.5247  2.0655
 9016TIP3    H248464   0.369   2.248   0.555  0.3762 -0.2162 -0.2594
 9017TIP3   OH248465   3.211   3.292   5.067 -0.1310  0.2167  0.0183
 9017TIP3    H148466   3.180   3.258   4.982  3.4287 -1.7793 -0.6815
 9017TIP3    H248467   3.152   3.253   5.131 -1.6998  0.1400 -1.4018
 9018TIP3   OH248468   4.848   1.360  15.071 -0.0811 -0.1215  0.2796
 9018TIP3    H148469   4.909   1.351  15.144  0.0727 -1.8398 -0.0164
 9018TIP3    H248470   4.828   1.270  15.045 -0.8469  0.4358 -1.2082
 9019TIP3   OH248471   1.550   5.754   5.682 -0.1482  0.1819 -0.0911
 9019TIP3    H148472   1.577   5.841   5.713 -2.6484  1.3460 -0.8460
 9019TIP3    H248473   1.520   5.709   5.760 -1.7539  1.2320 -0.0529
 9020TIP3   OH248474   2.965   4.492  13.623 -0.2828 -0.3586  0.4071
 9020TIP3    H148475   2.946   4.430  13.694 -0.2368 -0.1580  0.5948
 9020TIP3    H248476   3.031   4.551  13.659 -2.4825  1.7240  1.3668
 9021TIP3   OH248477   6.240   0.089  13.054  0.3502 -0.0958 -0.5589
 9021TIP3    H148478   6.159   0.039  13.048  0.0080  0.2683  0.7118
 9021TIP3    H248479   6.243   0.139  12.973  0.1308 -1.3049 -1.3395
 9022TIP3   OH248480   4.064   6.081  15.314 -0.4845 -0.4493  0.4542
 9022TIP3    H148481   4.080   6.150  15.250 -0.0839 -0.5022  0.4942
 9022TIP3    H248482   3.993   6.115  15.369  1.0723  0.8499  1.7789
 9023TIP3   OH248483   4.221   0.853   4.665 -0.3645  0.1090  0.3166
 9023TIP3    H148484   4.141   0.889   4.625  0.8824  1.5087 -1.0658
 9023TIP3    H248485   4.196   0.836   4.756 -1.6053  2.7956  0.5948
 9024TIP3   OH248486   0.927   3.817   0.462  0.0283 -0.3917  0.0479
 9024TIP3    H148487   1.020   3.840   0.472 -0.2321  1.2995 -0.8707
 9024TIP3    H248488   0.881   3.878   0.519 -0.5262 -1.2674  0.5507
 9025TIP3   OH248489   3.620   5.875   2.597  0.0406 -0.0401  0.4509
 9025TIP3    H148490   3.693   5.844   2.651 -0.0243  1.6638  1.6082
 9025TIP3    H248491   3.583   5.948   2.647 -3.6430 -1.9350  0.8474
 9026TIP3   OH248492   0.142   4.171   4.946  0.1581 -0.1091 -0.0516
 9026TIP3    H148493   0.086   4.203   4.875 -1.1010 -0.5956  0.6796
 9026TIP3    H248494   0.083   4.165   5.021  0.9129 -1.7587  0.4492
 9027TIP3   OH248495   5.586   4.821  15.545 -0.2396  0.2696  0.4328
 9027TIP3    H148496   5.672   4.862  15.557  0.1187 -0.1549 -0.5739
 9027TIP3    H248497   5.540   4.877  15.483 -1.0888  1.0311  1.6973
 9028TIP3   OH248498   0.116   0.411   3.786  0.2702  0.2919  0.0044
 9028TIP3    H148499   0.200   0.425   3.744  0.5877 -0.6701  0.2852
 9028TIP3    H248500   0.052   0.416   3.715  0.7462 -0.7331 -0.5140
 9029TIP3   OH248501   1.817   1.474  10.471 -0.4274  0.9387 -0.4736
 9029TIP3    H148502   1.897   1.493  10.423 -0.2701 -0.5781 -0.8815
 9029TIP3    H248503   1.757   1.544  10.447  0.8548  2.2544  0.0652
 9030TIP3   OH248504   6.090   1.803   3.846  0.1406 -0.0971  0.2819
 9030TIP3    H148505   6.057   1.842   3.927 -0.7522  0.2305 -0.2287
 9030TIP3    H248506   6.166   1.856   3.823 -0.7960  1.1153 -0.1621
 9031TIP3   OH248507   0.321   3.836   1.147  0.1417 -0.4723  0.0714
 9031TIP3    H148508   0.363   3.762   1.103  1.5674  0.8847 -0.9806
 9031TIP3    H248509   0.260   3.796   1.209 -0.0539 -2.4917 -1.3357
 9032TIP3   OH248510   6.762   6.893  13.972  0.2156  0.0324  0.7043
 9032TIP3    H148511   6.692   6.841  13.932 -0.7211  0.5027  1.6662
 9032TIP3    H248512   6.743   6.983  13.947 -1.0557  0.4938  3.0151
 9033TIP3   OH248513   1.593   4.271  16.080 -0.5475 -0.3912 -0.3180
 9033TIP3    H148514   1.653   4.329  16.127 -0.9794  1.1068 -1.5212
 9033TIP3    H248515   1.529   4.244  16.145 -1.0955  1.5695  0.0092
 9034TIP3   OH248516   2.292   5.629  15.011 -0.0319  1.0653  0.3319
 9034TIP3    H148517   2.262   5.621  15.102 -1.0258  0.3277 -0.0387
 9034TIP3    H248518   2.386   5.613  15.015 -0.3750 -1.2316  0.9822
 9035TIP3   OH248519   0.049   4.493   3.627 -0.1701 -0.0184  0.0300
 9035TIP3    H148520   0.095   4.415   3.659  0.4844  0.3623  0.0129
 9035TIP3    H248521   0.097   4.567   3.663 -0.7876  0.3891  0.0427
 9036TIP3   OH248522   4.796   1.233  11.082  0.0368 -0.2285  0.0942
 9036TIP3    H148523   4.780   1.156  11.027  2.2688 -0.6638 -0.0765
 9036TIP3    H248524   4.820   1.197  11.167  1.0466  0.2377  0.0291
 9037TIP3   OH248525   4.183   4.732  11.819  0.1159 -0.3218 -0.7940
 9037TIP3    H148526   4.119   4.792  11.781  0.7177  1.5378  0.9876
 9037TIP3    H248527   4.259   4.737  11.760  0.2728  0.9334 -0.5075
 9038TIP3   OH248528   4.655   3.919  12.906  0.1767 -0.2961 -0.1742
 9038TIP3    H148529   4.563   3.944  12.898  0.7391  2.1993  0.2018
 9038TIP3    H248530   4.659   3.866  12.986 -0.7869  0.4052  0.3559
 9039TIP3   OH248531   0.140   0.386   0.925 -0.8376  0.2621  0.8840
 9039TIP3    H148532   0.232   0.384   0.901 -1.5579  2.7253 -3.0244
 9039TIP3    H248533   0.109   0.296   0.908  0.4913 -0.1689  0.6385
 9040TIP3   OH248534   2.189   4.815   0.087  0.1011 -0.4305  0.3498
 9040TIP3    H148535   2.267   4.785   0.133  0.5778 -2.1979 -1.4839
 9040TIP3    H248536   2.197   4.777  -0.001 -2.8654 -0.7197  0.1234
 9041TIP3   OH248537   5.506   1.988  15.789 -1.1609  0.2919  0.4530
 9041TIP3    H148538   5.510   2.059  15.853  0.6966  0.5777  0.0773
 9041TIP3    H248539   5.415   1.988  15.760 -1.8110  0.8044  2.3333
 9042TIP3   OH248540   3.199   3.594  13.615 -0.4650 -0.6781  0.2137
 9042TIP3    H148541   3.244   3.558  13.691  0.1110  1.7890  1.1308
 9042TIP3    H248542   3.112   3.618  13.648 -0.3681 -0.0157  0.0115
 9043TIP3   OH248543   1.356   4.701  11.029 -0.0862 -0.5011 -0.5894
 9043TIP3    H148544   1.422   4.649  11.075  0.1229  1.4047  1.3851
 9043TIP3    H248545   1.391   4.711  10.940  1.7774 -0.3805  0.1218
 9044TIP3   OH248546   0.684   0.361  12.184 -0.2400  0.1536  0.1644
 9044TIP3    H148547   0.708   0.337  12.273 -0.8962  3.2699  1.3458
 9044TIP3    H248548   0.764   0.394  12.145 -0.0534 -0.7842 -0.2694
 9045TIP3   OH248549   6.561   5.223  14.958 -0.2684  0.0634  0.3074
 9045TIP3    H148550   6.592   5.173  14.882 -1.4582 -0.1321 -0.0645
 9045TIP3    H248551   6.500   5.286  14.923  1.4010  2.0305  0.7495
 9046TIP3   OH248552   4.239   6.033   5.444 -0.1415  0.3777 -0.2728
 9046TIP3    H148553   4.333   6.021   5.461  0.2288  2.7941 -0.2256
 9046TIP3    H248554   4.203   6.061   5.528 -0.9532 -0.5639 -0.2870
 9047TIP3   OH248555   5.916   3.659  12.057 -0.1278 -0.5700 -0.3703
 9047TIP3    H148556   5.872   3.639  11.975  1.4302  0.4337 -1.4943
 9047TIP3    H248557   6.009   3.649  12.038  0.3001  0.1528  1.1490
 9048TIP3   OH248558   3.274   0.070  16.478  0.1374  0.2899  0.3059
 9048TIP3    H148559   3.300   0.157  16.447 -1.8451  1.2422  1.1462
 9048TIP3    H248560   3.343   0.045  16.540  0.0204  1.9257  1.1632
 9049TIP3   OH248561   6.232   1.516  14.826  0.7070 -0.0054 -0.2398
 9049TIP3    H148562   6.290   1.593  14.822 -0.4976  1.0273  0.9400
 9049TIP3    H248563   6.260   1.470  14.905 -0.7985  1.1717  1.0444
 9050TIP3   OH248564   4.744   4.692  15.828  0.3020 -0.2731 -0.4765
 9050TIP3    H148565   4.681   4.757  15.857  1.1444  1.0102 -1.3962
 9050TIP3    H248566   4.718   4.671  15.739  2.0552  1.5347 -1.5021
 9051TIP3   OH248567   2.295   5.639   2.285  0.4021  0.3173 -0.5594
 9051TIP3    H148568   2.228   5.583   2.246 -0.5028  0.4147  0.7555
 9051TIP3    H248569   2.278   5.726   2.249 -1.3590  0.7093  1.0483
 9052TIP3   OH248570   2.912   2.162   6.296 -0.1985  0.2414 -0.1709
 9052TIP3    H148571   2.905   2.244   6.248 -0.2770  0.6836  0.5824
 9052TIP3    H248572   3.001   2.131   6.276 -0.4538  0.0738 -1.1180
 9053TIP3   OH248573   4.505   5.945  13.188 -0.3393  0.5158  0.1740
 9053TIP3    H148574   4.529   5.971  13.099  1.4864  0.1606  0.5379
 9053TIP3    H248575   4.447   5.869  13.175  0.0964  0.3202 -0.7144
 9054TIP3   OH248576   6.850   6.506  12.752  0.3112  0.1945  0.0291
 9054TIP3    H148577   6.934   6.486  12.793  0.2176  0.9150  0.5853
 9054TIP3    H248578   6.869   6.581  12.696  0.1514  0.0177 -0.2660
 9055TIP3   OH248579   2.560   3.699   0.666  0.1462 -0.3144 -0.1648
 9055TIP3    H148580   2.579   3.776   0.612 -0.8357 -0.0988 -0.2384
 9055TIP3    H248581   2.641   3.648   0.667  1.4804  1.6552  1.4680
 9056TIP3   OH248582   0.457   0.462  12.446  0.5604  0.1997 -0.0071
 9056TIP3    H148583   0.507   0.542  12.462  0.3994  0.6708 -1.6586
 9056TIP3    H248584   0.444   0.461  12.352 -1.0721 -0.8038  0.1967
 9057TIP3   OH248585   4.837   5.258   1.185  0.1344  0.4482  0.3113
 9057TIP3    H148586   4.811   5.312   1.110  0.3295 -0.6260 -0.5544
 9057TIP3    H248587   4.845   5.320   1.258  0.6440  1.6258 -0.7134
 9058TIP3   OH248588   0.832   3.433   3.498 -0.0975 -0.0695  0.2109
 9058TIP3    H148589   0.913   3.382   3.507 -0.0211 -0.2753 -1.3891
 9058TIP3    H248590   0.764   3.377   3.535  0.2633 -0.5730  0.1242
 9059TIP3   OH248591   0.874   4.204  13.196 -0.0383 -0.2294  1.2727
 9059TIP3    H148592   0.809   4.174  13.132 -0.8508  0.6487  1.6567
 9059TIP3    H248593   0.892   4.127  13.250 -1.2611 -0.3177  1.5712
 9060TIP3   OH248594   4.893   3.351   0.712 -0.2522 -0.4186 -0.2548
 9060TIP3    H148595   4.846   3.430   0.740 -0.3221 -0.9028  1.0615
 9060TIP3    H248596   4.891   3.355   0.616 -1.2155  0.6107 -0.2179
 9061TIP3   OH248597   2.279   2.762  14.701  1.0715  0.3089  0.3081
 9061TIP3    H148598   2.306   2.677  14.667  1.9674  0.4349  0.6723
 9061TIP3    H248599   2.355   2.793  14.751 -0.0325  0.3166  2.0590
 9062TIP3   OH248600   4.459   0.216  14.550  0.6495  0.0293  0.3388
 9062TIP3    H148601   4.479   0.306  14.577  0.3414 -0.0134  0.7261
 9062TIP3    H248602   4.541   0.168  14.562  0.5413  0.0311  1.1350
 9063TIP3   OH248603   6.090   5.753   0.354 -0.2390 -0.0171  0.3049
 9063TIP3    H148604   6.115   5.812   0.283 -2.9641 -0.0833 -0.8364
 9063TIP3    H248605   6.072   5.670   0.311 -0.5278 -0.4823  1.2829
 9064TIP3   OH248606   5.269   6.292  14.492 -0.2051  0.5220 -0.0924
 9064TIP3    H148607   5.334   6.224  14.510 -1.1917 -0.1417  1.2227
 9064TIP3    H248608   5.309   6.348  14.426  1.5549 -0.0426  0.4507
 9065TIP3   OH248609   3.427   4.200  11.365 -0.3959 -0.5920 -0.1240
 9065TIP3    H148610   3.522   4.215  11.368 -0.4712 -0.1643  0.3029
 9065TIP3    H248611   3.393   4.251  11.439 -0.7955 -1.9248  0.6550
 9066TIP3   OH248612   0.314   0.388   1.536  0.2222  0.1083 -0.1853
 9066TIP3    H148613   0.408   0.385   1.554  0.2191 -0.2882 -0.2346
 9066TIP3    H248614   0.297   0.309   1.485 -0.2486 -0.1437  0.3564
 9067TIP3   OH248615   6.098   3.555   5.788 -0.3491  0.0901  0.2455
 9067TIP3    H148616   6.122   3.531   5.877  0.7129 -2.0096 -0.5236
 9067TIP3    H248617   6.031   3.492   5.763  0.7884 -0.6667 -1.0650
 9068TIP3   OH248618   1.727   3.831   1.986  0.3660  0.1579 -0.2983
 9068TIP3    H148619   1.712   3.739   1.963 -2.8690  0.2764  0.8716
 9068TIP3    H248620   1.680   3.880   1.918 -0.0090  0.8421  0.4430
 9069TIP3   OH248621   1.467   0.687   9.906 -0.7371 -0.2218  0.0115
 9069TIP3    H148622   1.453   0.753   9.973  2.2386 -0.2092  0.7715
 9069TIP3    H248623   1.562   0.683   9.896 -0.8685 -3.1930 -1.1928
 9070TIP3   OH248624   6.560   2.140  16.546 -0.5189 -0.3173 -0.5504
 9070TIP3    H148625   6.470   2.158  16.521 -0.9891 -0.1197  1.1703
 9070TIP3    H248626   6.599   2.227  16.561  0.1666 -0.3685 -1.9040
 9071TIP3   OH248627   1.998   1.554   2.893  0.7298 -0.3073  0.4647
 9071TIP3    H148628   1.998   1.564   2.798  1.3203  0.8176  0.5691
 9071TIP3    H248629   1.995   1.459   2.907 -3.8318 -0.5484 -0.6195
 9072TIP3   OH248630   0.354   1.089   5.864  0.2649  0.0314  0.4342
 9072TIP3    H148631   0.399   1.055   5.787  0.2539  0.1529  0.3740
 9072TIP3    H248632   0.423   1.109   5.926  0.2308 -0.7763  0.7440
 9073TIP3   OH248633   0.683   6.122   5.894  0.0652  0.2581 -1.0844
 9073TIP3    H148634   0.674   6.045   5.837  0.1407  1.1168 -2.2785
 9073TIP3    H248635   0.770   6.113   5.933  0.1765 -0.1331 -1.4134
 9074TIP3   OH248636   5.322   1.583  14.732 -0.0246 -0.5720  0.7202
 9074TIP3    H148637   5.339   1.572  14.826 -1.1683  1.6471  1.2533
 9074TIP3    H248638   5.267   1.508  14.709  1.7957 -2.1743  1.3375
 9075TIP3   OH248639   3.638   1.127   1.291  0.2625 -0.0872  0.0496
 9075TIP3    H148640   3.661   1.037   1.265  0.6152  0.2016 -0.6638
 9075TIP3    H248641   3.640   1.176   1.209 -1.9881  0.1556  0.0730
 9076TIP3   OH248642   0.307   0.196   4.253  0.1359  0.3476  0.0418
 9076TIP3    H148643   0.357   0.114   4.255  0.8398  0.7603 -0.3926
 9076TIP3    H248644   0.222   0.172   4.290 -0.5855 -1.2080 -2.3979
 9077TIP3   OH248645   4.713   0.754   2.037  0.5777  0.2780  0.0382
 9077TIP3    H148646   4.711   0.665   2.073  0.4119  0.0081 -0.6340
 9077TIP3    H248647   4.803   0.767   2.009  0.9404  0.8287  1.3594
 9078TIP3   OH248648   2.075   3.806  11.939 -0.6130 -0.3541  0.6076
 9078TIP3    H148649   2.082   3.902  11.944 -1.3178 -0.3699  2.3439
 9078TIP3    H248650   2.081   3.776  12.029 -2.2398 -1.7960  0.2986
 9079TIP3   OH248651   4.810   2.878   4.978 -0.5155  0.1764  0.1356
 9079TIP3    H148652   4.776   2.823   5.048  1.1074 -1.4030 -0.2515
 9079TIP3    H248653   4.772   2.843   4.898  1.2501 -1.0902 -0.2142
 9080TIP3   OH248654   4.256   3.370   2.126 -0.0756  0.6438 -0.0401
 9080TIP3    H148655   4.321   3.332   2.066  0.7078 -2.8355  2.6842
 9080TIP3    H248656   4.174   3.328   2.101 -0.3288  1.2993 -0.3470
 9081TIP3   OH248657   3.966   2.904  16.087  0.9924  0.7161  0.6580
 9081TIP3    H148658   4.048   2.866  16.055  1.1025 -0.5585  2.3019
 9081TIP3    H248659   3.919   2.830  16.126  1.7781  2.3121  5.2496
 9082TIP3   OH248660   4.990   2.571  15.082 -0.6902  0.4096 -0.2759
 9082TIP3    H148661   4.984   2.551  14.988 -1.0908 -0.2142 -0.1244
 9082TIP3    H248662   5.068   2.626  15.090  0.6659 -1.3373 -0.6993
 9083TIP3   OH248663   0.792   2.138   3.896  0.9681 -0.7558  0.5370
 9083TIP3    H148664   0.697   2.144   3.895  0.9998 -0.2026 -0.6503
 9083TIP3    H248665   0.814   2.123   3.988 -0.2426 -0.6409  0.8631
 9084TIP3   OH248666   1.446   5.245  11.868  0.3880  0.4956  0.4909
 9084TIP3    H148667   1.496   5.167  11.844 -1.6507 -1.0170  0.8097
 9084TIP3    H248668   1.477   5.267  11.956 -0.7328 -1.5693  1.4751
 9085TIP3   OH248669   2.242   1.766  16.554  0.0031  0.2355  0.2977
 9085TIP3    H148670   2.310   1.704  16.580  0.1197  0.1891 -0.1224
 9085TIP3    H248671   2.188   1.776  16.633  0.3977  0.1475  0.5801
 9086TIP3   OH248672   2.910   2.937   6.250 -0.7224 -0.0546  0.5335
 9086TIP3    H148673   2.939   2.868   6.309 -0.5078  0.7525  1.4095
 9086TIP3    H248674   2.878   2.891   6.172  1.0195 -1.0635  0.3617
 9087TIP3   OH248675   3.734   5.099   0.349 -0.0213  0.2198  0.3906
 9087TIP3    H148676   3.796   5.136   0.287 -0.5525 -0.5815 -0.6465
 9087TIP3    H248677   3.772   5.117   0.435  1.5232 -0.0437 -0.2136
 9088TIP3   OH248678   4.687   3.222  15.517  0.0578 -0.2248  0.0814
 9088TIP3    H148679   4.609   3.252  15.564  0.6335 -1.0033  1.6300
 9088TIP3    H248680   4.745   3.298  15.515 -0.3392  0.0691 -0.1649
 9089TIP3   OH248681   6.872   5.632  13.221 -0.1417 -0.1012  0.0802
 9089TIP3    H148682   6.781   5.637  13.191 -0.5643 -0.3055  1.2546
 9089TIP3    H248683   6.896   5.540  13.210 -0.1232 -0.0752 -0.0980
 9090TIP3   OH248684   4.671   4.515   1.498 -0.0578  0.0053  0.6736
 9090TIP3    H148685   4.714   4.464   1.567 -1.7249  0.1864  1.9161
 9090TIP3    H248686   4.739   4.572   1.464  1.3183 -1.5141  0.7428
 9091TIP3   OH248687   4.436   4.502  13.669  0.4739  0.6731 -0.4072
 9091TIP3    H148688   4.464   4.588  13.639 -0.3899  0.9854 -0.3559
 9091TIP3    H248689   4.506   4.472  13.727  1.1578  0.9846 -1.0540
 9092TIP3   OH248690   0.029   3.134  13.175 -0.0882 -0.3798 -0.4693
 9092TIP3    H148691   0.091   3.200  13.143 -0.3020 -0.3965 -0.9213
 9092TIP3    H248692   0.077   3.088  13.244  0.8182 -1.1343 -1.5571
 9093TIP3   OH248693   2.356   1.818  15.368  0.0648  0.3847 -0.1297
 9093TIP3    H148694   2.402   1.785  15.445  0.4663  1.5465  0.1396
 9093TIP3    H248695   2.263   1.815  15.392  0.2284  1.4033  0.6757
 9094TIP3   OH248696   2.424   0.282  11.415 -0.2430  0.1169 -0.0263
 9094TIP3    H148697   2.333   0.251  11.418 -0.5307  0.6429 -1.7757
 9094TIP3    H248698   2.421   0.368  11.457 -0.3477 -0.2669  0.7698
 9095TIP3   OH248699   1.770   1.741  15.539 -0.9940 -0.1794 -0.2784
 9095TIP3    H148700   1.725   1.766  15.620 -0.2009 -0.2641  0.1992
 9095TIP3    H248701   1.761   1.818  15.482 -2.9127 -0.6895 -0.7245
 9096TIP3   OH248702   2.605   2.895   0.720 -0.1942 -0.0378  0.1131
 9096TIP3    H148703   2.680   2.937   0.678 -1.2474  1.0145 -0.7701
 9096TIP3    H248704   2.538   2.891   0.651 -1.5453  0.6196  1.3556
 9097TIP3   OH248705   1.745   4.824   2.691  0.0776  0.0548 -0.2921
 9097TIP3    H148706   1.699   4.749   2.728  1.7215 -1.0574 -0.4008
 9097TIP3    H248707   1.719   4.825   2.598  0.3872 -0.6534 -0.3897
 9098TIP3   OH248708   4.409   6.291   4.112 -0.4968 -0.4916 -0.0431
 9098TIP3    H148709   4.477   6.228   4.088  0.0510  0.0178  0.1352
 9098TIP3    H248710   4.457   6.372   4.129 -1.2781  0.2641 -1.2872
 9099TIP3   OH248711   4.890   6.209   2.354 -0.3700 -0.1566  0.3251
 9099TIP3    H148712   4.853   6.188   2.440 -1.6263  2.2231  0.4505
 9099TIP3    H248713   4.832   6.165   2.292 -1.2730  0.5600  0.6408
 9100TIP3   OH248714   6.246   1.470  12.626 -0.3977 -0.6230  0.5609
 9100TIP3    H148715   6.201   1.403  12.575  1.3480 -1.3300 -0.1250
 9100TIP3    H248716   6.183   1.493  12.695 -2.5319 -0.1540 -1.4205
 9101TIP3   OH248717   3.360   0.118  12.334 -0.3002  0.1828  0.1907
 9101TIP3    H148718   3.275   0.126  12.290 -0.0734  1.4580 -0.0489
 9101TIP3    H248719   3.364   0.027  12.362 -2.0834  0.2903  0.8881
 9102TIP3   OH248720   4.302   3.212   4.231 -0.0724 -0.2780 -0.2738
 9102TIP3    H148721   4.309   3.117   4.246 -0.7008 -0.5956 -1.8205
 9102TIP3    H248722   4.208   3.229   4.233  0.0793  0.6597  1.7026
 9103TIP3   OH248723   2.541   5.299   1.750 -0.2612  0.4715  0.1882
 9103TIP3    H148724   2.624   5.254   1.766 -0.3084 -0.4182 -1.7631
 9103TIP3    H248725   2.567   5.386   1.719  0.0033 -0.0133 -1.0228
 9104TIP3   OH248726   3.774   4.410  12.598 -0.7320  0.5006  0.1981
 9104TIP3    H148727   3.705   4.403  12.532  0.5222 -1.2323 -1.0114
 9104TIP3    H248728   3.855   4.393  12.551  0.2737 -0.2705  2.0733
 9105TIP3   OH248729   1.129   4.238   3.948 -0.1839 -0.4696  0.2014
 9105TIP3    H148730   1.109   4.154   3.908 -1.1846  0.3329 -1.0600
 9105TIP3    H248731   1.141   4.298   3.875  0.4694  0.5037  1.0736
 9106TIP3   OH248732   1.519   1.774  12.296  0.4360  0.2642  0.5044
 9106TIP3    H148733   1.434   1.753  12.335 -0.3281  2.0891 -0.0355
 9106TIP3    H248734   1.510   1.865  12.267  1.8078 -0.1968 -1.6345
 9107TIP3   OH248735   1.989   1.694   4.780  0.2101 -0.1708 -0.2817
 9107TIP3    H148736   1.988   1.736   4.694  0.2560  0.7057  0.1446
 9107TIP3    H248737   1.899   1.699   4.811 -0.1575 -1.8829 -0.9254
 9108TIP3   OH248738   2.527   5.826   4.951  0.4467  0.1502  0.1907
 9108TIP3    H148739   2.522   5.777   4.869 -1.1878  0.4683  0.0702
 9108TIP3    H248740   2.612   5.870   4.947  1.4597 -1.7428 -0.2026
 9109TIP3   OH248741   6.024   3.690   5.025  0.4414 -0.5348  0.0566
 9109TIP3    H148742   5.971   3.729   4.955 -0.2660 -2.3706 -0.4989
 9109TIP3    H248743   6.032   3.759   5.091 -0.8870  0.4701 -0.7803
 9110TIP3   OH248744   4.909   2.954   0.750 -0.2230 -0.6165  0.1787
 9110TIP3    H148745   4.910   2.868   0.707  0.3742  1.0160 -3.4853
 9110TIP3    H248746   5.000   2.968   0.776  0.0343 -0.4419 -0.7740
 9111TIP3   OH248747   3.455   4.361  10.570 -0.3321  0.0149  0.5875
 9111TIP3    H148748   3.459   4.384  10.478 -0.0025 -0.4122  0.4928
 9111TIP3    H248749   3.546   4.362  10.599 -0.1999 -1.9278  0.3810
 9112TIP3   OH248750   4.344   6.609  12.502  0.5452  0.0878  0.0488
 9112TIP3    H148751   4.394   6.550  12.558 -0.1268  1.0074  1.6804
 9112TIP3    H248752   4.397   6.688  12.496 -0.7724  1.2122  2.1001
 9113TIP3   OH248753   3.926   0.906   3.673 -0.9515 -0.0725  0.0206
 9113TIP3    H148754   4.002   0.886   3.618 -1.9250  0.3273 -1.5326
 9113TIP3    H248755   3.956   0.890   3.763  0.5770 -1.1149 -0.6416
 9114TIP3   OH248756   3.382   0.612  12.432 -0.0522 -0.0809 -0.2098
 9114TIP3    H148757   3.423   0.595  12.347 -1.7513 -1.2508 -0.8469
 9114TIP3    H248758   3.290   0.626  12.412 -0.4137  0.0823  1.4097
 9115TIP3   OH248759   2.729   5.692   1.991 -0.7702  0.4973 -0.5111
 9115TIP3    H148760   2.756   5.748   2.064  0.5214 -1.1589  0.3600
 9115TIP3    H248761   2.665   5.632   2.030 -0.9672  0.3728 -1.0250
 9116TIP3   OH248762   5.866   4.999   3.939  0.0147 -0.1311 -0.2321
 9116TIP3    H148763   5.892   4.913   3.972  0.5136 -0.0638 -0.4536
 9116TIP3    H248764   5.901   5.061   4.003 -0.3218 -0.0869 -0.0867
 9117TIP3   OH248765   5.647   4.639  14.649 -0.0362  0.0181  0.4274
 9117TIP3    H148766   5.666   4.693  14.572 -1.1560  0.8829  0.7404
 9117TIP3    H248767   5.607   4.699  14.712  1.0731 -0.6078  1.8053
 9118TIP3   OH248768   1.791   2.376  15.908 -0.2623 -0.1381  0.0973
 9118TIP3    H148769   1.772   2.300  15.853  1.5825  0.1331 -1.0301
 9118TIP3    H248770   1.874   2.410  15.872 -0.4559  1.7101  1.3033
 9119TIP3   OH248771   4.943   6.480  14.073 -0.3148 -0.2194  0.1508
 9119TIP3    H148772   4.863   6.529  14.089  0.0636  0.0921  1.1472
 9119TIP3    H248773   4.993   6.487  14.154  1.2030  0.4879 -0.8017
 9120TIP3   OH248774   1.094   6.601  14.923  0.4101 -0.0322 -0.1834
 9120TIP3    H148775   1.059   6.652  14.850 -1.7603 -1.3466 -0.1546
 9120TIP3    H248776   1.174   6.646  14.948 -1.3675  3.3934 -0.1168
 9121TIP3   OH248777   2.580   5.769   4.462  0.1682  0.0143 -0.4324
 9121TIP3    H148778   2.647   5.814   4.410 -1.0267 -0.4004 -2.4396
 9121TIP3    H248779   2.524   5.726   4.397 -3.0503  1.6738  1.0316
 9122TIP3   OH248780   2.182   3.969  15.817  0.4915 -0.2747 -0.1551
 9122TIP3    H148781   2.137   3.954  15.734 -0.7169  3.3589 -0.3461
 9122TIP3    H248782   2.245   4.038  15.799 -1.0648  1.9690  2.1788
 9123TIP3   OH248783   3.392   4.482  14.486  0.3247  0.2533 -0.2759
 9123TIP3    H148784   3.429   4.547  14.546 -0.8381  0.7919 -0.1181
 9123TIP3    H248785   3.463   4.463  14.425  0.4387  2.2943 -0.8373
 9124TIP3   OH248786   3.133   4.543  16.455 -0.1879  0.2053 -0.1374
 9124TIP3    H148787   3.190   4.529  16.530  1.0975  0.6119 -0.9920
 9124TIP3    H248788   3.131   4.458  16.410 -1.0992 -0.0861  0.4367
 9125TIP3   OH248789   6.704   3.561   3.321  0.2034 -0.2435  0.0965
 9125TIP3    H148790   6.643   3.627   3.354 -0.9486 -0.1120 -2.0896
 9125TIP3    H248791   6.789   3.585   3.358 -0.6610  0.9364  1.3841
 9126TIP3   OH248792   4.974   2.031   1.749 -0.0418 -0.0279  0.0194
 9126TIP3    H148793   4.969   2.014   1.655 -1.3189  0.4727 -0.0187
 9126TIP3    H248794   4.935   1.954   1.790 -2.1715  0.9786 -0.0020
 9127TIP3   OH248795   2.974   3.512  11.752 -0.1805  0.2755  0.1584
 9127TIP3    H148796   2.990   3.538  11.843 -2.6473  0.2289  0.6786
 9127TIP3    H248797   2.940   3.422  11.759 -0.2047  0.2004 -0.8309
 9128TIP3   OH248798   4.896   0.273  15.412  0.4893 -0.0629  0.5014
 9128TIP3    H148799   4.948   0.194  15.427  0.1274 -0.5568 -0.7283
 9128TIP3    H248800   4.807   0.241  15.396 -0.2414  0.7692  2.5724
 9129TIP3   OH248801   6.419   2.407   3.882  0.1243 -0.0426  0.1722
 9129TIP3    H148802   6.442   2.470   3.813 -1.8124 -0.5682 -1.0207
 9129TIP3    H248803   6.388   2.461   3.954 -2.4601  0.4461 -1.1982
 9130TIP3   OH248804   3.833   2.165  13.640 -0.4536  0.0254  0.0563
 9130TIP3    H148805   3.894   2.235  13.664 -2.3421  2.0788 -0.6829
 9130TIP3    H248806   3.888   2.087  13.629  2.4344  2.1507 -2.6380
 9131TIP3   OH248807   5.929   3.540   5.250  0.3518 -0.1226  0.5631
 9131TIP3    H148808   5.953   3.578   5.334  0.0908  2.7839 -0.5544
 9131TIP3    H248809   5.983   3.586   5.186 -1.6463  0.0167 -1.1458
 9132TIP3   OH248810   3.548   6.013   4.509  0.8294 -0.3912 -0.5356
 9132TIP3    H148811   3.503   5.933   4.481 -0.0754 -0.3692  0.7735
 9132TIP3    H248812   3.491   6.084   4.479  1.0378 -0.2732 -0.6586
 9133TIP3   OH248813   0.202   1.682  13.692  0.7561  0.3020  0.4695
 9133TIP3    H148814   0.260   1.668  13.767 -0.1266 -1.3626  0.9038
 9133TIP3    H248815   0.260   1.687  13.616  1.5652  0.4851  1.0921
 9134TIP3   OH248816   3.630   6.381   4.447 -0.0807 -0.0327 -0.1540
 9134TIP3    H148817   3.625   6.310   4.511  0.5696 -1.3420 -1.4850
 9134TIP3    H248818   3.713   6.425   4.465 -0.9155  1.0218  1.2706
 9135TIP3   OH248819   4.635   2.583   4.551 -0.1176  0.1293  0.5507
 9135TIP3    H148820   4.696   2.517   4.584  1.1623  1.3415  0.7404
 9135TIP3    H248821   4.685   2.631   4.485 -0.4530  1.8837  1.5090
 9136TIP3   OH248822   2.985   3.409   5.206  0.5886  0.3567  0.0996
 9136TIP3    H148823   3.043   3.435   5.278 -0.7109  0.7801  1.0417
 9136TIP3    H248824   3.027   3.444   5.128  1.6225  0.6202  0.7468
 9137TIP3   OH248825   3.508   0.099   3.091 -0.2240 -0.4274  0.0142
 9137TIP3    H148826   3.442   0.037   3.120 -0.0674 -0.1863  0.9192
 9137TIP3    H248827   3.556   0.122   3.170  0.4537 -0.0165 -0.5004
 9138TIP3   OH248828   4.363   0.885  10.707 -0.1787  0.1509  0.1705
 9138TIP3    H148829   4.315   0.815  10.662 -2.0328  0.7099  1.1770
 9138TIP3    H248830   4.409   0.931  10.637 -0.2334 -1.0718 -0.7032
 9139TIP3   OH248831   5.916   5.333  16.330  0.1537  0.1804 -0.3058
 9139TIP3    H148832   5.956   5.420  16.331 -2.3422  1.4189 -1.0106
 9139TIP3    H248833   5.954   5.290  16.253  0.7165  0.9854 -0.4938
 9140TIP3   OH248834   5.138   3.219  12.212 -0.3259 -0.0311 -0.2576
 9140TIP3    H148835   5.076   3.157  12.174 -1.8663  0.7725  0.8197
 9140TIP3    H248836   5.141   3.292  12.149 -1.4934  0.4993  0.2759
 9141TIP3   OH248837   5.040   4.553   5.165  0.1067  0.2956 -0.0086
 9141TIP3    H148838   4.996   4.583   5.085  0.1129  1.3617  0.3662
 9141TIP3    H248839   4.981   4.488   5.202 -0.3430  0.4764 -0.3943
 9142TIP3   OH248840   1.068   6.105   3.051 -0.3876  0.7794 -0.2651
 9142TIP3    H148841   1.115   6.024   3.031 -0.6568  0.2888  1.0285
 9142TIP3    H248842   1.137   6.168   3.071 -0.2155  0.5823 -0.2365
 9143TIP3   OH248843   6.081   6.398  14.381 -0.0773 -0.2001  0.2352
 9143TIP3    H148844   6.011   6.334  14.390  0.1619 -0.4225  0.5472
 9143TIP3    H248845   6.040   6.474  14.340 -0.4001 -0.4905  0.0139
 9144TIP3   OH248846   4.289   2.207   0.838 -0.3052  0.3926  0.5309
 9144TIP3    H148847   4.282   2.113   0.825 -0.7966  0.5728 -0.5960
 9144TIP3    H248848   4.251   2.222   0.925 -2.6405 -0.1746 -0.3084
 9145TIP3   OH248849   4.062   0.438  14.074 -0.0657 -0.0988  0.2924
 9145TIP3    H148850   4.119   0.482  14.137 -0.3574  2.1846 -0.8948
 9145TIP3    H248851   4.069   0.492  13.995 -2.2929 -0.9099 -0.5345
 9146TIP3   OH248852   1.753   0.716   5.702 -0.2822 -0.2170 -0.5429
 9146TIP3    H148853   1.778   0.806   5.723  1.6321 -0.3099 -2.1509
 9146TIP3    H248854   1.657   0.716   5.707 -0.2942  1.7700 -0.0241
 9147TIP3   OH248855   0.772   2.650   0.592  0.5457 -0.0878 -0.1203
 9147TIP3    H148856   0.817   2.620   0.514 -2.2051 -0.8677 -1.5495
 9147TIP3    H248857   0.747   2.570   0.638  0.9146  0.3208  0.8197
 9148TIP3   OH248858   4.264   1.034   3.256  0.1306  0.2712 -0.0671
 9148TIP3    H148859   4.323   0.994   3.320 -0.5509 -0.3807  0.1636
 9148TIP3    H248860   4.319   1.097   3.209  0.9873 -0.2603  0.2010
 9149TIP3   OH248861   5.583   1.014   2.750 -0.4333  0.0887  0.5168
 9149TIP3    H148862   5.525   1.072   2.799 -1.4949 -1.2943  0.9577
 9149TIP3    H248863   5.657   0.999   2.808  0.8558  2.5423 -0.3805
 9150TIP3   OH248864   3.102   1.177   3.400  0.5453  0.4375  0.1312
 9150TIP3    H148865   3.106   1.245   3.468 -0.9692 -1.2563  2.0336
 9150TIP3    H248866   3.014   1.141   3.408  1.1662 -1.4785 -1.1044
 9151TIP3   OH248867   0.475   3.928  10.847 -0.2019  0.4804 -0.5435
 9151TIP3    H148868   0.479   3.875  10.767 -1.2259 -0.8115  0.2168
 9151TIP3    H248869   0.526   4.007  10.827 -0.5265  0.2348 -2.4969
 9152TIP3   OH248870   2.014   3.014   1.157 -0.1636  0.1022 -0.0731
 9152TIP3    H148871   2.017   2.972   1.071 -1.5191 -1.1590  0.4548
 9152TIP3    H248872   2.106   3.023   1.182  0.2100 -1.6902 -0.6464
 9153TIP3   OH248873   3.894   4.141   2.982 -0.0694 -0.3470  0.5319
 9153TIP3    H148874   3.855   4.229   2.985  1.9900  0.6249  0.3919
 9153TIP3    H248875   3.830   4.089   2.934 -0.1723  1.7362 -1.8270
 9154TIP3   OH248876   4.463   6.450   5.442  0.5154 -0.1416 -0.3043
 9154TIP3    H148877   4.537   6.438   5.501  0.5181  2.3634  0.2938
 9154TIP3    H248878   4.387   6.420   5.492  0.6711  0.8378  0.5296
 9155TIP3   OH248879   5.651   6.678   2.329 -0.6823  0.1330  0.0709
 9155TIP3    H148880   5.690   6.691   2.242 -0.5879 -3.5473 -0.6132
 9155TIP3    H248881   5.556   6.682   2.314 -0.6606 -0.0474 -0.1126
 9156TIP3   OH248882   1.828   0.173   3.577 -0.2601 -0.0659 -0.0832
 9156TIP3    H148883   1.781   0.110   3.631 -0.0491  0.7731  1.1220
 9156TIP3    H248884   1.852   0.243   3.637  0.7212  0.5106 -1.0988
 9157TIP3   OH248885   1.564   0.643  12.196  0.0034 -0.0880 -0.5398
 9157TIP3    H148886   1.475   0.643  12.162 -0.1596  1.1791 -0.1999
 9157TIP3    H248887   1.553   0.644  12.291  0.4250 -1.9944 -0.4455
 9158TIP3   OH248888   4.104   2.302  14.432 -0.1521 -0.0570  0.2834
 9158TIP3    H148889   4.183   2.252  14.452 -1.0640 -1.7014 -0.0259
 9158TIP3    H248890   4.056   2.247  14.370 -1.1817  1.2652 -0.1505
 9159TIP3   OH248891   5.046   4.824  13.256  0.5347 -0.3260 -0.2404
 9159TIP3    H148892   4.956   4.796  13.276 -0.0248  0.5281 -1.4810
 9159TIP3    H248893   5.035   4.905  13.206  1.9741 -0.6900 -1.1830
 9160TIP3   OH248894   1.095   5.501   5.326  0.5350 -0.0846 -0.2897
 9160TIP3    H148895   1.028   5.467   5.267  0.5713 -0.2355 -0.2438
 9160TIP3    H248896   1.176   5.496   5.276  0.5028  0.1580 -0.3677
 9161TIP3   OH248897   5.512   6.548  11.400 -0.1894 -0.7601  0.0963
 9161TIP3    H148898   5.445   6.480  11.390 -0.7600 -0.1163 -0.5461
 9161TIP3    H248899   5.547   6.559  11.311  0.5060 -0.8151  0.3578
 9162TIP3   OH248900   1.506   3.728   0.272  0.9121  0.8261  0.6674
 9162TIP3    H148901   1.475   3.680   0.196  0.2256  1.7568  0.3369
 9162TIP3    H248902   1.519   3.662   0.339  0.0668  0.1799  0.2072
 9163TIP3   OH248903   3.267   1.450   4.558 -0.0604 -0.3901 -0.1621
 9163TIP3    H148904   3.204   1.435   4.629  1.4077 -0.0964  1.2779
 9163TIP3    H248905   3.264   1.544   4.544 -0.5023 -0.4740 -0.6572
 9164TIP3   OH248906   2.959   6.429  14.510 -0.1402  0.4774 -0.1198
 9164TIP3    H148907   3.033   6.461  14.562  0.3280 -2.1262  0.9914
 9164TIP3    H248908   2.993   6.425  14.421  1.4800 -1.5883  0.5109
 9165TIP3   OH248909   0.524   2.961  13.992 -0.2278 -0.7024 -0.0118
 9165TIP3    H148910   0.558   2.962  14.081  0.9059  0.4389 -0.4297
 9165TIP3    H248911   0.429   2.971  14.002  0.0948  2.5130  1.0215
 9166TIP3   OH248912   3.437   6.206  15.804 -0.1806 -0.2435 -0.3305
 9166TIP3    H148913   3.363   6.253  15.842 -0.1969  1.7023 -2.5339
 9166TIP3    H248914   3.514   6.243  15.848 -0.3545 -0.3440  0.0628
 9167TIP3   OH248915   2.478   3.352  14.224 -0.4721  0.0395  0.0042
 9167TIP3    H148916   2.537   3.301  14.168  1.0890  2.5255 -0.7847
 9167TIP3    H248917   2.508   3.334  14.313  1.5928  1.2483 -0.3747
 9168TIP3   OH248918   6.036   1.401  16.198 -0.1893  0.2716  0.3861
 9168TIP3    H148919   6.073   1.354  16.273  0.1490 -0.3715 -0.1736
 9168TIP3    H248920   5.989   1.334  16.148  2.2173 -0.0383 -1.6809
 9169TIP3   OH248921   3.334   2.069  16.383 -0.6015 -0.4012  0.8143
 9169TIP3    H148922   3.299   1.988  16.345 -1.3765 -0.0268  0.7224
 9169TIP3    H248923   3.311   2.064  16.476  1.1698 -1.2499  1.2488
 9170TIP3   OH248924   4.617   1.611   4.359  0.2144 -0.4753 -0.6260
 9170TIP3    H148925   4.645   1.537   4.412 -0.7725 -0.3550  0.0911
 9170TIP3    H248926   4.523   1.598   4.347 -0.0848  0.9101 -0.0600
 9171TIP3   OH248927   2.444   6.816   2.671 -0.3009  0.5520  0.3023
 9171TIP3    H148928   2.477   6.870   2.599 -0.6328  0.3424 -0.0064
 9171TIP3    H248929   2.487   6.731   2.658  2.2615  1.4183  2.2446
 9172TIP3   OH248930   6.403   3.755  10.265 -0.3299  0.1799  0.1345
 9172TIP3    H148931   6.439   3.688  10.208 -0.5459  0.5971 -0.5005
 9172TIP3    H248932   6.406   3.836  10.214 -0.4737  0.5759  0.7296
 9173TIP3   OH248933   5.935   4.814   4.142 -0.1750 -0.3063 -0.0861
 9173TIP3    H148934   5.858   4.828   4.197 -0.5898 -1.2575 -0.3981
 9173TIP3    H248935   6.009   4.844   4.196 -0.8319  1.7006 -0.2141
 9174TIP3   OH248936   5.242   2.318  14.310  0.3655 -0.3730  0.1230
 9174TIP3    H148937   5.234   2.223  14.309 -2.4814 -0.2178  0.3531
 9174TIP3    H248938   5.197   2.346  14.389 -1.0909  1.2510 -1.1796
 9175TIP3   OH248939   2.959   1.250   5.568  0.1472 -0.1349  0.4056
 9175TIP3    H148940   2.954   1.208   5.482  0.2824  1.3796 -0.3794
 9175TIP3    H248941   3.049   1.235   5.597  0.5989  0.7627 -0.4906
 9176TIP3   OH248942   5.787   3.523   1.912  0.0288  0.0040 -0.2148
 9176TIP3    H148943   5.786   3.544   2.005 -0.2929 -0.5185 -0.0935
 9176TIP3    H248944   5.750   3.435   1.907  0.5705 -0.1961 -0.7822
 9177TIP3   OH248945   2.528   3.342   1.636 -0.3261  0.6946 -0.0591
 9177TIP3    H148946   2.624   3.345   1.631 -0.1987 -0.7212  0.9344
 9177TIP3    H248947   2.502   3.286   1.563 -0.2127 -0.5693  0.8285
 9178TIP3   OH248948   1.387   0.035   3.270  0.0937  0.2459 -0.3437
 9178TIP3    H148949   1.349  -0.033   3.326  0.9981  0.1572  0.1785
 9178TIP3    H248950   1.318   0.101   3.263 -0.1964  0.0462  0.5095
 9179TIP3   OH248951   0.049   6.763  10.867 -0.1722  0.2318  0.0275
 9179TIP3    H148952   0.066   6.669  10.878 -1.9000 -0.2686 -1.2086
 9179TIP3    H248953   0.083   6.783  10.779  0.4989  0.8682  0.4166
 9180TIP3   OH248954   5.797   0.907  13.216  0.7168 -0.2403  0.7410
 9180TIP3    H148955   5.752   0.930  13.297  0.2418  3.0122 -0.2773
 9180TIP3    H248956   5.885   0.881  13.244  0.6014  0.9246  2.3166
 9181TIP3   OH248957   5.419   1.206  11.221  0.1353 -1.2197 -0.2639
 9181TIP3    H148958   5.416   1.186  11.127 -0.8597 -0.2695 -0.4599
 9181TIP3    H248959   5.447   1.125  11.262  1.6217 -1.3685 -1.4605
 9182TIP3   OH248960   5.799   3.789   2.366 -0.4739 -0.0942 -0.0971
 9182TIP3    H148961   5.778   3.757   2.453  0.0615 -0.5921 -0.1398
 9182TIP3    H248962   5.715   3.799   2.322 -0.7067 -0.4899  0.2562
 9183TIP3   OH248963   1.462   0.207  12.128 -0.3288  0.2026 -0.7098
 9183TIP3    H148964   1.531   0.212  12.061  0.8559 -1.4354  0.2984
 9183TIP3    H248965   1.487   0.272  12.193 -0.2076  0.2174 -0.7702
 9184TIP3   OH248966   1.046   6.012  16.595  0.4809  0.3478 -0.2510
 9184TIP3    H148967   1.087   5.927  16.610  0.4106  0.5347  1.0989
 9184TIP3    H248968   1.110   6.060  16.542  0.7715 -0.3300 -0.5292
 9185TIP3   OH248969   5.754   6.274  13.147  0.5781 -0.2766  0.2904
 9185TIP3    H148970   5.731   6.193  13.191  0.3713 -0.0385  0.6242
 9185TIP3    H248971   5.671   6.312  13.119  0.6856 -0.2704 -0.0327
 9186TIP3   OH248972   3.822   5.284   2.450 -0.0213 -0.0142  0.2502
 9186TIP3    H148973   3.857   5.371   2.467  0.8914 -0.2259 -0.5134
 9186TIP3    H248974   3.730   5.289   2.478  0.6261  0.4835  2.4565
 9187TIP3   OH248975   4.582   2.228  10.254  0.3126 -0.3692  0.2709
 9187TIP3    H148976   4.665   2.207  10.297  1.0339 -1.6922 -1.6424
 9187TIP3    H248977   4.542   2.143  10.235  0.3161  0.1137 -2.1315
 9188TIP3   OH248978   3.668   5.481  16.113  0.4116  0.5505  0.0060
 9188TIP3    H148979   3.687   5.543  16.042 -0.7281  0.0937 -0.7342
 9188TIP3    H248980   3.681   5.395  16.073  2.8257  0.2533  1.2600
 9189TIP3   OH248981   5.873   2.665  15.633 -0.5039  0.2439 -0.2447
 9189TIP3    H148982   5.833   2.578  15.643  0.2868 -0.1007  0.0544
 9189TIP3    H248983   5.925   2.676  15.712 -0.7143  1.0629 -0.2179
 9190TIP3   OH248984   1.178   0.007   3.954 -0.1211 -0.1863  0.6549
 9190TIP3    H148985   1.118  -0.064   3.977  0.3132 -0.6097  0.5157
 9190TIP3    H248986   1.240   0.011   4.027  1.6891 -2.0048 -0.6471
 9191TIP3   OH248987   4.107   1.592   0.329 -0.1162  0.1999  0.7413
 9191TIP3    H148988   4.087   1.547   0.247  1.0854  1.2372 -0.1658
 9191TIP3    H248989   4.163   1.531   0.377 -0.7131 -0.3600  0.7371
 9192TIP3   OH248990   4.717   5.960   0.995  0.2769  0.0122 -0.1905
 9192TIP3    H148991   4.792   6.014   0.969  0.1851 -0.2339 -1.0184
 9192TIP3    H248992   4.667   6.015   1.055  1.0881  0.2023  0.3158
 9193TIP3   OH248993   0.507   2.192  15.180  0.1365 -0.5214 -0.4090
 9193TIP3    H148994   0.464   2.106  15.188 -0.0275 -0.3137  1.2400
 9193TIP3    H248995   0.440   2.249  15.144  0.1333 -0.9879 -1.1728
 9194TIP3   OH248996   1.577   5.237   3.900 -0.1459 -0.2903  0.4809
 9194TIP3    H148997   1.513   5.213   3.966  0.3804 -0.3267  0.9893
 9194TIP3    H248998   1.604   5.326   3.924 -0.1349 -0.2043  0.1638
 9195TIP3   OH248999   3.875   3.100   3.205 -0.3672 -0.3851  0.1481
 9195TIP3    H149000   3.805   3.146   3.159 -0.8822 -0.1456  1.1400
 9195TIP3    H249001   3.930   3.063   3.135 -1.0763  0.0284 -0.6441
 9196TIP3   OH249002   2.313   1.336  14.971 -0.4339  0.4896  0.2103
 9196TIP3    H149003   2.299   1.406  15.034  0.5476  1.2573 -0.3798
 9196TIP3    H249004   2.358   1.268  15.020  1.6659  1.6831  0.0637
 9197TIP3   OH249005   4.391   6.198   2.524 -0.5142  0.0529  0.3877
 9197TIP3    H149006   4.471   6.158   2.560  0.4147  1.7164  0.2920
 9197TIP3    H249007   4.357   6.250   2.597 -0.7249  0.4582 -0.0008
 9198TIP3   OH249008   1.407   6.718  10.463  0.7190  0.2081 -0.5088
 9198TIP3    H149009   1.387   6.700  10.555  2.2521 -0.9448 -0.3614
 9198TIP3    H249010   1.378   6.808  10.449  3.0436  1.4736  1.9351
 9199TIP3   OH249011   0.293   5.119  15.324 -0.8480 -0.3603  0.2144
 9199TIP3    H149012   0.300   5.026  15.346 -0.8659 -0.6944 -1.1567
 9199TIP3    H249013   0.221   5.124  15.261 -0.7268  0.5609  0.1297
 9200TIP3   OH249014   2.014   2.098   2.396 -0.4793  0.5979 -0.5097
 9200TIP3    H149015   1.964   2.178   2.411 -2.5156 -0.1949 -2.4476
 9200TIP3    H249016   2.042   2.070   2.484  0.2825  3.3612  0.2075
 9201TIP3   OH249017   4.852   3.186   9.995 -0.8726  0.4676  0.0586
 9201TIP3    H149018   4.889   3.151  10.077 -1.2448 -1.1884 -0.4283
 9201TIP3    H249019   4.919   3.169   9.929 -0.8624  1.1482 -0.1061
 9202TIP3   OH249020   4.035   2.954   0.189 -0.4376  0.5406  0.6019
 9202TIP3    H149021   4.108   2.952   0.251  0.7689  0.1285 -0.7902
 9202TIP3    H249022   4.023   3.047   0.168 -2.0151  0.8935  2.7050
 9203TIP3   OH249023   4.253   3.710   2.910 -0.0100 -0.5027  0.4351
 9203TIP3    H149024   4.343   3.712   2.944 -0.0747  1.0501  0.6067
 9203TIP3    H249025   4.200   3.679   2.983  0.2718 -0.4230  0.6741
 9204TIP3   OH249026   0.486   2.539   0.961  0.1791 -0.0596  0.2894
 9204TIP3    H149027   0.548   2.478   0.920  1.4397  1.6670 -0.5039
 9204TIP3    H249028   0.455   2.494   1.039  0.2548 -2.1160 -0.8054
 9205TIP3   OH249029   2.236   5.729  14.146  0.1578  0.2696 -0.4277
 9205TIP3    H149030   2.204   5.716  14.235 -1.6813  0.9979 -0.9393
 9205TIP3    H249031   2.213   5.648  14.100  1.6554 -0.3561 -0.1196
 9206TIP3   OH249032   3.419   3.849   6.379 -0.0624 -0.2038 -0.7822
 9206TIP3    H149033   3.498   3.902   6.386  0.1349 -0.6221  0.3855
 9206TIP3    H249034   3.359   3.886   6.443 -0.9509  0.2990 -1.8674
 9207TIP3   OH249035   4.358   3.824   1.197 -0.3160 -0.3928 -0.2600
 9207TIP3    H149036   4.317   3.815   1.111 -0.1668  0.4533 -0.4305
 9207TIP3    H249037   4.407   3.906   1.192 -1.3077  0.3170  1.0279
 9208TIP3   OH249038   4.518   6.314  11.574 -0.0015 -0.4267  0.1604
 9208TIP3    H149039   4.519   6.286  11.665  1.8517 -1.7141 -0.1784
 9208TIP3    H249040   4.443   6.268  11.536 -1.0728  0.4923  1.1072
 9209TIP3   OH249041   6.624   1.256  11.297  0.6856  0.0422  0.2916
 9209TIP3    H149042   6.530   1.250  11.312  0.9495  0.9458  2.8830
 9209TIP3    H249043   6.650   1.336  11.343  2.5497  0.4836 -1.4137
 9210TIP3   OH249044   3.765   3.186  12.318 -0.2904  0.0845  0.1352
 9210TIP3    H149045   3.710   3.224  12.249  0.1036 -2.5716 -1.7866
 9210TIP3    H249046   3.853   3.184  12.281  0.1960 -0.1936  1.2538
 9211TIP3   OH249047   4.370   4.718  11.298 -0.4423  0.1230  0.3883
 9211TIP3    H149048   4.297   4.694  11.355  2.2195 -0.9396  3.7086
 9211TIP3    H249049   4.390   4.639  11.249 -1.2121  0.2803 -0.1873
 9212TIP3   OH249050   0.845   4.904   3.375 -0.1871  0.5106 -0.3257
 9212TIP3    H149051   0.812   4.858   3.298 -1.0049  1.4372 -0.5528
 9212TIP3    H249052   0.786   4.878   3.445 -1.5437  2.2122 -0.7440
 9213TIP3   OH249053   3.588   0.041  14.501 -0.2695 -0.1481 -0.1325
 9213TIP3    H149054   3.597   0.049  14.406 -2.4619 -0.4160 -0.4169
 9213TIP3    H249055   3.503  -0.002  14.514  0.2674 -0.7199  1.9437
 9214TIP3   OH249056   0.485   1.535  16.510 -0.1015  0.2061  0.4773
 9214TIP3    H149057   0.396   1.560  16.535 -0.1019 -0.9626  1.7235
 9214TIP3    H249058   0.476   1.504  16.420 -0.6778  1.4736  0.0699
 9215TIP3   OH249059   5.723   0.851  11.469  0.6889  0.2109 -0.2138
 9215TIP3    H149060   5.707   0.761  11.498  3.2948  0.0381  0.9882
 9215TIP3    H249061   5.811   0.871  11.501  1.1604  2.3614 -2.5273
 9216TIP3   OH249062   4.082   5.675  11.082  0.3177  0.1580  0.1440
 9216TIP3    H149063   4.016   5.713  11.024 -0.1545 -1.5047 -0.4739
 9216TIP3    H249064   4.164   5.683  11.033  0.8242  3.0440  1.2854
 9217TIP3   OH249065   5.348   0.611   5.175  0.2344  0.1050 -0.2340
 9217TIP3    H149066   5.376   0.569   5.094  0.0673  1.1290 -0.8455
 9217TIP3    H249067   5.420   0.671   5.197  0.5211 -0.5425  0.6793
 9218TIP3   OH249068   6.345   1.528   2.530 -0.7891 -0.3088 -0.3032
 9218TIP3    H149069   6.301   1.445   2.513  1.1281 -1.7029  1.0021
 9218TIP3    H249070   6.362   1.527   2.624  0.4417  0.9342 -0.4767
 9219TIP3   OH249071   6.153   1.986  15.010  0.6163 -0.9405  0.5607
 9219TIP3    H149072   6.200   1.908  15.040  0.7210 -0.6390  1.1996
 9219TIP3    H249073   6.062   1.958  15.002  1.1171 -2.0426 -2.4605
 9220TIP3   OH249074   4.966   6.633   0.726 -0.1259 -0.5770  0.1454
 9220TIP3    H149075   5.024   6.683   0.784  0.3108 -1.3396  0.3826
 9220TIP3    H249076   4.929   6.698   0.667  1.0351 -0.0752 -0.0648
 9221TIP3   OH249077   4.758   1.529   4.648  0.1497  0.0708 -0.2776
 9221TIP3    H149078   4.778   1.523   4.741  0.8047  0.9619 -0.3506
 9221TIP3    H249079   4.679   1.582   4.644  0.2889  0.2820 -0.2424
 9222TIP3   OH249080   4.829   3.267   3.568 -0.1349  0.0264  0.5842
 9222TIP3    H149081   4.760   3.214   3.526  0.2102  0.0249  0.0016
 9222TIP3    H249082   4.832   3.347   3.515  1.8442 -0.9059 -0.8400
 9223TIP3   OH249083   3.226   0.640   0.593 -0.0196 -0.6118 -0.4613
 9223TIP3    H149084   3.206   0.583   0.519  0.5298 -1.4703  0.0357
 9223TIP3    H249085   3.148   0.694   0.603 -0.1550 -0.5774 -1.5708
 9224TIP3   OH249086   4.995   4.215   4.008 -0.0245  0.8829 -0.0779
 9224TIP3    H149087   5.066   4.195   3.947 -0.2569  1.2035 -0.4645
 9224TIP3    H249088   4.925   4.155   3.983 -0.2757  1.3116 -0.4193
 9225TIP3   OH249089   5.874   5.599   5.183  0.0496 -0.6430 -0.0962
 9225TIP3    H149090   5.829   5.569   5.262 -0.2253 -0.4029 -0.1639
 9225TIP3    H249091   5.804   5.621   5.122  0.2307  1.1918  0.3261
 9226TIP3   OH249092   5.773   3.634   4.237  0.0066  0.1206  0.0420
 9226TIP3    H149093   5.785   3.707   4.176 -0.3910  0.2023  0.0591
 9226TIP3    H249094   5.733   3.673   4.314  0.4391  0.0011  0.3292
 9227TIP3   OH249095   6.785   1.146   2.277  0.2354  0.5524  0.2682
 9227TIP3    H149096   6.771   1.150   2.372 -1.5506  0.6820  0.0386
 9227TIP3    H249097   6.825   1.061   2.263 -2.2751 -0.8539  0.9002
 9228TIP3   OH249098   3.325   6.863  13.233 -1.0030 -0.1868 -0.4256
 9228TIP3    H149099   3.415   6.829  13.230 -0.4933  0.9882  0.6370
 9228TIP3    H249100   3.270   6.785  13.224  0.1059 -1.3072  1.6525
 9229TIP3   OH249101   2.743   2.838  15.865  0.6160 -0.2412  0.4557
 9229TIP3    H149102   2.732   2.782  15.788  1.8666 -0.2258  0.2364
 9229TIP3    H249103   2.674   2.811  15.925 -0.3606 -0.2749 -0.6621
 9230TIP3   OH249104   6.381   3.927  16.411  0.1102 -0.4251  0.2892
 9230TIP3    H149105   6.352   3.847  16.454  0.1466  0.3158  1.7565
 9230TIP3    H249106   6.366   3.996  16.476  1.7914  0.5039 -0.2535
 9231TIP3   OH249107   1.836   4.953  15.285  0.2887  0.4053 -0.6266
 9231TIP3    H149108   1.903   4.887  15.302 -0.6284 -0.3572  0.1453
 9231TIP3    H249109   1.879   5.017  15.228  1.6399 -0.0982 -0.2088
 9232TIP3   OH249110   5.224   3.240   5.979  0.6417 -0.3479  0.3020
 9232TIP3    H149111   5.313   3.208   5.988  0.5938 -0.6287 -0.1633
 9232TIP3    H249112   5.170   3.170   6.016  0.6085 -0.2227  0.4902
 9233TIP3   OH249113   1.620   5.854   2.970 -0.0834 -0.0059  0.3224
 9233TIP3    H149114   1.559   5.780   2.977  0.6397 -0.5940  0.5926
 9233TIP3    H249115   1.575   5.918   2.916 -0.9468 -0.4272  0.5333
 9234TIP3   OH249116   3.847   6.773   2.266 -0.0538  0.5799  0.5255
 9234TIP3    H149117   3.860   6.711   2.194  0.5072  0.0481  1.0744
 9234TIP3    H249118   3.871   6.725   2.344  0.0506  1.3839  1.0016
 9235TIP3   OH249119   6.619   1.376  15.572 -0.6373 -0.1720  0.1369
 9235TIP3    H149120   6.593   1.338  15.656  0.3016 -1.0521  0.0425
 9235TIP3    H249121   6.558   1.337  15.509 -1.0676  0.1594  0.3446
 9236TIP3   OH249122   0.377   1.836  11.124 -0.4770  0.3512 -0.3826
 9236TIP3    H149123   0.397   1.776  11.052 -2.9037 -0.6197 -0.3344
 9236TIP3    H249124   0.440   1.908  11.113  0.5245 -0.7263 -2.2602
 9237TIP3   OH249125   3.590   3.483  13.102  0.3364 -0.1582 -0.5581
 9237TIP3    H149126   3.507   3.483  13.148  0.6272 -2.9741  0.1363
 9237TIP3    H249127   3.569   3.454  13.013  0.2807  1.7136 -1.2041
 9238TIP3   OH249128   6.815   6.530   2.864 -0.1200 -0.1007  0.2485
 9238TIP3    H149129   6.894   6.478   2.880 -0.1966 -0.2873  0.0282
 9238TIP3    H249130   6.794   6.568   2.949 -1.5797 -2.5283  1.0802
 9239TIP3   OH249131   0.595   3.455   0.434  0.4122 -0.4485  0.1452
 9239TIP3    H149132   0.653   3.383   0.458  0.6790 -0.4495 -0.4766
 9239TIP3    H249133   0.651   3.518   0.389  0.1783  0.1537  0.6882
 9240TIP3   OH249134   5.548   3.154  15.020 -0.5221  0.1939 -0.5940
 9240TIP3    H149135   5.567   3.161  14.926 -0.5783  3.0458 -0.4815
 9240TIP3    H249136   5.595   3.227  15.059 -2.1128  0.2687  1.3304
 9241TIP3   OH249137   6.453   3.186   2.338 -0.2900  0.6214 -0.1667
 9241TIP3    H149138   6.460   3.098   2.301 -0.5867  0.6181 -0.2175
 9241TIP3    H249139   6.384   3.178   2.404  0.2152  0.6318  0.3759
 9242TIP3   OH249140   4.381   3.771   0.543 -0.5014 -0.2351  0.1691
 9242TIP3    H149141   4.447   3.792   0.477 -2.4522  0.6505 -1.5997
 9242TIP3    H249142   4.313   3.838   0.532 -0.8291  0.1144  3.2789
 9243TIP3   OH249143   1.063   6.582  11.873  0.1400  0.0953  0.0740
 9243TIP3    H149144   1.099   6.668  11.893 -0.0163 -0.0027  0.8118
 9243TIP3    H249145   0.969   6.592  11.883  0.2093 -0.4756  1.4564
 9244TIP3   OH249146   2.136   1.362  12.028  0.1675  0.2901 -0.3117
 9244TIP3    H149147   2.162   1.416  11.953 -0.0562  1.0721  0.1595
 9244TIP3    H249148   2.042   1.346  12.014 -0.3787  2.1669  0.8107
 9245TIP3   OH249149   3.900   0.641   5.112 -0.1950  0.0731 -0.1392
 9245TIP3    H149150   3.817   0.685   5.131  0.4390  0.9307  0.7669
 9245TIP3    H249151   3.875   0.559   5.070 -1.4471  1.0371 -1.3727
 9246TIP3   OH249152   0.345   6.251  15.142  0.4598 -0.2461  0.0949
 9246TIP3    H149153   0.356   6.346  15.137  1.4003 -0.4000 -1.3050
 9246TIP3    H249154   0.275   6.238  15.206 -0.9992  1.4826 -1.0492
 9247TIP3   OH249155   6.644   0.458  10.429  0.2707 -0.2165 -0.0600
 9247TIP3    H149156   6.558   0.424  10.404  0.7760 -0.3376 -1.7790
 9247TIP3    H249157   6.679   0.496  10.348  0.3726  3.0811  1.4113
 9248TIP3   OH249158   2.707   4.595  14.931 -0.4004 -0.8164 -0.5539
 9248TIP3    H149159   2.707   4.563  14.841  2.4648 -1.1769 -0.5318
 9248TIP3    H249160   2.757   4.529  14.980 -1.3865 -0.3338  1.1865
 9249TIP3   OH249161   0.672   0.919  14.197  0.4283  0.5734 -0.0378
 9249TIP3    H149162   0.609   0.913  14.269  1.9147 -0.3338  1.2401
 9249TIP3    H249163   0.756   0.897  14.237  1.2057 -0.5839 -2.1836
 9250TIP3   OH249164   0.415   1.215   3.589  0.5407 -0.3097  0.2238
 9250TIP3    H149165   0.414   1.218   3.685 -0.2450  0.9617  0.2017
 9250TIP3    H249166   0.428   1.123   3.567  2.3308 -0.4217  1.5517
 9251TIP3   OH249167   3.026   5.801  14.985 -0.6588 -0.4289  0.0836
 9251TIP3    H149168   2.980   5.882  15.009 -1.3429 -1.0852  1.0545
 9251TIP3    H249169   2.958   5.735  14.983 -0.2836 -0.8124 -1.7469
 9252TIP3   OH249170   0.615   5.288  15.602  0.0160  0.4926  0.1418
 9252TIP3    H149171   0.691   5.282  15.660  0.7452 -0.1762 -0.8444
 9252TIP3    H249172   0.653   5.287  15.514 -1.0823  1.1470 -0.3629
 9253TIP3   OH249173   6.433   4.271   4.174 -0.5830 -0.5252  0.4904
 9253TIP3    H149174   6.344   4.256   4.141 -0.4338 -1.1445  0.3525
 9253TIP3    H249175   6.487   4.270   4.095 -0.6046  1.1581  0.4306
 9254TIP3   OH249176   4.958   2.377   2.851 -0.1978 -0.2695  0.4178
 9254TIP3    H149177   5.041   2.331   2.843 -0.7385 -1.0171 -1.3835
 9254TIP3    H249178   4.959   2.442   2.781  0.1076  1.8424  2.2702
 9255TIP3   OH249179   6.459   5.641  15.406 -0.5307  0.1689 -0.4361
 9255TIP3    H149180   6.490   5.659  15.495 -1.2971  1.4503 -0.4138
 9255TIP3    H249181   6.455   5.726  15.363 -0.1225 -0.4357 -1.7361
 9256TIP3   OH249182   6.729   6.120  11.093  0.3594 -0.0538  0.1072
 9256TIP3    H149183   6.668   6.174  11.144  0.8335  0.7342 -0.1408
 9256TIP3    H249184   6.786   6.079  11.158  0.8647  0.8246  0.2373
 9257TIP3   OH249185   1.864   5.882  14.470  0.3344  0.0905 -0.4202
 9257TIP3    H149186   1.891   5.800  14.509 -0.4088  0.9808  2.1511
 9257TIP3    H249187   1.887   5.949  14.535 -1.1157  1.6672 -1.4310
 9258TIP3   OH249188   3.561   1.579  12.724 -0.0585 -0.6592 -0.1312
 9258TIP3    H149189   3.577   1.656  12.778  1.7114  0.1003 -1.6462
 9258TIP3    H249190   3.646   1.537  12.716 -0.5793 -1.5850 -1.0873
 9259TIP3   OH249191   2.742   3.262  10.255  0.6033 -0.2154  0.4083
 9259TIP3    H149192   2.769   3.327  10.320 -0.2667  0.1043  0.4670
 9259TIP3    H249193   2.814   3.199  10.252  0.7244 -0.1510  1.5662
 9260TIP3   OH249194   0.013   5.379   4.283  0.2219  0.0759  0.2144
 9260TIP3    H149195   0.026   5.348   4.373 -1.9784 -1.4700  0.0484
 9260TIP3    H249196  -0.039   5.459   4.293 -1.4138 -0.9516  0.3110
 9261TIP3   OH249197   0.316   3.729  16.078  0.1254  0.5574  0.2713
 9261TIP3    H149198   0.223   3.729  16.104 -1.1705 -1.7985 -3.5785
 9261TIP3    H249199   0.324   3.805  16.020 -0.1808 -0.6560 -1.4316
 9262TIP3   OH249200   3.899   0.923   1.727  0.5867  0.6728  0.0508
 9262TIP3    H149201   3.938   0.941   1.813  0.6700  0.0054  0.1533
 9262TIP3    H249202   3.879   1.010   1.692  1.3572  0.9959  0.3734
 9263TIP3   OH249203   0.427   0.246  16.392 -0.3375  0.6340 -0.0346
 9263TIP3    H149204   0.518   0.270  16.377 -0.4370 -0.4733 -3.0050
 9263TIP3    H249205   0.431   0.167  16.446  0.3817  1.0758  0.5801
 9264TIP3   OH249206   0.293   5.102  12.759  0.6936 -0.0932 -0.1135
 9264TIP3    H149207   0.242   5.126  12.836 -0.9894 -0.0493 -1.1745
 9264TIP3    H249208   0.350   5.032  12.788 -0.2274 -0.3744  1.0741
 9265TIP3   OH249209   2.646   6.856  10.694  0.3401 -0.1529 -0.0553
 9265TIP3    H149210   2.601   6.894  10.619  0.9798 -0.5436 -0.6548
 9265TIP3    H249211   2.722   6.812  10.656  2.5463  2.4036  1.0837
 9266TIP3   OH249212   2.765   6.343   4.968  0.4126  0.3682  0.5362
 9266TIP3    H149213   2.765   6.280   4.895  1.7641  0.6283  0.2791
 9266TIP3    H249214   2.780   6.289   5.046 -1.4972  0.0296  0.7257
 9267TIP3   OH249215   0.741   6.144   2.330  0.2623  0.3797  0.1083
 9267TIP3    H149216   0.774   6.088   2.400  2.1217 -0.8538 -1.6332
 9267TIP3    H249217   0.693   6.084   2.272  0.6418  0.9399 -0.8000
 9268TIP3   OH249218   0.917   3.545  12.742  0.1530  0.2125  0.1378
 9268TIP3    H149219   0.996   3.555  12.796  0.4847 -0.7929 -0.1382
 9268TIP3    H249220   0.904   3.631  12.703  0.2798  0.7925  1.3113
 9269TIP3   OH249221   3.544   5.581  14.677 -0.2091  0.6135 -0.5067
 9269TIP3    H149222   3.481   5.528  14.629 -0.1005 -0.6208  0.6383
 9269TIP3    H249223   3.530   5.557  14.769  1.6119  0.6486 -0.1823
 9270TIP3   OH249224   6.685   6.589   4.836  0.3718 -0.4318  0.7094
 9270TIP3    H149225   6.628   6.661   4.863  0.0234 -0.5881  0.3908
 9270TIP3    H249226   6.649   6.512   4.880 -0.2698 -0.7090 -0.2636
 9271TIP3   OH249227   0.592   1.434   2.229 -0.4035  0.5112 -0.0936
 9271TIP3    H149228   0.592   1.528   2.247  0.4785  0.4152  0.4740
 9271TIP3    H249229   0.682   1.416   2.201 -1.1891  0.2999 -2.7666
 9272TIP3   OH249230   6.131   5.558  11.231 -0.6250  0.1005 -0.8835
 9272TIP3    H149231   6.178   5.615  11.170 -1.2461  1.3291 -0.2520
 9272TIP3    H249232   6.189   5.550  11.306 -1.3664  1.6082 -0.1083
 9273TIP3   OH249233   4.886   5.823  10.383  0.0266 -0.4016 -0.3243
 9273TIP3    H149234   4.943   5.900  10.380 -1.1707  0.4950 -1.1499
 9273TIP3    H249235   4.927   5.765  10.448  2.2495 -0.1301 -1.3707
 9274TIP3   OH249236   2.476   1.803  13.658  0.4555 -0.0965 -0.2329
 9274TIP3    H149237   2.433   1.889  13.654  1.1474  0.2393 -0.6343
 9274TIP3    H249238   2.435   1.759  13.732  1.5684  1.3864  1.3528
 9275TIP3   OH249239   4.377   3.245  12.008 -0.1526 -0.6381  0.4175
 9275TIP3    H149240   4.430   3.314  12.048  0.7154 -0.8060 -0.3818
 9275TIP3    H249241   4.440   3.193  11.958 -1.3683  0.7792 -2.9032
 9276TIP3   OH249242   3.595   1.761  12.956  0.2121  0.4063 -0.1278
 9276TIP3    H149243   3.529   1.823  12.987 -1.3973 -0.5760 -1.4483
 9276TIP3    H249244   3.640   1.732  13.036  0.0766  2.2182  0.6379
 9277TIP3   OH249245   5.803   3.892  12.144  0.1808 -0.2552  0.3311
 9277TIP3    H149246   5.842   3.812  12.111 -1.5120 -1.3529  0.8785
 9277TIP3    H249247   5.750   3.925  12.071 -0.9262 -0.8935  0.8202
 9278TIP3   OH249248   4.493   6.338  13.570  0.1861 -0.5285  0.0371
 9278TIP3    H149249   4.533   6.298  13.492  1.6924 -1.2665  1.1490
 9278TIP3    H249250   4.532   6.426  13.574 -0.3283 -0.2762 -0.3422
 9279TIP3   OH249251   6.438   3.936  10.464 -0.3076 -0.2479 -0.0093
 9279TIP3    H149252   6.429   3.875  10.390  0.8013 -0.0519 -0.3257
 9279TIP3    H249253   6.526   3.920  10.497 -0.2591  0.7094  0.3340
 9280TIP3   OH249254   3.327   3.833  12.357  0.6107 -0.1535  0.7148
 9280TIP3    H149255   3.285   3.860  12.275  0.2233  0.7986  1.2067
 9280TIP3    H249256   3.417   3.864  12.350  0.0479  1.7824  1.4701
 9281TIP3   OH249257   2.225   4.166   1.481  0.3366  0.3975 -0.1665
 9281TIP3    H149258   2.228   4.221   1.403 -0.6878 -1.1887 -1.3938
 9281TIP3    H249259   2.228   4.076   1.447  1.0792 -0.3285  1.7021
 9282TIP3   OH249260   3.486   4.482   4.912  0.5081 -0.0278 -0.4364
 9282TIP3    H149261   3.493   4.393   4.946 -2.1665 -0.4628 -0.7558
 9282TIP3    H249262   3.523   4.477   4.824  0.6727 -0.7545 -0.3328
 9283TIP3   OH249263   0.509   0.316  13.357  0.1840  0.2014  0.0461
 9283TIP3    H149264   0.452   0.393  13.361  0.3066  0.3534 -0.8219
 9283TIP3    H249265   0.596   0.349  13.381  0.1141  0.2003  0.2992
 9284TIP3   OH249266   6.548   5.211   4.657  0.3712 -0.6159  0.5376
 9284TIP3    H149267   6.509   5.246   4.737 -0.0599  0.4118 -0.1104
 9284TIP3    H249268   6.640   5.235   4.661  0.0634  0.6944  0.0605
 9285TIP3   OH249269   5.435   1.690   0.372  0.4735  0.0128 -0.0671
 9285TIP3    H149270   5.392   1.648   0.446 -0.7295 -0.2247 -0.8720
 9285TIP3    H249271   5.499   1.749   0.411 -0.3882  0.1546  1.1602
 9286TIP3   OH249272   5.879   5.178   0.466  0.3362 -0.4513  0.1020
 9286TIP3    H149273   5.964   5.166   0.508  1.3542  1.8826 -1.0990
 9286TIP3    H249274   5.882   5.119   0.390  0.3715 -1.2297  0.6875
 9287TIP3   OH249275   0.833   1.141   5.247  0.3815 -0.7075  0.6713
 9287TIP3    H149276   0.797   1.061   5.285 -2.7464  0.8923  1.3861
 9287TIP3    H249277   0.758   1.185   5.206  2.2608  1.1556 -1.0315
 9288TIP3   OH249278   0.358   4.078  11.678  0.6325 -0.0094  0.0155
 9288TIP3    H149279   0.354   4.146  11.611  0.1886 -0.6733 -0.6440
 9288TIP3    H249280   0.451   4.072  11.700  0.6699  0.8468  0.1286
 9289TIP3   OH249281   5.606   2.060  15.530  0.0887  0.7036 -0.4080
 9289TIP3    H149282   5.673   1.997  15.506 -0.3545  1.0647 -2.9039
 9289TIP3    H249283   5.578   2.034  15.618  2.8375  0.0370  0.3430
 9290TIP3   OH249284   6.293   3.186   6.190  0.1743  0.3105 -0.3099
 9290TIP3    H149285   6.319   3.265   6.143 -1.2639  0.4556 -0.9277
 9290TIP3    H249286   6.375   3.149   6.223  1.3403 -0.0107 -3.2735
 9291TIP3   OH249287   0.983   6.309   4.766  0.1043 -0.9452  0.1500
 9291TIP3    H149288   1.057   6.282   4.821  0.9290 -0.8009 -0.8571
 9291TIP3    H249289   1.009   6.283   4.677 -1.5968 -2.0182 -0.0743
 9292TIP3   OH249290   2.670   1.379   4.773 -0.1272  0.6115  0.0089
 9292TIP3    H149291   2.673   1.473   4.791 -2.5184  0.5685  1.0735
 9292TIP3    H249292   2.695   1.338   4.856 -0.9254  0.3513  0.1335
 9293TIP3   OH249293   0.250   1.520  12.915  0.1578 -0.0312  0.7834
 9293TIP3    H149294   0.284   1.607  12.891 -0.3710  0.3792  1.4750
 9293TIP3    H249295   0.230   1.527  13.008 -3.3799  0.3262  0.1351
 9294TIP3   OH249296   6.487   2.215   5.581  0.5413 -0.2572  0.2508
 9294TIP3    H149297   6.547   2.279   5.619  1.5629 -0.4465 -0.9832
 9294TIP3    H249298   6.401   2.242   5.611  1.2251 -0.0756  2.2230
 9295TIP3   OH249299   1.579   4.538  15.772  0.5405  0.5601  0.5151
 9295TIP3    H149300   1.638   4.570  15.705  1.5384  0.6464  1.4053
 9295TIP3    H249301   1.604   4.585  15.851  0.6447 -0.8675  1.3717
 9296TIP3   OH249302   0.127   5.890   0.545 -0.3508  0.2356 -0.6954
 9296TIP3    H149303   0.164   5.935   0.621 -1.0073 -0.3179 -0.0266
 9296TIP3    H249304   0.194   5.828   0.518 -0.2004  0.2810 -0.4298
 9297TIP3   OH249305   5.376   2.462   4.050  0.1968  0.3875  0.2350
 9297TIP3    H149306   5.321   2.415   4.113 -0.9709  4.4550  2.6267
 9297TIP3    H249307   5.322   2.469   3.971 -0.9101  0.4356  0.9720
 9298TIP3   OH249308   5.115   3.298   3.566  0.2766  0.1299 -0.1918
 9298TIP3    H149309   5.028   3.258   3.560  0.6549 -0.5957 -1.0008
 9298TIP3    H249310   5.174   3.225   3.583  0.4811  0.8901  3.0478
 9299TIP3   OH249311   0.251   0.127   4.974 -0.1052 -0.5179 -0.1398
 9299TIP3    H149312   0.157   0.112   4.977 -0.3852  0.7913 -1.5628
 9299TIP3    H249313   0.272   0.134   4.881  1.6871 -2.3657  0.0577
 9300TIP3   OH249314   6.314   1.861   5.947  0.3666 -0.0424 -0.2595
 9300TIP3    H149315   6.248   1.891   6.009  1.7669  1.0045  0.7961
 9300TIP3    H249316   6.308   1.924   5.875 -2.0191 -1.8931 -1.8395
 9301TIP3   OH249317   5.497   1.418   3.658 -0.5572  0.2045  0.4756
 9301TIP3    H149318   5.585   1.399   3.692 -0.7204 -0.2672  0.6455
 9301TIP3    H249319   5.507   1.414   3.563 -0.2852  0.6531  0.4860
 9302TIP3   OH249320   4.917   2.913   3.536 -0.0731 -0.1485  0.4806
 9302TIP3    H149321   5.002   2.919   3.580  0.1769  0.9902 -0.1126
 9302TIP3    H249322   4.855   2.901   3.607  0.3936  1.0271  1.1270
 9303TIP3   OH249323   4.290   6.586  11.479 -0.0508  0.2187 -0.0683
 9303TIP3    H149324   4.246   6.597  11.395  0.2203  0.2301 -0.2105
 9303TIP3    H249325   4.375   6.628  11.468  0.3735 -0.6286 -0.1109
 9304TIP3   OH249326   1.112   5.400  15.717 -0.1419 -0.8092  0.3289
 9304TIP3    H149327   1.082   5.484  15.752 -1.4162 -1.7198  1.5455
 9304TIP3    H249328   1.131   5.418  15.625  0.1236  0.9216  0.6913
 9305TIP3   OH249329   1.219   3.075   1.384  0.4482 -0.4752 -0.2731
 9305TIP3    H149330   1.299   3.098   1.336  0.4940 -1.0052 -0.4593
 9305TIP3    H249331   1.160   3.149   1.371  0.8453 -0.1605 -0.2827
 9306TIP3   OH249332   5.271   5.217  13.235  0.1246 -0.4849 -0.4402
 9306TIP3    H149333   5.196   5.250  13.284 -0.6082  1.2522 -2.5979
 9306TIP3    H249334   5.340   5.209  13.300 -0.9623  1.1021  0.9894
 9307TIP3   OH249335   3.241   3.448   3.545 -0.4453  0.0670  0.5095
 9307TIP3    H149336   3.256   3.528   3.596 -0.5552  1.2769 -1.2566
 9307TIP3    H249337   3.321   3.437   3.494 -1.8467  1.3732 -2.1914
 9308TIP3   OH249338   2.801   4.753  13.986  0.0215 -0.2144  0.1577
 9308TIP3    H149339   2.713   4.764  13.951  0.9857 -1.2336 -2.8931
 9308TIP3    H249340   2.798   4.794  14.073 -3.1497  0.6559 -0.2579
 9309TIP3   OH249341   1.087   2.464   3.494 -0.3811  0.5202 -0.1733
 9309TIP3    H149342   1.118   2.374   3.486  0.5610  0.8271 -0.0873
 9309TIP3    H249343   1.165   2.517   3.479 -0.6793  1.3061  0.9595
 9310TIP3   OH249344   2.542   2.395   2.115  0.5093  0.2063  0.7171
 9310TIP3    H149345   2.557   2.464   2.180  0.1783  1.7640 -0.7737
 9310TIP3    H249346   2.453   2.365   2.133 -0.6552  2.5651 -0.6373
 9311TIP3   OH249347   3.471   0.723  16.222 -0.6715 -0.2540  0.2756
 9311TIP3    H149348   3.501   0.659  16.158 -0.7348  0.0360 -0.0469
 9311TIP3    H249349   3.533   0.717  16.295 -0.4202 -0.3627  0.0481
 9312TIP3   OH249350   6.098   3.954   3.507  0.0839 -0.7735 -0.1108
 9312TIP3    H149351   6.060   3.929   3.423 -3.7118  0.3161  1.0671
 9312TIP3    H249352   6.125   4.045   3.495 -2.6911  0.2194  0.3267
 9313TIP3   OH249353   5.028   6.742  11.195 -0.0610 -0.6328  0.0590
 9313TIP3    H149354   5.104   6.725  11.251 -0.7553  0.6728  1.5020
 9313TIP3    H249355   4.955   6.701  11.242 -0.3733 -1.2075 -0.9115
 9314TIP3   OH249356   1.230   4.648   2.766  0.8831  0.7025  0.3704
 9314TIP3    H149357   1.263   4.618   2.851  1.9311  1.0417  0.1006
 9314TIP3    H249358   1.139   4.620   2.765  1.8478 -2.8959 -0.0280
 9315TIP3   OH249359   6.309   1.343  16.668  0.4073 -0.5943  0.4948
 9315TIP3    H149360   6.356   1.271  16.710 -0.8203 -0.2693  2.5700
 9315TIP3    H249361   6.232   1.356  16.722 -0.6476  0.7332 -1.2083
 9316TIP3   OH249362   5.595   3.030  13.723  0.2816 -0.4624  0.3374
 9316TIP3    H149363   5.660   2.981  13.773  0.9068 -1.2788 -1.2054
 9316TIP3    H249364   5.584   2.979  13.642  0.0702  1.3210 -0.8072
 9317TIP3   OH249365   2.509   5.977  13.104 -0.0372  0.2082  0.0881
 9317TIP3    H149366   2.595   5.952  13.140  0.6272 -0.0487 -1.5922
 9317TIP3    H249367   2.449   5.912  13.140  0.9598 -1.3144 -0.8735
 9318TIP3   OH249368   2.642   0.788  10.103  0.0655  0.2716 -0.3781
 9318TIP3    H149369   2.706   0.769  10.035  0.8915 -0.5993  0.6284
 9318TIP3    H249370   2.635   0.708  10.154  0.5929  1.3398  1.4871
 9319TIP3   OH249371   0.704   0.523   5.879  0.4917 -0.1624  0.0580
 9319TIP3    H149372   0.667   0.470   5.808 -0.7829  1.3180 -0.4425
 9319TIP3    H249373   0.672   0.481   5.959  0.7503 -1.0161 -0.2793
 9320TIP3   OH249374   0.506   6.890  13.783  0.7643  0.4709 -0.1790
 9320TIP3    H149375   0.428   6.941  13.761  0.5522 -0.0683 -0.6792
 9320TIP3    H249376   0.508   6.892  13.879 -0.2703 -0.1145 -0.1296
 9321TIP3   OH249377   4.554   2.252  12.442  0.1182  0.3254  0.0801
 9321TIP3    H149378   4.609   2.311  12.390 -0.4476 -0.2012 -1.1657
 9321TIP3    H249379   4.607   2.173  12.453 -0.5107 -0.3579 -1.5106
 9322TIP3   OH249380   1.990   3.224   5.236 -0.2116 -0.6123  0.4245
 9322TIP3    H149381   2.043   3.194   5.163  0.5257 -2.3178  1.5915
 9322TIP3    H249382   1.934   3.292   5.199  2.2584  0.7762 -1.0236
 9323TIP3   OH249383   3.465   4.091  10.366 -0.4760  0.4803 -0.2129
 9323TIP3    H149384   3.515   4.160  10.324  1.7019 -0.5182  0.5598
 9323TIP3    H249385   3.481   4.013  10.312  1.3721 -0.5336  1.6266
 9324TIP3   OH249386   0.457   1.372   1.946  0.3951  0.1396  0.0775
 9324TIP3    H149387   0.504   1.450   1.978  0.9263 -1.0626  2.5311
 9324TIP3    H249388   0.450   1.316   2.024 -2.3269 -1.1279 -0.9872
 9325TIP3   OH249389   6.091   6.602   3.042 -0.4225 -0.3286  0.0260
 9325TIP3    H149390   6.051   6.663   3.104 -0.2483 -0.2387  0.0511
 9325TIP3    H249391   6.181   6.591   3.073  0.3864  1.4758 -1.4406
 9326TIP3   OH249392   2.848   6.178  14.965  0.5597 -0.3279  0.7063
 9326TIP3    H149393   2.942   6.166  14.978  1.3243  1.1981 -2.4268
 9326TIP3    H249394   2.831   6.268  14.993  0.5433  0.1431 -0.7236
 9327TIP3   OH249395   2.325   2.628  11.554  0.5130 -0.1250 -0.2401
 9327TIP3    H149396   2.293   2.545  11.589 -0.2583  0.2923  0.0647
 9327TIP3    H249397   2.256   2.691  11.574  1.9540  1.0478  1.4419
 9328TIP3   OH249398   0.335   4.473  13.028  0.4418 -0.3780 -0.3137
 9328TIP3    H149399   0.300   4.384  13.024  1.2558 -0.6570 -2.5843
 9328TIP3    H249400   0.428   4.462  13.045  0.4344  0.0799  0.0411
 9329TIP3   OH249401   2.498   2.874  12.281  0.3481 -0.1821  0.2727
 9329TIP3    H149402   2.536   2.853  12.366  0.2560  1.3791  0.7307
 9329TIP3    H249403   2.567   2.921  12.234 -0.4026  1.1762  0.4671
 9330TIP3   OH249404   2.886   6.817   2.702  0.5351 -0.3008 -0.9787
 9330TIP3    H149405   2.867   6.901   2.661  1.0184 -0.9958 -2.7251
 9330TIP3    H249406   2.892   6.756   2.629 -0.7621 -2.0591  0.2918
 9331TIP3   OH249407   2.956   6.297  11.534  0.0831 -0.1949 -0.0443
 9331TIP3    H149408   2.915   6.336  11.611 -1.0841 -2.5124  0.5986
 9331TIP3    H249409   2.883   6.276  11.476  0.8643  0.5263 -1.3214
 9332TIP3   OH249410   5.088   4.324  12.077  0.1326  0.6709  0.0938
 9332TIP3    H149411   5.181   4.346  12.067  0.0065  0.7846 -0.8971
 9332TIP3    H249412   5.045   4.368  12.004 -0.6856  0.4746  0.4465
 9333TIP3   OH249413   2.387   0.281  15.439  0.3189  0.1116  0.2709
 9333TIP3    H149414   2.425   0.196  15.458 -0.2857 -0.6405 -1.6827
 9333TIP3    H249415   2.450   0.325  15.382 -0.0757  0.3561  0.0166
 9334TIP3   OH249416   5.708   6.089   3.306 -0.1844 -0.1758  0.0851
 9334TIP3    H149417   5.673   6.178   3.308  0.0787 -0.0368  3.3646
 9334TIP3    H249418   5.651   6.042   3.246 -1.2917  1.8210 -0.5103
 9335TIP3   OH249419   4.417   3.809   3.116 -0.1924  0.1088 -0.0472
 9335TIP3    H149420   4.334   3.856   3.127 -0.2228  0.5177 -1.6480
 9335TIP3    H249421   4.459   3.813   3.201 -0.7131  2.0843  0.1714
 9336TIP3   OH249422   4.491   4.155  10.612  0.0953  0.0746 -0.3506
 9336TIP3    H149423   4.480   4.226  10.675  0.6678 -0.3841  0.2683
 9336TIP3    H249424   4.440   4.082  10.648  0.3809 -0.1741 -0.4491
 9337TIP3   OH249425   2.392   0.924   4.162  0.9050 -0.5273 -0.2197
 9337TIP3    H149426   2.478   0.944   4.199 -0.2708  1.3992  1.7390
 9337TIP3    H249427   2.355   0.858   4.220 -0.2957  1.3071  1.2408
 9338TIP3   OH249428   3.709   4.649  15.175 -0.3248  0.3111  0.0516
 9338TIP3    H149429   3.732   4.574  15.120 -2.4514  0.5767 -1.3257
 9338TIP3    H249430   3.742   4.725  15.128 -0.1808  0.3920  0.2849
 9339TIP3   OH249431   2.541   4.707  10.179 -0.1452 -0.0840 -0.4326
 9339TIP3    H149432   2.474   4.766  10.145 -0.8419 -0.2763  0.5739
 9339TIP3    H249433   2.499   4.662  10.252  0.2576 -2.0602 -1.3355
 9340TIP3   OH249434   0.359   6.254   3.865 -0.3604  0.3315  0.0869
 9340TIP3    H149435   0.416   6.183   3.893  0.7160  0.8976 -0.6292
 9340TIP3    H249436   0.385   6.329   3.919 -0.3733  0.6121 -0.2922
 9341TIP3   OH249437   3.618   1.806   5.289  0.0300 -0.5853 -0.9653
 9341TIP3    H149438   3.702   1.808   5.242  0.2290 -0.3624 -0.6092
 9341TIP3    H249439   3.552   1.807   5.221  0.3170 -2.3422 -1.3252
 9342TIP3   OH249440   4.940   1.139  13.498 -0.3073 -0.0521  0.2590
 9342TIP3    H149441   4.850   1.115  13.477 -0.6232 -0.0211  1.5246
 9342TIP3    H249442   4.994   1.077  13.448 -1.0322 -0.5370  0.0690
 9343TIP3   OH249443   6.865   1.128   4.011  0.5646 -0.9693 -0.4590
 9343TIP3    H149444   6.809   1.174   3.948  2.0738  0.2763 -0.9767
 9343TIP3    H249445   6.818   1.135   4.094 -0.2177 -0.2621 -0.9406
 9344TIP3   OH249446   4.375   1.403   2.915 -0.1889 -0.0619 -0.0520
 9344TIP3    H149447   4.286   1.395   2.951 -0.4171 -1.3442 -0.8238
 9344TIP3    H249448   4.378   1.491   2.877 -1.3073 -0.1899 -0.4651
 9345TIP3   OH249449   3.278   6.207  14.335 -0.1052 -0.1654 -0.1232
 9345TIP3    H149450   3.283   6.120  14.294  0.2164 -0.2763  0.1490
 9345TIP3    H249451   3.239   6.190  14.421  1.1078 -0.2236  0.4399
 9346TIP3   OH249452   0.223   5.920   3.502 -0.1441 -0.4819  0.4381
 9346TIP3    H149453   0.296   5.861   3.524 -0.6161 -1.6770 -1.0114
 9346TIP3    H249454   0.152   5.861   3.476 -1.2216  0.7021  0.6044
 9347TIP3   OH249455   3.377   4.936   4.085 -0.3614 -0.1150  0.3576
 9347TIP3    H149456   3.365   4.922   3.991 -0.0266 -0.3452  0.3467
 9347TIP3    H249457   3.465   4.904   4.103  1.0798  3.2951  0.0871
 9348TIP3   OH249458   4.214   5.122  13.131  0.7025 -0.3480  0.4664
 9348TIP3    H149459   4.279   5.162  13.073  2.3748 -1.0224  1.8072
 9348TIP3    H249460   4.146   5.091  13.072  1.5579  0.4058 -0.9931
 9349TIP3   OH249461   5.558   3.902  10.853  0.0051 -0.0530 -0.3423
 9349TIP3    H149462   5.503   3.862  10.920 -2.7942  0.9207 -1.9079
 9349TIP3    H249463   5.622   3.954  10.903 -1.6660  0.2886  1.6112
 9350TIP3   OH249464   1.527   1.012   3.124 -0.5617  0.3284 -0.5391
 9350TIP3    H149465   1.453   1.066   3.152  0.9463  1.9926  0.4962
 9350TIP3    H249466   1.579   0.999   3.204  1.1988  0.7711 -1.5399
 9351TIP3   OH249467   4.206   3.292  12.607 -1.0277  0.4283  0.1999
 9351TIP3    H149468   4.163   3.352  12.545 -1.1430 -0.1218 -0.2601
 9351TIP3    H249469   4.256   3.349  12.665  0.6210  0.8658 -1.5684
 9352TIP3   OH249470   6.469   5.274   4.014 -0.5472  0.4276 -0.1918
 9352TIP3    H149471   6.382   5.290   3.976  0.2427  0.9429 -1.8823
 9352TIP3    H249472   6.529   5.282   3.940  0.9571  0.1153  0.9528
 9353TIP3   OH249473   0.341   1.802  14.483  0.2176 -0.3970 -0.1684
 9353TIP3    H149474   0.382   1.852  14.553 -1.0419  0.8432 -0.2834
 9353TIP3    H249475   0.303   1.726  14.527  0.5546 -0.3053  0.2905
 9354TIP3   OH249476   5.163   6.432  15.432  0.5016 -0.0274 -0.5095
 9354TIP3    H149477   5.129   6.452  15.519 -0.7971  1.5228 -1.3283
 9354TIP3    H249478   5.252   6.469  15.433  1.6404 -2.4923  1.0169
 9355TIP3   OH249479   4.252   3.880  15.918 -0.4913  0.4110 -0.3342
 9355TIP3    H149480   4.192   3.894  15.844 -2.1189 -1.5179  0.5313
 9355TIP3    H249481   4.333   3.850  15.878 -1.2461 -0.3230 -1.3686
 9356TIP3   OH249482   5.067   4.029  14.245 -0.0893  0.2714  0.2351
 9356TIP3    H149483   5.128   4.094  14.210  0.3839  0.0972  0.7104
 9356TIP3    H249484   5.004   4.081  14.295 -0.8600  0.5358 -0.9625
 9357TIP3   OH249485   6.843   3.092   3.074 -0.2068 -0.0674 -0.4305
 9357TIP3    H149486   6.882   3.052   2.996 -1.2243 -0.0081 -0.9844
 9357TIP3    H249487   6.881   3.180   3.078 -0.1565 -0.0690 -0.8689
 9358TIP3   OH249488   1.067   0.010  14.190  0.8566  0.6270  0.6376
 9358TIP3    H149489   0.976  -0.004  14.166  1.2852 -0.8679 -0.2020
 9358TIP3    H249490   1.117  -0.009  14.111  1.9327  1.0844  1.1754
 9359TIP3   OH249491   3.528   4.278  14.969  0.1352 -0.4872 -0.2858
 9359TIP3    H149492   3.582   4.199  14.964  0.7061 -0.2932  1.9152
 9359TIP3    H249493   3.577   4.344  14.920  0.4223 -1.0772 -0.8078
 9360TIP3   OH249494   1.237   2.300   3.980 -0.3487 -0.0159 -0.1732
 9360TIP3    H149495   1.205   2.246   4.052 -1.8442 -0.2741 -0.9895
 9360TIP3    H249496   1.306   2.354   4.019 -0.8176 -0.4640  1.3398
 9361TIP3   OH249497   1.398   0.998  11.614 -0.5659  0.3406  0.4179
 9361TIP3    H149498   1.364   0.914  11.582 -0.4098 -0.8420  3.0657
 9361TIP3    H249499   1.321   1.052  11.629 -0.6159  1.2428 -2.4522
 9362TIP3   OH249500   3.050   4.241   1.271 -0.3295  0.3570  0.0793
 9362TIP3    H149501   3.041   4.261   1.178 -1.4681  1.0197  0.3091
 9362TIP3    H249502   3.045   4.326   1.315  3.1886  0.4252  0.6156
 9363TIP3   OH249503   2.382   3.696   4.062 -0.6641  0.5958 -0.1614
 9363TIP3    H149504   2.464   3.656   4.033  0.2395  3.0024 -1.1922
 9363TIP3    H249505   2.402   3.733   4.148 -1.0097  0.2456  0.0741
 9364TIP3   OH249506   0.644   4.326  10.163 -0.0275  0.6573 -0.3058
 9364TIP3    H149507   0.623   4.244  10.209 -0.6338  1.0660  0.1622
 9364TIP3    H249508   0.725   4.356  10.204  0.4498  0.0506 -0.7993
 9365TIP3   OH249509   1.588   6.138  10.438  0.0823 -0.6307 -0.5383
 9365TIP3    H149510   1.625   6.178  10.359 -0.4159 -1.1296 -1.0237
 9365TIP3    H249511   1.496   6.125  10.419 -0.0341 -0.8144  0.1043
 9366TIP3   OH249512   1.589   6.606  11.805 -0.3713 -0.4606  0.7170
 9366TIP3    H149513   1.662   6.553  11.837  1.9190  3.1321  2.0215
 9366TIP3    H249514   1.537   6.625  11.883 -1.0755 -0.6682  0.3017
 9367TIP3   OH249515   2.247   3.553  14.775  0.3714 -0.0065 -0.5872
 9367TIP3    H149516   2.324   3.591  14.733  0.7300 -0.9744 -0.8175
 9367TIP3    H249517   2.216   3.621  14.835  1.3690  0.4071 -0.5321
 9368TIP3   OH249518   4.463   0.126  13.459  0.5037  0.6151 -0.2142
 9368TIP3    H149519   4.428   0.037  13.456  1.3352  0.1482  1.9997
 9368TIP3    H249520   4.487   0.145  13.368  0.5032 -1.4975 -0.7204
 9369TIP3   OH249521   4.457   5.523  12.363 -0.3283  0.2625  0.3613
 9369TIP3    H149522   4.533   5.481  12.322 -0.8566 -0.5743  0.2237
 9369TIP3    H249523   4.437   5.597  12.307  0.4150  0.5163  0.4258
 9370TIP3   OH249524   4.083   2.299  13.722  0.0739  0.1735  0.2965
 9370TIP3    H149525   4.146   2.248  13.671 -0.4792 -0.4566  0.2313
 9370TIP3    H249526   4.118   2.388  13.721  0.4514  0.0245 -0.5644
 9371TIP3   OH249527   2.110   4.889   5.071 -0.4422 -0.0243 -0.0737
 9371TIP3    H149528   2.119   4.809   5.123 -0.3444  0.6694  0.9912
 9371TIP3    H249529   2.016   4.909   5.076 -0.3059  0.4748  0.4881
 9372TIP3   OH249530   1.411   4.313  13.567 -0.1006 -0.3859  0.0712
 9372TIP3    H149531   1.396   4.233  13.518 -0.8524 -0.0268 -0.2938
 9372TIP3    H249532   1.351   4.377  13.528  0.9403  0.5348 -0.0871
 9373TIP3   OH249533   1.291   1.972  14.091 -0.1459 -0.1249  0.2499
 9373TIP3    H149534   1.286   1.943  14.182  0.4921 -1.4459 -0.1063
 9373TIP3    H249535   1.373   1.935  14.059 -0.9640 -0.7572 -1.2123
 9374TIP3   OH249536   4.300   2.336  12.866 -0.3980  0.2311  0.0532
 9374TIP3    H149537   4.394   2.320  12.879 -0.5348  0.2052  1.0967
 9374TIP3    H249538   4.275   2.394  12.938 -0.9584  1.1842 -0.8579
 9375TIP3   OH249539   5.675   3.292   3.435  0.4380 -0.2556 -0.2547
 9375TIP3    H149540   5.723   3.242   3.501  1.0532 -0.8602 -1.1338
 9375TIP3    H249541   5.583   3.276   3.454  0.5785  0.2265  0.9303
 9376TIP3   OH249542   0.466   0.635  16.023 -0.2066  0.0783  0.3318
 9376TIP3    H149543   0.426   0.555  16.057  2.9036 -1.3421  0.9663
 9376TIP3    H249544   0.486   0.686  16.102  0.5153  0.1032  0.1335
 9377TIP3   OH249545   2.006   0.410  14.018  0.0380  0.0995 -0.2065
 9377TIP3    H149546   2.013   0.316  14.033 -0.4028  0.2722  1.2150
 9377TIP3    H249547   1.953   0.418  13.940 -0.1455 -0.8325 -0.1885
 9378TIP3   OH249548   6.372   5.586  14.352  0.7563 -0.5376 -0.0787
 9378TIP3    H149549   6.290   5.602  14.399  1.3552 -2.4058  1.7680
 9378TIP3    H249550   6.357   5.621  14.264 -0.7007  2.5318  1.2260
 9379TIP3   OH249551   4.663   3.457   2.852 -0.7256  0.4098 -0.0660
 9379TIP3    H149552   4.686   3.374   2.893  0.5425 -0.3172 -2.0509
 9379TIP3    H249553   4.662   3.521   2.923  0.7747 -0.8624  1.1536
 9380TIP3   OH249554   3.087   2.780   5.394 -0.4159 -0.4808  0.6175
 9380TIP3    H149555   3.010   2.766   5.449  0.9697  0.8373  3.0651
 9380TIP3    H249556   3.135   2.697   5.400 -0.0408 -0.1941  1.8609
 9381TIP3   OH249557   2.787   3.079   0.588  0.1948  0.0764  0.3499
 9381TIP3    H149558   2.733   3.159   0.589  0.4308  0.3186 -1.4895
 9381TIP3    H249559   2.839   3.083   0.668  0.1856  1.7806  0.3057
 9382TIP3   OH249560   3.297   6.861   4.186 -0.0846  0.2194  0.4306
 9382TIP3    H149561   3.390   6.854   4.162  0.0636 -0.5560  1.1945
 9382TIP3    H249562   3.292   6.941   4.238  0.2355  0.0500  0.7275
 9383TIP3   OH249563   5.141   6.113   2.735 -0.6168 -0.1965 -0.4710
 9383TIP3    H149564   5.178   6.117   2.647 -2.3080  0.6665 -1.1911
 9383TIP3    H249565   5.086   6.190   2.742 -0.7403 -0.3977  1.2617
 9384TIP3   OH249566   5.184   0.868  11.298  0.7273 -0.6786  0.4587
 9384TIP3    H149567   5.148   0.945  11.256  0.9858 -0.5230  0.5193
 9384TIP3    H249568   5.279   0.875  11.284  0.5536 -2.9943 -3.0396
 9385TIP3   OH249569   0.753   0.276  13.878 -0.5820 -0.0342  0.3407
 9385TIP3    H149570   0.806   0.260  13.800 -0.9838 -1.5657  0.3356
 9385TIP3    H249571   0.670   0.310  13.844 -2.1639 -4.0075 -0.3705
 9386TIP3   OH249572   6.455   3.831   5.412  0.5590 -0.1351 -0.2822
 9386TIP3    H149573   6.531   3.838   5.470  0.4872 -0.7754 -0.1049
 9386TIP3    H249574   6.446   3.737   5.396 -0.4527 -0.0926  0.0205
 9387TIP3   OH249575   3.322   1.500  11.845  0.6034 -0.1676 -0.0881
 9387TIP3    H149576   3.295   1.429  11.786  1.6680 -2.5531  2.0831
 9387TIP3    H249577   3.251   1.564  11.840 -1.7404 -2.5966 -0.2759
 9388TIP3   OH249578   0.463   0.363  13.848  0.0255  0.5346  0.4270
 9388TIP3    H149579   0.442   0.332  13.936 -2.1354  0.8322  0.0699
 9388TIP3    H249580   0.441   0.456  13.849  2.4037  1.1871  0.2492
 9389TIP3   OH249581   1.393   4.182  14.133 -0.5345  0.9510  0.2039
 9389TIP3    H149582   1.423   4.271  14.112  0.5839  0.7286  0.7723
 9389TIP3    H249583   1.405   4.174  14.227 -0.2743  0.0814  0.1100
 9390TIP3   OH249584   3.971   4.062  16.152  0.2402 -0.2629  0.7822
 9390TIP3    H149585   4.009   3.978  16.178  1.0134  0.3653  1.7814
 9390TIP3    H249586   3.997   4.122  16.223 -1.5085  0.4891  0.8248
 9391TIP3   OH249587   2.499   4.465   4.180 -0.3924  0.2857 -0.7996
 9391TIP3    H149588   2.590   4.480   4.207 -0.6096  0.8154 -0.3330
 9391TIP3    H249589   2.503   4.389   4.122  0.1380 -0.7175  0.5161
 9392TIP3   OH249590   0.822   2.378  13.112  0.0299  0.7025  0.5129
 9392TIP3    H149591   0.729   2.375  13.094 -0.0226 -1.2305  0.9728
 9392TIP3    H249592   0.829   2.364  13.207  0.7729  1.1025  0.5260
 9393TIP3   OH249593   3.545   6.118   0.286 -0.3744 -0.3044 -0.3623
 9393TIP3    H149594   3.585   6.067   0.215  0.5613 -0.7959  0.4879
 9393TIP3    H249595   3.475   6.167   0.244 -1.0132 -1.9478 -1.3011
 9394TIP3   OH249596   6.358   4.283   5.039  0.0611  0.1025  0.2504
 9394TIP3    H149597   6.397   4.196   5.039 -0.7952 -0.2807  0.2627
 9394TIP3    H249598   6.284   4.278   4.980  0.0563  0.8538  0.1725
 9395TIP3   OH249599   3.258   5.740   0.798 -0.4798 -1.0400 -0.2082
 9395TIP3    H149600   3.298   5.818   0.760  0.2500 -1.7799 -0.9991
 9395TIP3    H249601   3.164   5.761   0.801 -0.1813  0.3011  0.6912
 9396TIP3   OH249602   6.794   1.822   5.597 -0.3035 -0.0272  0.4017
 9396TIP3    H149603   6.844   1.757   5.647 -0.3708  1.1995  2.1512
 9396TIP3    H249604   6.836   1.906   5.618 -1.6035  0.7522 -0.0090
 9397TIP3   OH249605   1.496   4.946   0.758 -0.4601  0.2080  0.3321
 9397TIP3    H149606   1.532   4.965   0.672  1.0280  0.9900  1.0843
 9397TIP3    H249607   1.503   5.029   0.806 -1.3049 -0.1980  1.1927
 9398TIP3   OH249608   1.476   3.797  13.105  0.6686  0.5726 -0.0305
 9398TIP3    H149609   1.476   3.892  13.113 -2.8380  0.6270  0.7754
 9398TIP3    H249610   1.420   3.766  13.176  1.0899 -2.0614 -0.7073
 9399TIP3   OH249611   4.901   6.708  15.249  0.1167  0.3397  0.1148
 9399TIP3    H149612   4.943   6.753  15.323 -0.5518  0.4238  0.4495
 9399TIP3    H249613   4.974   6.673  15.198  0.5848  0.0133  0.9850
 9400TIP3   OH249614   3.548   3.232   5.468  0.0563 -0.8582  0.2806
 9400TIP3    H149615   3.565   3.142   5.440 -0.4529 -0.9367  0.2080
 9400TIP3    H249616   3.458   3.249   5.440  0.8555  0.4456 -1.7298
 9401TIP3   OH249617   2.619   4.511   5.133 -0.1233  0.1454  0.4076
 9401TIP3    H149618   2.661   4.597   5.121 -0.4770  0.4408  1.2256
 9401TIP3    H249619   2.632   4.491   5.226 -1.5148  0.1037  0.6130
 9402TIP3   OH249620   4.763   0.267   3.993  0.6491 -0.4217 -0.2922
 9402TIP3    H149621   4.854   0.283   4.017  0.9019 -2.7602  0.5847
 9402TIP3    H249622   4.768   0.204   3.922 -0.2721 -1.5873  0.6362
 9403TIP3   OH249623   4.130   5.229  14.264  0.2051 -0.9521 -0.4464
 9403TIP3    H149624   4.160   5.161  14.324  0.4801 -0.0182  0.4978
 9403TIP3    H249625   4.190   5.302  14.279 -0.7445 -0.1117 -0.6569
 9404TIP3   OH249626   4.668   5.308   3.723  0.6568 -0.1061  0.0608
 9404TIP3    H149627   4.609   5.347   3.658 -0.6080 -0.1904  1.1018
 9404TIP3    H249628   4.657   5.214   3.712  1.2960 -0.1367 -0.3406
 9405TIP3   OH249629   0.573   5.740   3.546 -0.9153 -0.0196  0.6781
 9405TIP3    H149630   0.527   5.815   3.583 -1.3666  0.4072 -0.6884
 9405TIP3    H249631   0.537   5.664   3.592 -4.4750  0.0727 -1.5779
 9406TIP3   OH249632   4.948   2.726  11.345  0.2280 -0.1257  0.2374
 9406TIP3    H149633   4.972   2.645  11.391 -0.6639 -0.6948 -0.2695
 9406TIP3    H249634   4.950   2.793  11.413  1.9200 -0.3745  0.4720
 9407TIP3   OH249635   5.273   6.649  13.845  0.6632 -0.4339  0.3068
 9407TIP3    H149636   5.306   6.559  13.855 -0.4034 -0.8783 -0.0416
 9407TIP3    H249637   5.348   6.698  13.813  0.4686 -1.8936 -2.7143
 9408TIP3   OH249638   0.618   5.045   0.482 -0.0907  0.0109  0.3201
 9408TIP3    H149639   0.555   4.973   0.490 -0.8076  0.4449 -0.9467
 9408TIP3    H249640   0.568   5.123   0.504  0.5979  0.1701  1.3742
 9409TIP3   OH249641   1.851   3.270  11.261 -0.1587  0.1903  0.0517
 9409TIP3    H149642   1.767   3.229  11.284 -0.1427  0.2511  0.2194
 9409TIP3    H249643   1.826   3.353  11.220 -0.1694  1.8983  3.2095
 9410TIP3   OH249644   6.429   1.637  14.151 -0.1200 -0.1657  0.4643
 9410TIP3    H149645   6.517   1.600  14.144 -0.4085 -0.9377  0.8150
 9410TIP3    H249646   6.434   1.700  14.223  0.9183  2.1326 -1.4883
 9411TIP3   OH249647   2.501   0.231  14.353  0.3108 -0.1613 -0.0839
 9411TIP3    H149648   2.515   0.157  14.413  0.5736  0.5883  0.8043
 9411TIP3    H249649   2.540   0.306  14.399 -0.8542  0.7225 -0.5099
 9412TIP3   OH249650   5.536   3.822   1.551  0.6819  0.6059  0.1679
 9412TIP3    H149651   5.480   3.890   1.514  0.5265  0.4614  0.1380
 9412TIP3    H249652   5.604   3.807   1.485 -0.4697 -0.7637 -0.7744
 9413TIP3   OH249653   1.950   3.260   3.958 -0.2233  0.0831  0.2674
 9413TIP3    H149654   1.884   3.203   3.998 -0.3190 -0.5325 -0.7325
 9413TIP3    H249655   1.964   3.223   3.871  1.4778  0.1738  0.4586
 9414TIP3   OH249656   3.747   2.234   5.783 -0.0370 -0.7099  0.1223
 9414TIP3    H149657   3.781   2.271   5.701 -0.0597  1.1280  0.9106
 9414TIP3    H249658   3.696   2.304   5.822 -1.2822 -2.0618  1.0113
 9415TIP3   OH249659   5.349   3.165   0.381 -0.1859  0.3161  0.0322
 9415TIP3    H149660   5.359   3.092   0.442  0.9677 -0.9978 -1.6204
 9415TIP3    H249661   5.275   3.216   0.415 -0.6850 -1.3135  1.5207
 9416TIP3   OH249662   4.808   4.477   4.607  0.1696  0.2375 -0.0166
 9416TIP3    H149663   4.799   4.385   4.632 -0.2001  0.6941  1.5836
 9416TIP3    H249664   4.888   4.479   4.554  1.2902 -0.6925  1.5482
 9417TIP3   OH249665   1.279   0.028   2.176  0.0807  0.2399 -0.8602
 9417TIP3    H149666   1.296   0.039   2.082 -0.1511 -2.2065 -1.2595
 9417TIP3    H249667   1.322   0.103   2.217  0.1359  1.4090 -2.9128
 9418TIP3   OH249668   0.121   3.358  13.968  0.1812  0.2349 -0.2016
 9418TIP3    H149669   0.062   3.429  13.942  0.0148 -0.0036 -0.4890
 9418TIP3    H249670   0.207   3.386  13.936  0.1590  0.4194 -0.0995
 9419TIP3   OH249671   1.074   3.075  15.922 -0.7015  0.2544  0.4904
 9419TIP3    H149672   0.989   3.069  15.878 -0.4858  0.3377  0.0501
 9419TIP3    H249673   1.089   2.987  15.958 -0.9159  0.2049  0.4599
 9420TIP3   OH249674   4.696   4.415   3.625 -0.3883  0.3300 -0.5351
 9420TIP3    H149675   4.749   4.342   3.595 -0.7756  0.7424 -2.3461
 9420TIP3    H249676   4.729   4.434   3.713  2.1532  0.2728 -1.3851
 9421TIP3   OH249677   2.005   2.712   3.241  0.0399 -0.1059 -0.7683
 9421TIP3    H149678   1.953   2.636   3.215  2.0838 -1.3970 -1.3243
 9421TIP3    H249679   2.089   2.700   3.197  1.3341  1.1256  1.1941
 9422TIP3   OH249680   2.228   0.356   1.932  0.5615  0.3574 -0.2481
 9422TIP3    H149681   2.278   0.437   1.923 -0.5261  0.9914 -0.8603
 9422TIP3    H249682   2.141   0.378   1.898  0.6862 -1.5088 -1.9866
 9423TIP3   OH249683   0.692   4.539  10.973  0.7746 -0.4853 -0.2681
 9423TIP3    H149684   0.755   4.593  11.020  1.4606  0.0495 -1.7552
 9423TIP3    H249685   0.742   4.500  10.901 -0.1341 -1.6399 -0.3134
 9424TIP3   OH249686   2.762   4.755   3.492  0.6172 -0.0514  0.1966
 9424TIP3    H149687   2.747   4.822   3.560  1.7942  1.5634 -1.0590
 9424TIP3    H249688   2.856   4.738   3.495  0.4758 -0.9583 -0.1677
 9425TIP3   OH249689   2.719   3.933   0.540  0.2406 -0.5012  0.5895
 9425TIP3    H149690   2.813   3.928   0.554  0.4006 -0.6204 -0.4633
 9425TIP3    H249691   2.709   3.973   0.454 -0.7063  1.0529  1.3806
 9426TIP3   OH249692   1.324   6.534   5.944 -0.1105  0.1530 -0.0832
 9426TIP3    H149693   1.289   6.496   6.025 -0.2543  3.5135  1.5817
 9426TIP3    H249694   1.321   6.628   5.958  0.5113  0.8797 -3.7995
 9427TIP3   OH249695   0.508   5.956  12.039  0.1280  0.1891 -0.4158
 9427TIP3    H149696   0.481   5.879  12.089  0.1045  0.5412  0.1177
 9427TIP3    H249697   0.568   6.003  12.097  0.3765  0.4198 -0.8545
 9428TIP3   OH249698   4.846   4.389   2.252  0.5103  0.2334  0.5651
 9428TIP3    H149699   4.807   4.313   2.210  0.6806  0.3620  0.1684
 9428TIP3    H249700   4.903   4.427   2.185  0.7800  0.4431  0.9102
 9429TIP3   OH249701   1.401   6.123  14.825 -0.1645 -0.0013  0.1295
 9429TIP3    H149702   1.394   6.065  14.900  0.1254  2.3313  2.0944
 9429TIP3    H249703   1.348   6.200  14.849 -1.5394  0.1217 -2.8478
 9430TIP3   OH249704   0.154   5.138   5.495  0.4512 -0.3614  0.7873
 9430TIP3    H149705   0.185   5.080   5.425 -0.3711 -0.3557  0.4159
 9430TIP3    H249706   0.122   5.078   5.563 -1.6885 -0.3678 -0.1711
 9431TIP3   OH249707   6.664   2.595  13.988  0.0155 -0.7924  0.2589
 9431TIP3    H149708   6.587   2.609  13.934  0.7884  0.2093 -0.6310
 9431TIP3    H249709   6.736   2.632  13.937  0.9395 -0.8173  1.5000
 9432TIP3   OH249710   5.993   1.328   3.177  0.1831 -0.2405  0.5554
 9432TIP3    H149711   5.935   1.333   3.253 -1.1014  0.5887 -0.4444
 9432TIP3    H249712   6.081   1.337   3.214 -0.4291  0.5296  1.8991
 9433TIP3   OH249713   6.734   3.199   0.981  0.6349  0.2661  0.2594
 9433TIP3    H149714   6.674   3.173   0.911 -0.6363 -0.6658  1.6452
 9433TIP3    H249715   6.797   3.256   0.937 -0.8337  0.7290 -1.4002
 9434TIP3   OH249716   6.557   5.332  12.734 -0.6217  0.2292 -0.3216
 9434TIP3    H149717   6.566   5.275  12.657  0.2818  0.4599 -0.4027
 9434TIP3    H249718   6.578   5.420  12.702 -0.3946  0.3514  0.1435
 9435TIP3   OH249719   1.316   0.283  15.400 -0.3873  0.0183 -0.5286
 9435TIP3    H149720   1.278   0.283  15.488  0.1516 -1.2259 -0.2804
 9435TIP3    H249721   1.366   0.202  15.395 -0.0839  0.2620 -1.8513
 9436TIP3   OH249722   6.391   3.229   5.549  0.6446  0.3475 -0.2328
 9436TIP3    H149723   6.357   3.254   5.463 -0.6077 -0.3015  0.0374
 9436TIP3    H249724   6.380   3.308   5.603 -1.0550 -0.0067 -0.0020
 9437TIP3   OH249725   5.618   5.138   1.261 -0.1591 -0.0095 -0.2911
 9437TIP3    H149726   5.557   5.097   1.322  0.8698 -0.4140  0.5048
 9437TIP3    H249727   5.704   5.104   1.286  0.8591  3.0068  0.8004
 9438TIP3   OH249728   4.757   1.055   4.715  0.0922  0.9421 -0.1501
 9438TIP3    H149729   4.804   0.997   4.775 -0.0880  1.5003  0.5399
 9438TIP3    H249730   4.822   1.119   4.688 -0.1307  1.4010  0.3909
 9439TIP3   OH249731   5.169   6.092  16.372  0.0518  0.0242 -0.1994
 9439TIP3    H149732   5.180   6.180  16.409 -1.2103  0.5901 -1.0753
 9439TIP3    H249733   5.120   6.106  16.291 -2.7503 -1.7220  1.0519
 9440TIP3   OH249734   5.058   3.190  13.262 -0.2389 -0.0173 -0.1480
 9440TIP3    H149735   5.105   3.145  13.191  0.5586  0.2081  0.2270
 9440TIP3    H249736   5.049   3.280  13.231 -0.1316  0.0169 -0.0801
 9441TIP3   OH249737   1.889   3.098   0.669 -0.2251  0.0241  0.1350
 9441TIP3    H149738   1.909   3.092   0.762 -1.3603  0.5615  0.4227
 9441TIP3    H249739   1.804   3.057   0.659  0.0582 -0.3888 -0.7426
 9442TIP3   OH249740   3.967   4.265  14.226  0.2188 -0.0951 -0.5353
 9442TIP3    H149741   3.958   4.352  14.266  2.2644 -0.2271  0.3418
 9442TIP3    H249742   4.005   4.211  14.295 -1.1860 -1.7710 -1.0193
 9443TIP3   OH249743   3.814   4.960   5.769  0.0205  0.4765 -0.2756
 9443TIP3    H149744   3.862   4.951   5.687  1.1029  0.2840  0.3664
 9443TIP3    H249745   3.851   4.893   5.826 -0.1162  1.1681  0.6485
 9444TIP3   OH249746   6.823   2.571   5.456 -0.1048 -0.2222 -0.6847
 9444TIP3    H149747   6.814   2.487   5.409 -1.2384  0.3498 -1.5532
 9444TIP3    H249748   6.916   2.576   5.477  0.3737 -0.7754 -2.4176
 9445TIP3   OH249749   0.617   3.334  14.820 -0.0794  0.0765  0.4144
 9445TIP3    H149750   0.599   3.426  14.841 -1.7963 -0.6337  2.5141
 9445TIP3    H249751   0.627   3.332  14.725 -0.5273  2.3599  0.2688
 9446TIP3   OH249752   4.230   6.053  12.080  0.6483 -0.4919  0.5132
 9446TIP3    H149753   4.219   6.074  11.987  0.7590 -0.0391  0.5995
 9446TIP3    H249754   4.142   6.051  12.115  0.6736  0.9546  0.7388
 9447TIP3   OH249755   5.126   1.266  10.914  0.1242 -0.2405 -0.4401
 9447TIP3    H149756   5.155   1.349  10.952  1.8011 -1.1977  0.5140
 9447TIP3    H249757   5.107   1.287  10.823 -0.4758  1.3877  0.0274
 9448TIP3   OH249758   5.288   2.415  11.548  0.1334  0.0459  0.0405
 9448TIP3    H149759   5.374   2.428  11.509 -0.4725 -1.5865 -2.0209
 9448TIP3    H249760   5.300   2.343  11.610  0.7642  1.6145  1.8319
 9449TIP3   OH249761   3.836   0.175   0.829  0.5083  0.1670 -0.3849
 9449TIP3    H149762   3.810   0.083   0.828  1.4219 -0.0929 -1.4304
 9449TIP3    H249763   3.814   0.207   0.741  1.4198  0.5932 -0.4640
 9450TIP3   OH249764   3.301   3.386   5.822 -0.7134  0.4003 -0.2672
 9450TIP3    H149765   3.227   3.358   5.768  0.0169 -0.5380 -0.8154
 9450TIP3    H249766   3.355   3.438   5.762  0.0359 -0.5364 -0.4276
 9451TIP3   OH249767   3.630   0.796   2.431  0.2194  0.3146 -0.2293
 9451TIP3    H149768   3.562   0.863   2.421  0.0209 -0.1199 -2.2378
 9451TIP3    H249769   3.613   0.757   2.516 -1.8076  0.5262 -0.4788
 9452TIP3   OH249770   5.881   6.228  13.590  0.3751 -0.2478 -0.3446
 9452TIP3    H149771   5.976   6.236  13.580  0.5105 -1.0585  0.2181
 9452TIP3    H249772   5.860   6.288  13.662  0.1631  1.4049 -1.7054
 9453TIP3   OH249773   1.741   0.575   4.058  0.0328  0.4887  0.0706
 9453TIP3    H149774   1.748   0.657   4.009  0.1474  0.6518  0.3591
 9453TIP3    H249775   1.793   0.590   4.137 -0.6087  0.4315  0.5135
 9454TIP3   OH249776   0.391   0.808   4.992  0.0378 -0.3350 -0.1492
 9454TIP3    H149777   0.380   0.730   5.046  0.5159 -0.3252 -0.0263
 9454TIP3    H249778   0.349   0.787   4.909  1.2569 -1.2176 -0.5734
 9455TIP3   OH249779   5.852   0.391   1.280 -0.2811 -0.4719  0.2109
 9455TIP3    H149780   5.838   0.374   1.187  2.0787 -0.6465 -0.1604
 9455TIP3    H249781   5.908   0.320   1.310  0.5499  0.5887  1.2943
 9456TIP3   OH249782   2.254   0.824  15.246  0.4444  0.1351 -0.0479
 9456TIP3    H149783   2.348   0.840  15.242  0.6231  0.6357  3.2852
 9456TIP3    H249784   2.246   0.744  15.298 -0.9935 -0.2941 -0.8645
 9457TIP3   OH249785   4.337   0.209  14.311  0.3883  0.3494  0.4446
 9457TIP3    H149786   4.273   0.271  14.346  0.7635 -0.0361  1.8834
 9457TIP3    H249787   4.385   0.179  14.388 -0.8633 -3.0003  0.0724
 9458TIP3   OH249788   4.297   1.092  15.818 -0.1708 -0.2065  0.1446
 9458TIP3    H149789   4.283   1.178  15.777  1.3788  0.0170  0.0128
 9458TIP3    H249790   4.318   1.034  15.745 -0.4937 -0.5310  0.3086
 9459TIP3   OH249791   3.791   3.206   1.112  0.5156 -0.2268  0.0423
 9459TIP3    H149792   3.863   3.151   1.079  0.5506  0.6518 -1.4207
 9459TIP3    H249793   3.826   3.295   1.110  0.3166 -0.0532  1.9974
 9460TIP3   OH249794   2.369   2.248  12.700 -0.2185 -0.0339 -0.6077
 9460TIP3    H149795   2.412   2.171  12.664 -0.8682 -0.4893 -0.4363
 9460TIP3    H249796   2.439   2.298  12.742  0.5462  0.4603 -2.3803
 9461TIP3   OH249797   4.259   0.436   1.001 -0.5008 -0.2672 -0.5683
 9461TIP3    H149798   4.313   0.493   0.945 -0.6559 -0.1047 -0.5536
 9461TIP3    H249799   4.185   0.412   0.946  0.8058 -2.5603 -1.4905
 9462TIP3   OH249800   6.553   3.961  14.949  0.5000 -0.1389  0.0115
 9462TIP3    H149801   6.567   3.912  14.867 -1.6982  0.5789 -0.8662
 9462TIP3    H249802   6.516   3.896  15.009 -0.9423  0.0307 -0.6512
 9463TIP3   OH249803   0.137   5.185  14.011 -0.6194 -0.0328  0.2881
 9463TIP3    H149804   0.075   5.131  13.961 -0.0830 -1.2529  0.8841
 9463TIP3    H249805   0.149   5.263  13.958 -2.1490 -0.0713 -0.1662
 9464TIP3   OH249806   5.553   1.276  13.132 -0.3757 -0.3771  0.2862
 9464TIP3    H149807   5.631   1.277  13.188 -0.5029 -0.9315  0.4803
 9464TIP3    H249808   5.549   1.364  13.094 -0.0816 -0.1106  0.8680
 9465TIP3   OH249809   2.629   5.618   5.809 -0.0973  0.5877 -0.2114
 9465TIP3    H149810   2.697   5.556   5.836 -1.6344 -1.7375 -1.4332
 9465TIP3    H249811   2.556   5.601   5.868 -0.4729  1.4314 -0.4172
 9466TIP3   OH249812   6.366   4.010  11.090  0.1662  0.1785  0.4545
 9466TIP3    H149813   6.299   4.000  11.157 -0.8226  1.9444 -0.1991
 9466TIP3    H249814   6.440   4.050  11.136  0.0277  0.0638  0.7794
 9467TIP3   OH249815   5.534   0.614  16.176  0.0672 -0.3241  0.7059
 9467TIP3    H149816   5.602   0.676  16.149 -0.2632 -0.6507 -1.0064
 9467TIP3    H249817   5.506   0.646  16.261  0.4423  1.4416  0.2252
 9468TIP3   OH249818   1.828   5.211   5.052  0.0940  0.2636  0.0443
 9468TIP3    H149819   1.807   5.118   5.047 -2.2417  0.7102  0.3411
 9468TIP3    H249820   1.847   5.227   5.144 -1.1638  0.3602  0.3045
 9469TIP3   OH249821   2.739   5.903  11.161  0.2318 -0.4106 -0.5929
 9469TIP3    H149822   2.657   5.948  11.144  0.3849  1.1274  2.1765
 9469TIP3    H249823   2.717   5.810  11.160 -1.4811 -0.0359 -0.1981
 9470TIP3   OH249824   4.852   5.250  11.213 -1.0256  0.1652  0.3458
 9470TIP3    H149825   4.852   5.338  11.175 -0.2901 -0.2030 -0.5445
 9470TIP3    H249826   4.854   5.191  11.138 -1.5226 -0.6200  0.9299
 9471TIP3   OH249827   2.864   1.696   1.955  0.4569 -0.1828 -0.3222
 9471TIP3    H149828   2.812   1.772   1.929  1.6170  0.7475  0.0197
 9471TIP3    H249829   2.802   1.622   1.950 -0.9427  0.9058  0.2758
 9472TIP3   OH249830   1.066   0.235   0.879  0.1226 -0.8063 -0.6865
 9472TIP3    H149831   1.012   0.157   0.865  0.6758 -1.2093 -0.5791
 9472TIP3    H249832   1.151   0.212   0.842  1.6216 -1.8397  2.9207
 9473TIP3   OH249833   2.161   0.827  13.979 -0.7919 -0.5003 -0.9129
 9473TIP3    H149834   2.146   0.767  14.052 -0.9031 -0.5147 -0.9466
 9473TIP3    H249835   2.104   0.902  13.998 -1.4129 -0.8409 -1.3761
 9474TIP3   OH249836   5.241   1.289   3.276  0.0857 -0.2888  0.4730
 9474TIP3    H149837   5.217   1.353   3.343 -0.8752  0.2257 -0.3334
 9474TIP3    H249838   5.184   1.309   3.202  0.9104 -1.0359 -0.3989
 9475TIP3   OH249839   1.534   3.209  13.010  0.9346 -0.2458 -0.4880
 9475TIP3    H149840   1.528   3.304  13.000  0.2418 -0.1618  0.5014
 9475TIP3    H249841   1.478   3.174  12.940 -0.0481  0.1349  0.0891
 9476TIP3   OH249842   3.611   2.509  12.178  0.7414 -0.1870  0.3812
 9476TIP3    H149843   3.665   2.587  12.162  2.0590 -1.1874 -0.2263
 9476TIP3    H249844   3.653   2.440  12.128 -0.1496 -1.4112  1.2574
 9477TIP3   OH249845   4.960   3.323  16.030  0.0556  0.2464 -0.4402
 9477TIP3    H149846   5.021   3.396  16.029  0.7753 -0.3388 -2.0494
 9477TIP3    H249847   4.882   3.356  15.987 -0.3715  0.6345  0.5848
 9478TIP3   OH249848   2.064   5.510  12.969 -0.2047 -0.2927  0.5112
 9478TIP3    H149849   2.030   5.498  12.880  0.3563  2.9177 -0.2844
 9478TIP3    H249850   1.993   5.480  13.025 -1.2464 -0.8883 -1.0413
 9479TIP3   OH249851   5.157   4.100   4.818  0.3522 -0.5774 -0.5188
 9479TIP3    H149852   5.095   4.147   4.873  0.6408  0.1299 -0.7951
 9479TIP3    H249853   5.243   4.128   4.850  0.5483  1.2370 -2.4849
 9480TIP3   OH249854   5.835   6.469  15.912 -1.0534  0.0187 -0.6641
 9480TIP3    H149855   5.784   6.409  15.966 -0.4403 -0.5533 -0.7131
 9480TIP3    H249856   5.782   6.549  15.908 -0.6183  0.4859  1.6968
 9481TIP3   OH249857   3.459   1.302  14.576 -0.0606 -0.1220  0.3227
 9481TIP3    H149858   3.370   1.274  14.593  0.7979 -3.2679  0.2985
 9481TIP3    H249859   3.476   1.273  14.486  1.1588 -0.1953  0.5586
 9482TIP3   OH249860   2.833   0.037   0.458 -0.0432  0.0164  0.3514
 9482TIP3    H149861   2.891  -0.009   0.519  0.3416  1.6668  1.3008
 9482TIP3    H249862   2.849   0.130   0.476 -2.0679  0.5260 -0.2561
 9483TIP3   OH249863   2.113   0.188   0.053 -0.0261 -0.2829 -0.3714
 9483TIP3    H149864   2.033   0.147   0.020 -0.3532  0.8930 -1.1211
 9483TIP3    H249865   2.145   0.240  -0.021  0.8155  0.1590  0.2830
 9484TIP3   OH249866   1.909   4.800   3.743  0.0074 -0.6372 -0.1011
 9484TIP3    H149867   1.986   4.811   3.688 -0.0878 -0.1499 -0.1404
 9484TIP3    H249868   1.837   4.838   3.692 -0.1983 -0.7791  0.0791
 9485TIP3   OH249869   4.645   2.235   1.443  0.4690  0.7503  0.2635
 9485TIP3    H149870   4.709   2.206   1.378 -0.9018 -1.2850 -0.2640
 9485TIP3    H249871   4.634   2.159   1.501 -2.8348  0.2580 -0.8065
 9486TIP3   OH249872   4.010   2.549  14.457  0.2753  0.1811  0.0381
 9486TIP3    H149873   4.086   2.603  14.479  1.9501 -1.4746 -1.3487
 9486TIP3    H249874   4.046   2.461  14.449 -2.2479 -1.1101  1.6838
 9487TIP3   OH249875   3.289   1.759   5.806 -0.7876  0.2832 -0.2052
 9487TIP3    H149876   3.358   1.747   5.740 -0.7270  0.4400 -0.1713
 9487TIP3    H249877   3.211   1.779   5.755 -1.6954 -3.3711 -0.5114
 9488TIP3   OH249878   4.752   2.683   3.746 -0.4313 -0.8318  0.1532
 9488TIP3    H149879   4.707   2.643   3.821  1.0384 -2.8024  0.0820
 9488TIP3    H249880   4.838   2.708   3.781 -0.3992 -0.0769 -0.4527
 9489TIP3   OH249881   3.752   4.361  15.908  0.3379 -0.6155  0.0599
 9489TIP3    H149882   3.748   4.454  15.888 -0.7301 -0.6499  0.0622
 9489TIP3    H249883   3.838   4.349  15.948  1.3906 -0.0406 -1.9247
 9490TIP3   OH249884   1.805   5.416   2.302 -0.5352  0.0811 -0.0933
 9490TIP3    H149885   1.824   5.336   2.254 -1.9522  0.5384 -1.5130
 9490TIP3    H249886   1.794   5.388   2.393 -0.1125 -1.1756 -0.4115
 9491TIP3   OH249887   2.082   6.270   4.594 -0.5380  0.4833 -0.2272
 9491TIP3    H149888   2.017   6.205   4.619  0.9155 -0.1364  2.2600
 9491TIP3    H249889   2.132   6.227   4.524 -0.3855 -0.5997  0.5272
 9492TIP3   OH249890   2.734   2.880  14.532  0.2168  0.3377 -0.3154
 9492TIP3    H149891   2.662   2.927  14.572  0.6256 -0.4396  1.4635
 9492TIP3    H249892   2.741   2.915  14.443 -3.2590 -0.5988 -1.0749
 9493TIP3   OH249893   6.875   5.015   3.527 -0.4745  0.2199  0.0562
 9493TIP3    H149894   6.880   5.109   3.545 -1.6036  0.4796 -0.8180
 9493TIP3    H249895   6.965   4.990   3.504 -0.5192  1.5802 -1.8443
 9494TIP3   OH249896   2.617   6.095   2.386  0.3887  0.5942  0.1390
 9494TIP3    H149897   2.623   6.122   2.478 -0.9791  0.5685  0.2660
 9494TIP3    H249898   2.523   6.094   2.368  0.6559  1.6179 -1.5673
 9495TIP3   OH249899   0.886   5.478  13.392 -0.5447 -0.0489 -0.0758
 9495TIP3    H149900   0.963   5.424  13.411 -1.2040 -1.0871 -0.2597
 9495TIP3    H249901   0.914   5.568  13.410  0.8131 -0.3696 -0.4904
 9496TIP3   OH249902   0.919   2.913  13.077 -0.2798  0.3835 -0.2337
 9496TIP3    H149903   0.836   2.938  13.035  0.0209  1.3487 -0.2703
 9496TIP3    H249904   0.980   2.982  13.052  0.6489 -0.5225 -0.5259
 9497TIP3   OH249905   5.628   2.961   3.089 -0.0758 -0.3162 -0.3861
 9497TIP3    H149906   5.699   2.924   3.142 -0.7970  0.3243  1.0841
 9497TIP3    H249907   5.601   2.889   3.032  1.0438 -0.8892 -0.2243
 9498TIP3   OH249908   6.423   1.996   2.500  0.6016  0.2427  0.2930
 9498TIP3    H149909   6.418   2.090   2.482 -2.2078  0.1830  0.2036
 9498TIP3    H249910   6.502   1.967   2.456 -0.4509  1.9487 -3.0843
 9499TIP3   OH249911   1.092   1.166  16.324  0.1422 -0.6927 -0.1965
 9499TIP3    H149912   1.095   1.189  16.232 -3.9772 -2.1069 -0.8843
 9499TIP3    H249913   1.060   1.245  16.368 -3.1453 -1.4827 -0.9190
 9500TIP3   OH249914   0.112   0.129  15.808  0.3703 -0.8119  0.1312
 9500TIP3    H149915   0.202   0.136  15.777  0.1275  0.1728 -0.3896
 9500TIP3    H249916   0.090   0.217  15.840 -0.7872 -0.7166 -0.8521
 9501TIP3   OH249917   0.567   2.740  15.619  0.5498  0.0795 -0.2464
 9501TIP3    H149918   0.520   2.657  15.631  0.1665  0.4394  0.8165
 9501TIP3    H249919   0.660   2.714  15.614  0.5059 -0.3587  0.8720
 9502TIP3   OH249920   5.477   3.405  13.592  0.2765  0.3092  0.1499
 9502TIP3    H149921   5.453   3.344  13.523 -2.3216  1.1374  0.1817
 9502TIP3    H249922   5.435   3.370  13.671 -0.8116  1.7630  0.2741
 9503TIP3   OH249923   1.013   6.051  15.344  0.5292 -0.1883 -0.0274
 9503TIP3    H149924   0.934   6.083  15.386  0.0136 -4.2857  2.7365
 9503TIP3    H249925   0.987   6.035  15.253 -1.5107 -0.4074  0.5420
 9504TIP3   OH249926   4.462   2.508   5.673 -0.0313 -0.0905 -0.2668
 9504TIP3    H149927   4.403   2.522   5.747 -1.5463  0.2775 -1.4643
 9504TIP3    H249928   4.461   2.592   5.627  0.8442 -0.3270 -0.7330
 9505TIP3   OH249929   5.518   6.822  10.318  0.1812 -0.0612  0.1403
 9505TIP3    H149930   5.439   6.845  10.366  0.3137  1.5395 -0.3336
 9505TIP3    H249931   5.569   6.768  10.378 -0.3541  0.6014  1.2110
 9506TIP3   OH249932   4.037   1.022  10.631 -0.4452 -0.3885 -0.2647
 9506TIP3    H149933   4.039   1.052  10.540  0.3191  0.0856 -0.0902
 9506TIP3    H249934   4.047   0.927  10.624 -2.7375 -0.6453 -0.8053
 9507TIP3   OH249935   1.659   3.681  11.397  0.3075  0.1065 -0.0573
 9507TIP3    H149936   1.574   3.658  11.435 -0.4761  1.2927 -0.9682
 9507TIP3    H249937   1.720   3.679  11.470 -0.8329  0.7997  0.9693
 9508TIP3   OH249938   4.464   1.827  16.403 -0.6033 -0.1773 -0.0067
 9508TIP3    H149939   4.538   1.872  16.444 -2.2243  0.1881  2.7494
 9508TIP3    H249940   4.489   1.735  16.403 -0.2671 -0.1061  1.2384
 9509TIP3   OH249941   5.985   1.594  11.505  0.0065 -0.2390 -0.2793
 9509TIP3    H149942   5.890   1.579  11.504  0.0270 -0.3732 -1.7946
 9509TIP3    H249943   5.998   1.668  11.445  0.6418  1.3870  1.7180
 9510TIP3   OH249944   0.815   1.331  14.646  0.2594 -0.2834  0.6432
 9510TIP3    H149945   0.749   1.278  14.602  0.7700 -1.2232  0.9738
 9510TIP3    H249946   0.869   1.366  14.576  0.4852 -0.9766  0.4687
 9511TIP3   OH249947   1.351   5.068   4.748  0.2134 -0.2347 -0.4934
 9511TIP3    H149948   1.390   5.155   4.744 -0.2077 -0.0625 -0.9053
 9511TIP3    H249949   1.339   5.043   4.656 -1.1891 -0.0363 -0.3816
 9512TIP3   OH249950   2.155   3.461  16.159 -0.0476  0.0240 -0.6116
 9512TIP3    H149951   2.183   3.523  16.091  1.9850 -0.8798 -0.6628
 9512TIP3    H249952   2.063   3.445  16.140  0.2184  0.5769 -2.5533
 9513TIP3   OH249953   3.394   4.133   5.828  0.5061  0.1661 -0.1413
 9513TIP3    H149954   3.419   4.221   5.858 -0.6768  0.8546 -1.0659
 9513TIP3    H249955   3.472   4.080   5.843  1.3427  1.4300  0.2047
 9514TIP3   OH249956   6.118   4.643  16.415  0.3567  0.3493  0.4606
 9514TIP3    H149957   6.158   4.572  16.364  1.3651  0.7472  0.6773
 9514TIP3    H249958   6.024   4.625  16.411  0.5578 -0.6828  0.0456
 9515TIP3   OH249959   4.631   4.888  14.773 -0.4660  0.3626  0.1573
 9515TIP3    H149960   4.605   4.945  14.846  2.3747  1.0493  0.7642
 9515TIP3    H249961   4.696   4.940  14.725 -0.6460 -0.9373 -1.5793
 9516TIP3   OH249962   0.777   6.143  11.118 -0.1011  0.3697  0.0036
 9516TIP3    H149963   0.742   6.056  11.139 -0.9456  0.5076 -0.7814
 9516TIP3    H249964   0.865   6.143  11.156 -0.9652  0.0528  2.1788
 9517TIP3   OH249965   2.603   0.862   0.632  0.7262  0.0412 -0.1150
 9517TIP3    H149966   2.598   0.957   0.624 -2.1794  0.0826  0.8222
 9517TIP3    H249967   2.556   0.829   0.555  0.3280 -0.5507  0.3700
 9518TIP3   OH249968   2.551   3.807   5.245  0.4141 -0.5510 -0.3079
 9518TIP3    H149969   2.625   3.801   5.306  0.5834  1.2053 -0.2915
 9518TIP3    H249970   2.581   3.761   5.167  0.5532 -2.0269  0.5796
 9519TIP3   OH249971   0.128   1.550   4.757 -0.4424  0.2101 -0.1303
 9519TIP3    H149972   0.129   1.455   4.767 -0.3699  0.3551  1.5222
 9519TIP3    H249973   0.198   1.569   4.695  0.3265 -0.7388  0.4265
 9520TIP3   OH249974   2.070   3.915  16.088 -0.7510  0.1117  0.0995
 9520TIP3    H149975   2.038   3.832  16.055  0.1594 -1.4761  2.8855
 9520TIP3    H249976   2.138   3.941  16.026 -0.1329 -1.9227 -0.1344
 9521TIP3   OH249977   4.880   3.115  14.325 -0.1094  0.1755 -0.4118
 9521TIP3    H149978   4.954   3.166  14.292 -0.0166  1.1033  1.1488
 9521TIP3    H249979   4.903   3.094  14.416 -1.0584 -0.9155 -0.3945
 9522TIP3   OH249980   1.904   4.531  13.196  0.3053  0.0858 -0.5702
 9522TIP3    H149981   1.836   4.464  13.208  1.5877 -1.1741  0.0106
 9522TIP3    H249982   1.874   4.581  13.120 -2.3364  0.9785  0.9086
 9523TIP3   OH249983   1.400   6.843  11.863  0.0842 -0.4176  0.0020
 9523TIP3    H149984   1.440   6.884  11.786  2.6250 -0.5928  1.1114
 9523TIP3    H249985   1.316   6.886  11.873  0.3241  0.6220 -2.0299
 9524TIP3   OH249986   4.001   3.417  13.902  0.4379 -0.0063 -0.4284
 9524TIP3    H149987   3.914   3.385  13.926  0.5217  0.1599  0.1122
 9524TIP3    H249988   4.058   3.340  13.911  0.1657 -0.4291 -1.9433
 9525TIP3   OH249989   5.445   5.902   4.631  0.1723 -0.2591  0.0594
 9525TIP3    H149990   5.538   5.878   4.630  0.0862 -0.6701  1.0451
 9525TIP3    H249991   5.412   5.866   4.713 -1.0177 -0.6773 -0.5900
 9526TIP3   OH249992   6.211   5.113  11.882  0.1147 -0.0025  0.4908
 9526TIP3    H149993   6.249   5.088  11.966 -1.4921 -0.1931  1.1884
 9526TIP3    H249994   6.260   5.062  11.818  0.2210 -1.1786  1.4629
 9527TIP3   OH249995   1.067   0.787  16.579 -0.2087  0.4788  0.2001
 9527TIP3    H149996   1.064   0.866  16.632  1.3096  0.3505  0.5251
 9527TIP3    H249997   0.983   0.785  16.534 -1.6295  0.5393  2.6628
 9528TIP3   OH249998   0.496   6.737  10.778 -0.5075  0.2874  0.0068
 9528TIP3    H149999   0.524   6.710  10.691  0.7797 -0.6539  0.6773
 9528TIP3    H250000   0.577   6.765  10.822 -1.0842  0.4561  0.9962
 9529TIP3   OH250001   5.326   0.992   3.779 -0.4530  0.4998  0.5962
 9529TIP3    H150002   5.304   0.928   3.711  0.1403  2.5866 -1.6886
 9529TIP3    H250003   5.283   1.073   3.751  1.2787  1.8907  1.7543
 9530TIP3   OH250004   1.246   0.840  15.127 -0.2189 -0.2001  0.1173
 9530TIP3    H150005   1.165   0.881  15.157 -0.3839 -1.0661  0.8716
 9530TIP3    H250006   1.285   0.906  15.069 -1.4687  0.2167 -0.2896
 9531TIP3   OH250007   0.863   4.634   0.755  0.5127  0.4336 -0.2940
 9531TIP3    H150008   0.885   4.556   0.806 -0.9627  0.6657  0.7565
 9531TIP3    H250009   0.785   4.608   0.705 -1.7220  1.9844  2.1380
 9532TIP3   OH250010   6.778   4.859  11.028  0.2572 -0.2467 -0.3808
 9532TIP3    H150011   6.811   4.770  11.017 -1.5970 -1.3151  1.8837
 9532TIP3    H250012   6.857   4.913  11.032  1.4557 -1.8697 -1.0759
 9533TIP3   OH250013   1.871   4.581   1.379 -0.0960  0.1804 -0.0943
 9533TIP3    H150014   1.957   4.617   1.398 -0.5283  1.0485  0.3015
 9533TIP3    H250015   1.868   4.499   1.427 -0.1334  1.0042  1.3622
 9534TIP3   OH250016   1.349   3.029  13.202  0.5747  0.7367 -0.2517
 9534TIP3    H150017   1.420   3.071  13.153  1.2587  1.2494  1.1055
 9534TIP3    H250018   1.392   2.955  13.245  0.2833  1.0110  0.5252
 9535TIP3   OH250019   5.839   3.568  14.094 -0.3196 -0.0512 -0.3415
 9535TIP3    H150020   5.794   3.556  14.178 -2.5784  0.3680 -1.4206
 9535TIP3    H250021   5.881   3.484  14.077 -0.7353 -0.4927  0.7166
 9536TIP3   OH250022   5.208   4.738  15.503 -0.0930  0.0392  0.6503
 9536TIP3    H150023   5.239   4.698  15.422 -0.8778  0.1224  0.3051
 9536TIP3    H250024   5.286   4.742  15.559 -0.0669 -2.3783  0.8818
 9537TIP3   OH250025   3.144   3.611  15.176  0.5428  0.0976  0.3986
 9537TIP3    H150026   3.188   3.560  15.244  0.4872 -0.0957  0.2895
 9537TIP3    H250027   3.083   3.668  15.224  0.5142 -0.0269  0.5095
 9538TIP3   OH250028   0.748   5.005   3.653  0.0356  0.2425 -0.0436
 9538TIP3    H150029   0.830   5.023   3.700  1.1490  0.8601 -2.0906
 9538TIP3    H250030   0.713   4.926   3.695  1.0505  0.6457  1.6468
 9539TIP3   OH250031   4.905   1.216  11.560  0.6378  0.2019 -0.1156
 9539TIP3    H150032   4.970   1.284  11.576  0.5273 -0.1646  2.3338
 9539TIP3    H250033   4.920   1.153  11.631 -1.1615 -0.8305 -0.6136
 9540TIP3   OH250034   1.403   3.980  15.168  0.7533 -0.3722  0.0865
 9540TIP3    H150035   1.358   4.027  15.237  0.5153 -2.2700  1.3028
 9540TIP3    H250036   1.475   3.934  15.212  2.0435  0.2103 -1.3231
 9541TIP3   OH250037   6.833   4.324  15.971 -0.1006 -0.8111 -0.1493
 9541TIP3    H150038   6.828   4.415  15.941 -0.4061 -0.9270 -0.4659
 9541TIP3    H250039   6.912   4.320  16.025 -1.2457  0.1719  1.6874
 9542TIP3   OH250040   4.566   6.856   3.162  0.4089 -0.4593 -0.2096
 9542TIP3    H150041   4.579   6.949   3.179  1.0850 -0.1467 -2.2360
 9542TIP3    H250042   4.582   6.846   3.068 -1.5988 -2.2853 -0.4330
 9543TIP3   OH250043   3.858   2.937   2.889  0.3557  0.1606 -0.0119
 9543TIP3    H150044   3.949   2.963   2.905  0.1405  0.2068  1.1897
 9543TIP3    H250045   3.855   2.845   2.914 -0.2246  0.5001  1.2528
 9544TIP3   OH250046   0.885   3.669   0.083 -0.4286 -0.2173  0.9939
 9544TIP3    H150047   0.945   3.705   0.017  2.2282 -0.4147  3.1093
 9544TIP3    H250048   0.829   3.608   0.035  1.8748 -0.9289 -0.9675
 9545TIP3   OH250049   4.319   5.228   3.843 -0.2608 -0.1501 -0.3659
 9545TIP3    H150050   4.374   5.172   3.789 -2.8133 -2.4039 -0.8339
 9545TIP3    H250051   4.230   5.211   3.813 -1.6350  0.2344  2.9967
 9546TIP3   OH250052   4.739   0.766   4.256 -0.1833  0.7435  0.6170
 9546TIP3    H150053   4.825   0.750   4.218 -1.7286  0.5840 -3.3094
 9546TIP3    H250054   4.720   0.687   4.307  0.9177 -0.4472 -0.7193
 9547TIP3   OH250055   2.921   5.396   3.432 -0.3620 -0.6211 -0.3316
 9547TIP3    H150056   2.856   5.329   3.409  0.0645 -1.3779  0.5938
 9547TIP3    H250057   3.005   5.350   3.428 -0.0019  0.0203 -0.2686
 9548TIP3   OH250058   2.127   5.931  16.639 -0.5461  0.1352 -0.1225
 9548TIP3    H150059   2.140   5.965  16.551 -1.7535 -0.1364 -0.4199
 9548TIP3    H250060   2.138   5.837  16.630 -0.2623  0.1467  0.0995
 9549TIP3   OH250061   6.789   3.447  13.667 -0.0685  0.2799 -0.5698
 9549TIP3    H150062   6.757   3.358  13.680 -0.6262  0.3969 -1.0949
 9549TIP3    H250063   6.800   3.481  13.756  1.8090 -0.8667 -0.3073
 9550TIP3   OH250064   1.430   5.011  14.152 -0.0547 -0.4801 -0.3360
 9550TIP3    H150065   1.445   5.102  14.181 -0.2017 -0.6456  0.2821
 9550TIP3    H250066   1.502   4.962  14.190  1.1484 -0.3327 -2.2843
 9551TIP3   OH250067   0.281   5.821  14.526 -0.7614 -0.3358  0.3236
 9551TIP3    H150068   0.274   5.745  14.583 -1.4003  0.7083  1.7041
 9551TIP3    H250069   0.190   5.845  14.507 -0.5561 -0.4257 -0.8002
 9552TIP3   OH250070   0.230   6.643   1.789  0.4095 -0.1103  0.2031
 9552TIP3    H150071   0.278   6.726   1.799 -0.2278  0.3973 -0.7537
 9552TIP3    H250072   0.150   6.668   1.743 -0.8467 -0.9162  1.8729
 9553TIP3   OH250073   1.713   0.479  12.712  0.1059 -0.1012  0.8018
 9553TIP3    H150074   1.763   0.500  12.791 -0.2667 -0.6624  1.1892
 9553TIP3    H250075   1.749   0.396  12.681 -1.7765 -1.4830  2.1228
 9554TIP3   OH250076   5.598   3.715   2.041 -0.2503 -0.9685  0.3765
 9554TIP3    H150077   5.628   3.663   2.115  0.5662 -0.8196  0.1496
 9554TIP3    H250078   5.558   3.652   1.982  1.6507 -1.5230 -0.3777
 9555TIP3   OH250079   5.455   4.385   0.536 -0.0548 -0.2662  0.1949
 9555TIP3    H150080   5.478   4.314   0.595 -0.9497 -2.0831 -1.5135
 9555TIP3    H250081   5.526   4.448   0.545  0.5485 -1.1520  2.0887
 9556TIP3   OH250082   5.183   0.115   3.401 -0.0749  0.3273  0.0839
 9556TIP3    H150083   5.105   0.168   3.385  1.6064  2.2337 -2.6349
 9556TIP3    H250084   5.152   0.024   3.393 -1.8659  1.0380 -1.8942
 9557TIP3   OH250085   6.866   6.214  16.120 -0.1525 -0.1261 -0.2184
 9557TIP3    H150086   6.870   6.192  16.213  2.3215  1.3939  0.1254
 9557TIP3    H250087   6.885   6.131  16.075 -0.1819 -0.6318  0.6753
 9558TIP3   OH250088   5.849   3.463   4.786 -0.0778  0.4807  0.9761
 9558TIP3    H150089   5.920   3.401   4.771 -1.0824 -0.6354  0.7682
 9558TIP3    H250090   5.883   3.546   4.751  0.1332 -0.5984 -1.6305
 9559TIP3   OH250091   4.896   1.008   2.451  0.4094  0.0588  0.6185
 9559TIP3    H150092   4.934   0.943   2.510  0.2520 -1.0690 -0.4904
 9559TIP3    H250093   4.824   0.962   2.407 -0.4360  1.3142  0.6051
 9560TIP3   OH250094   4.803   3.127   5.295  0.1620 -0.5418 -0.2427
 9560TIP3    H150095   4.714   3.149   5.265  0.4521  0.6945 -0.2699
 9560TIP3    H250096   4.803   3.032   5.303 -1.8805 -0.4538  1.9745
 9561TIP3   OH250097   0.549   0.257   0.014 -0.4008  0.3641 -0.6880
 9561TIP3    H150098   0.477   0.196  -0.003  0.3550 -0.2118 -2.0066
 9561TIP3    H250099   0.591   0.222   0.092 -1.7398  0.9245  0.3314
 9562TIP3   OH250100   4.844   0.790  15.530  0.3750 -0.0901 -0.0014
 9562TIP3    H150101   4.765   0.737  15.530  0.0059  0.3041 -2.8242
 9562TIP3    H250102   4.814   0.878  15.555  0.0349 -0.1067 -0.3368
 9563TIP3   OH250103   4.289   2.646  14.015 -0.3692 -0.7273  0.1820
 9563TIP3    H150104   4.285   2.594  13.934  1.1867 -1.3603  0.4729
 9563TIP3    H250105   4.360   2.606  14.066 -0.1813  0.7201  1.1240
 9564TIP3   OH250106   0.788   5.379  13.720 -0.5722  0.3060  0.0782
 9564TIP3    H150107   0.864   5.353  13.668  1.0484  0.1965  2.3911
 9564TIP3    H250108   0.723   5.310  13.704 -0.1233  0.2233 -1.6664
 9565TIP3   OH250109   6.333   1.472  15.373 -0.5223  0.7483 -0.2341
 9565TIP3    H150110   6.364   1.540  15.433 -2.3384 -0.2227  1.9221
 9565TIP3    H250111   6.260   1.431  15.419 -0.8387 -1.2657 -2.3846
 9566TIP3   OH250112   1.427   0.061  13.056 -0.0853 -0.5123  0.5556
 9566TIP3    H150113   1.509   0.012  13.056 -0.1553 -0.6285  0.3660
 9566TIP3    H250114   1.365   0.004  13.102  0.0082 -0.3081  0.9446
 9567TIP3   OH250115   4.380   1.480   1.874  0.4685  0.4644 -0.0815
 9567TIP3    H150116   4.397   1.455   1.965  2.2471  0.6220 -0.3544
 9567TIP3    H250117   4.326   1.559   1.881  1.1760  0.8835  0.8507
 9568TIP3   OH250118   0.027   4.693  14.188  0.5834 -0.5430  0.4034
 9568TIP3    H150119  -0.061   4.718  14.159  1.2067  1.4718  0.0500
 9568TIP3    H250120   0.029   4.598  14.181 -1.0196 -0.5137 -1.2365
 9569TIP3   OH250121   4.778   5.780   2.978  0.3323  0.0663 -0.0427
 9569TIP3    H150122   4.841   5.849   2.955  0.3526 -0.4065 -1.4753
 9569TIP3    H250123   4.763   5.793   3.071  0.2070  2.1205 -0.2952
 9570TIP3   OH250124   4.312   4.972   4.000  0.1945 -0.3209 -0.3251
 9570TIP3    H150125   4.269   5.051   3.968  0.4618 -0.2358 -0.4786
 9570TIP3    H250126   4.305   4.910   3.927  0.3366 -0.3070 -0.3492
 9571TIP3   OH250127   0.030   3.859  12.802  0.6686  0.0357 -0.5914
 9571TIP3    H150128   0.047   3.932  12.862  3.8477 -0.1197 -1.1270
 9571TIP3    H250129   0.056   3.781  12.851  0.2998 -0.4031 -1.0837
 9572TIP3   OH250130   4.154   2.435  16.262  0.7703  0.0589  0.3841
 9572TIP3    H150131   4.140   2.413  16.354  1.3532 -1.3795  0.1594
 9572TIP3    H250132   4.166   2.350  16.219  0.2364  0.6911 -1.0660
 9573TIP3   OH250133   2.653   0.041   3.160  0.8951  0.1154  0.2511
 9573TIP3    H150134   2.678   0.018   3.071  0.9366 -2.1703  0.7797
 9573TIP3    H250135   2.619   0.130   3.154 -0.8902 -0.6315 -2.3935
 9574TIP3   OH250136   3.605   5.888  11.906 -0.4786  0.7806 -0.4961
 9574TIP3    H150137   3.677   5.830  11.881 -0.9791  0.0903 -0.3593
 9574TIP3    H250138   3.640   5.976  11.896  0.3410  0.4492 -0.5595
 9575TIP3   OH250139   3.138   0.404  16.657  0.4599  0.2330 -0.1998
 9575TIP3    H150140   3.121   0.494  16.629  1.1758  0.5596  0.4116
 9575TIP3    H250141   3.121   0.352  16.578 -0.0305  0.8862 -0.5395
 9576TIP3   OH250142   2.171   0.661  16.498  0.2254 -0.2735 -0.0948
 9576TIP3    H150143   2.225   0.605  16.555 -1.1805 -2.4529 -0.7771
 9576TIP3    H250144   2.217   0.662  16.415  0.6330  0.2199  0.1330
 9577TIP3   OH250145   4.798   4.603  12.597  0.2226  0.0859 -0.2298
 9577TIP3    H150146   4.801   4.529  12.658  1.0231  0.4796  0.2184
 9577TIP3    H250147   4.801   4.562  12.511  1.1707 -0.3896  0.0198
 9578TIP3   OH250148   3.863   6.304  13.415  0.0751 -0.2214  0.1028
 9578TIP3    H150149   3.850   6.369  13.484  0.6439  0.9967 -0.8970
 9578TIP3    H250150   3.958   6.300  13.404 -0.0397  0.0649 -1.0313
 9579TIP3   OH250151   6.375   6.361   2.898  0.0093 -0.2159  0.4911
 9579TIP3    H150152   6.456   6.316   2.876  0.8410  1.4259  0.0487
 9579TIP3    H250153   6.360   6.339   2.990  0.9085 -0.6067  0.5568
 9580TIP3   OH250154   6.579   2.725  10.045  0.0323  0.0809  0.2543
 9580TIP3    H150155   6.606   2.646   9.998  1.0759 -0.1796  1.2462
 9580TIP3    H250156   6.602   2.797   9.986  0.2125 -0.2924 -0.1372
 9581TIP3   OH250157   3.080   1.520   4.174 -0.1017 -0.0023 -0.5991
 9581TIP3    H150158   2.986   1.540   4.176 -0.3384 -0.3587 -3.6553
 9581TIP3    H250159   3.122   1.605   4.160 -0.2344 -0.1694 -2.1562
 9582TIP3   OH250160   2.692   5.443   0.923 -0.1295  0.6222 -0.2377
 9582TIP3    H150161   2.608   5.486   0.905 -0.2064  0.0762 -1.2529
 9582TIP3    H250162   2.751   5.515   0.947 -1.5491  0.7587  3.3244
 9583TIP3   OH250163   6.293   3.263  16.481 -0.2555  0.2994 -0.1954
 9583TIP3    H150164   6.307   3.176  16.518 -0.1185  0.1870 -0.5140
 9583TIP3    H250165   6.344   3.264  16.400  0.9785  1.1839  0.5498
 9584TIP3   OH250166   6.250   5.389   1.252  0.1121 -0.0244 -0.0951
 9584TIP3    H150167   6.307   5.429   1.319 -0.4957  0.2313  0.2803
 9584TIP3    H250168   6.288   5.416   1.169 -0.4563  1.6291  0.1442
 9585TIP3   OH250169   6.204   6.818  13.698 -0.1809 -0.9691 -0.0809
 9585TIP3    H150170   6.234   6.746  13.754  0.5111 -2.3372 -2.0606
 9585TIP3    H250171   6.201   6.779  13.610  2.3598  1.9842 -1.6379
 9586TIP3   OH250172   4.679   0.396   2.953  0.6663  0.1912 -0.1930
 9586TIP3    H150173   4.748   0.456   2.980  1.9597 -0.3285 -2.1486
 9586TIP3    H250174   4.653   0.427   2.866 -1.7691  0.4943  0.5480
 9587TIP3   OH250175   3.522   6.230   1.865 -0.2613 -0.2341  0.2679
 9587TIP3    H150176   3.542   6.324   1.867  4.0336 -0.9165  3.1168
 9587TIP3    H250177   3.553   6.201   1.779  0.3074  0.6772  0.1425
 9588TIP3   OH250178   2.185   0.726  13.229  0.0770 -0.3932  0.0487
 9588TIP3    H150179   2.146   0.786  13.165  0.6509 -0.7765 -0.6783
 9588TIP3    H250180   2.279   0.742  13.223  0.1212 -0.1582  1.0935
 9589TIP3   OH250181   1.633   3.008  13.595  0.2298  0.1594 -0.1289
 9589TIP3    H150182   1.568   2.963  13.649 -0.2428  0.8379 -0.1266
 9589TIP3    H250183   1.612   3.101  13.603  0.7812  0.3414 -0.6687
 9590TIP3   OH250184   3.753   1.105   2.055 -0.4421 -0.0227 -0.2055
 9590TIP3    H150185   3.831   1.064   2.016  0.2658 -1.0153  2.0735
 9590TIP3    H250186   3.776   1.197   2.063 -0.3915  0.0989 -1.5610
 9591TIP3   OH250187   5.336   5.205  13.983  0.4230 -0.0280  0.2525
 9591TIP3    H150188   5.415   5.259  13.978  0.3641 -0.0319 -1.1440
 9591TIP3    H250189   5.301   5.222  14.071  0.2078  2.5153 -0.2431
 9592TIP3   OH250190   5.606   4.690   2.730 -0.0082 -0.0787  0.3320
 9592TIP3    H150191   5.576   4.599   2.728  0.0903 -0.1738  1.7281
 9592TIP3    H250192   5.530   4.741   2.703 -0.3715 -0.5205  0.4989
 9593TIP3   OH250193   2.855   5.948   5.571 -0.4282  0.4756 -0.0523
 9593TIP3    H150194   2.874   6.035   5.607 -1.1969  0.7379 -0.2661
 9593TIP3    H250195   2.835   5.894   5.648 -1.7955  0.9634 -0.0485
 9594TIP3   OH250196   2.925   3.053  10.875  0.6387 -0.1028  0.5591
 9594TIP3    H150197   2.885   2.972  10.908 -0.1792  0.6475  1.4942
 9594TIP3    H250198   2.993   3.023  10.815 -1.4839 -1.4532 -1.3367
 9595TIP3   OH250199   2.882   6.115  15.306 -0.2134  0.2825 -0.3148
 9595TIP3    H150200   2.867   6.081  15.394 -1.3328 -1.3014 -1.0775
 9595TIP3    H250201   2.799   6.156  15.281 -0.2631 -0.2434 -1.0346
 9596TIP3   OH250202   0.770   1.175   1.338  0.1294  0.1010 -0.5369
 9596TIP3    H150203   0.754   1.245   1.402  3.4248 -0.2281  0.8466
 9596TIP3    H250204   0.721   1.100   1.373 -1.5518  1.0065 -0.7952
 9597TIP3   OH250205   5.787   4.032   3.479 -0.2467 -0.3174  0.1866
 9597TIP3    H150206   5.698   4.021   3.511 -0.2939  0.6295  0.4218
 9597TIP3    H250207   5.830   4.087   3.545  0.2163  0.0584 -0.4088
 9598TIP3   OH250208   1.076   5.553  13.183 -0.2408 -0.3052 -0.1515
 9598TIP3    H150209   1.011   5.492  13.219  0.2250 -0.2916  0.7574
 9598TIP3    H250210   1.099   5.610  13.257 -0.1128  0.4933 -0.7911
 9599TIP3   OH250211   4.600   2.573   0.694 -0.3172 -0.0572 -0.7281
 9599TIP3    H150212   4.539   2.501   0.677  0.0891 -1.0511  1.5978
 9599TIP3    H250213   4.543   2.648   0.710 -0.8367 -0.3321 -1.2382
 9600TIP3   OH250214   6.177   2.067   5.419 -0.0846  0.3243 -0.6075
 9600TIP3    H150215   6.179   2.063   5.515 -0.9046  1.4650 -0.5076
 9600TIP3    H250216   6.128   1.989   5.393  0.8967 -0.4610 -0.1686
 9601TIP3   OH250217   3.344   1.698  11.283  0.1051 -0.1023 -0.0074
 9601TIP3    H150218   3.368   1.641  11.356 -2.1211 -0.6996  0.3107
 9601TIP3    H250219   3.375   1.652  11.205  1.2248 -0.1455  0.4455
 9602TIP3   OH250220   0.853   5.501  16.449  0.1858 -0.1877 -0.0848
 9602TIP3    H150221   0.811   5.586  16.433 -0.0481 -0.6027 -1.8508
 9602TIP3    H250222   0.781   5.438  16.449  0.5198 -0.5785 -0.4640
 9603TIP3   OH250223   1.633   4.042   4.651  0.1507 -0.0826  0.0811
 9603TIP3    H150224   1.584   4.123   4.666  1.1680  0.2096  2.3311
 9603TIP3    H250225   1.567   3.973   4.655 -0.4049  0.4666  0.7384
 9604TIP3   OH250226   6.476   4.663   4.234  0.1267  0.3684  0.3315
 9604TIP3    H150227   6.454   4.594   4.296  2.7433 -1.3779 -0.5088
 9604TIP3    H250228   6.450   4.629   4.148  1.4233  0.3703 -0.0914
 9605TIP3   OH250229   2.859   0.774  12.861  0.6678  0.2875 -0.2819
 9605TIP3    H150230   2.780   0.733  12.827 -0.4617  0.9854  1.3506
 9605TIP3    H250231   2.852   0.764  12.956  2.3996  0.6335 -0.0836
 9606TIP3   OH250232   0.742   1.148  11.678  0.0399 -0.1294  0.0061
 9606TIP3    H150233   0.678   1.116  11.741 -0.4452  2.2332  0.8357
 9606TIP3    H250234   0.827   1.131  11.719 -0.1195 -1.5080 -0.2059
 9607TIP3   OH250235   0.803   0.635  15.524 -0.3281  0.2041  0.4865
 9607TIP3    H150236   0.812   0.707  15.586 -1.0748  2.8305 -2.1716
 9607TIP3    H250237   0.877   0.647  15.464 -0.5065 -1.2350 -0.0455
 9608TIP3   OH250238   6.181   5.538  15.687 -0.3019  0.2680  0.2393
 9608TIP3    H150239   6.200   5.575  15.773 -0.5449  1.0058 -0.0207
 9608TIP3    H250240   6.125   5.603  15.644  2.1922  1.3631 -1.6143
 9609TIP3   OH250241   5.741   5.558   0.513  0.8414  0.0733 -0.7029
 9609TIP3    H150242   5.824   5.549   0.560 -0.7243  1.2656  2.5845
 9609TIP3    H250243   5.704   5.640   0.545 -3.8543 -2.7071  2.0334
 9610TIP3   OH250244   4.185   1.854  12.757  0.0173  0.7589 -0.8670
 9610TIP3    H150245   4.236   1.863  12.837 -0.6811  2.0881 -0.5487
 9610TIP3    H250246   4.176   1.759  12.745  0.8109  0.5334  0.1717
 9611TIP3   OH250247   1.776   3.216   3.285  0.1504  0.5625  0.0177
 9611TIP3    H150248   1.814   3.304   3.290  2.1077 -0.1646 -0.7673
 9611TIP3    H250249   1.846   3.163   3.246 -0.9345 -1.3690  0.5979
 9612TIP3   OH250250   5.508   0.112  10.594  0.1803  0.6841 -0.4713
 9612TIP3    H150251   5.560   0.185  10.561 -1.5520  1.3400 -1.9361
 9612TIP3    H250252   5.429   0.112  10.540 -0.7774 -1.0540  0.7999
 9613TIP3   OH250253   0.667   3.835   9.913 -0.5074 -0.4503 -0.1470
 9613TIP3    H150254   0.742   3.787   9.879  0.4201  0.2935  0.7856
 9613TIP3    H250255   0.677   3.831  10.008 -0.3745  1.5676 -0.0203
 9614TIP3   OH250256   1.797   5.006   4.484 -0.1333 -0.0844 -0.0721
 9614TIP3    H150257   1.757   5.021   4.398  0.0063 -0.5612 -0.2253
 9614TIP3    H250258   1.878   5.057   4.481 -1.2902  1.9090  0.7077
 9615TIP3   OH250259   0.139   4.466   5.454  0.3385  0.0931 -0.0369
 9615TIP3    H150260   0.151   4.530   5.525 -0.3335  1.1606 -0.8708
 9615TIP3    H250261   0.058   4.491   5.412  0.1133 -1.2679 -0.4609
 9616TIP3   OH250262   5.272   5.278   4.605  0.1020  0.0294 -0.1440
 9616TIP3    H150263   5.316   5.195   4.623  2.8543  1.1026 -1.3489
 9616TIP3    H250264   5.315   5.341   4.662  0.0966  1.1340 -1.3036
 9617TIP3   OH250265   0.729   0.911  10.305  0.3507 -0.2517  0.1827
 9617TIP3    H150266   0.654   0.873  10.351  0.4262  0.6169  1.0519
 9617TIP3    H250267   0.755   0.844  10.243 -1.0474 -0.6355 -0.0231
 9618TIP3   OH250268   0.214   5.139   5.794  0.1238  0.1196  0.7908
 9618TIP3    H150269   0.303   5.124   5.826  0.6775  0.0120 -0.7557
 9618TIP3    H250270   0.225   5.180   5.708 -1.2202 -3.7510 -1.4546
 9619TIP3   OH250271   0.878   0.375  14.101  0.7633 -0.0700 -0.1440
 9619TIP3    H150272   0.862   0.307  14.035  1.1888 -0.2004 -0.1199
 9619TIP3    H250273   0.966   0.408  14.079  1.2207 -0.6264  0.8045
 9620TIP3   OH250274   2.750   2.368   1.433  0.4122 -0.1136  0.6105
 9620TIP3    H150275   2.805   2.314   1.377 -0.1995 -0.7471  0.6037
 9620TIP3    H250276   2.666   2.322   1.436 -0.4277  1.2993 -0.1100
 9621TIP3   OH250277   6.694   1.223  15.135  0.1564  0.3091  0.0351
 9621TIP3    H150278   6.755   1.253  15.202 -0.1449  1.3169 -0.1297
 9621TIP3    H250279   6.690   1.128  15.147 -0.0237  0.4860  1.5508
 9622TIP3   OH250280   4.712   0.132   5.380 -0.5407 -0.6738 -0.1767
 9622TIP3    H150281   4.769   0.197   5.339 -0.5033 -1.7586 -1.9658
 9622TIP3    H250282   4.624   0.167   5.370 -0.3329  0.9443  2.4749
 9623TIP3   OH250283   3.259   5.137  11.114 -0.2659 -0.0846 -0.7227
 9623TIP3    H150284   3.288   5.227  11.099 -1.9366  0.5811 -0.1190
 9623TIP3    H250285   3.257   5.128  11.209  0.8159 -1.0979 -0.7719
 9624TIP3   OH250286   3.965   4.093   2.647  0.2405  0.2430 -0.1980
 9624TIP3    H150287   3.973   4.067   2.556 -2.0726 -1.9341  0.0977
 9624TIP3    H250288   4.013   4.027   2.696 -0.3015  0.1601  0.2406
 9625TIP3   OH250289   0.242   2.115   0.059 -0.0033 -0.2105 -0.3852
 9625TIP3    H150290   0.309   2.158   0.112  2.1784 -2.8573 -0.7481
 9625TIP3    H250291   0.191   2.063   0.122 -1.0291  0.9257 -0.2523
 9626TIP3   OH250292   4.791   3.649  16.111  0.4209 -0.3651 -0.1207
 9626TIP3    H150293   4.845   3.572  16.098  1.8612  0.9144 -2.4648
 9626TIP3    H250294   4.845   3.722  16.079 -0.9804  1.6005  1.6830
 9627TIP3   OH250295   0.857   2.257  12.749 -0.2657  0.2955 -0.1565
 9627TIP3    H150296   0.937   2.302  12.774  2.0824 -2.5863 -1.8258
 9627TIP3    H250297   0.855   2.179  12.805 -2.4875  0.7749  0.5249
 9628TIP3   OH250298   6.337   0.702   3.453 -0.0055 -0.0405  0.0297
 9628TIP3    H150299   6.410   0.650   3.487  1.3278  1.7564  0.1091
 9628TIP3    H250300   6.258   0.656   3.482  1.1016 -0.9217  1.8018
 9629TIP3   OH250301   0.808   0.146   5.241  0.1382 -0.4352  0.3414
 9629TIP3    H150302   0.806   0.051   5.251 -0.1786 -0.3371  1.2192
 9629TIP3    H250303   0.754   0.163   5.163  1.7393 -1.1040 -0.9827
 9630TIP3   OH250304   3.486   6.077   2.731  0.3340 -0.0271 -0.8630
 9630TIP3    H150305   3.546   6.150   2.745  1.2859 -0.6405 -1.5471
 9630TIP3    H250306   3.419   6.112   2.672  0.2311  0.5640 -0.3990
 9631TIP3   OH250307   1.552   2.149  14.268  0.2781 -0.6395  0.4489
 9631TIP3    H150308   1.571   2.180  14.356 -1.5950  2.0547  0.0449
 9631TIP3    H250309   1.612   2.197  14.212 -0.3792 -0.2483  0.0640
 9632TIP3   OH250310   3.841   2.481   1.995  0.0893  0.7573  0.2011
 9632TIP3    H150311   3.826   2.553   1.934  0.2295  1.6917  1.2355
 9632TIP3    H250312   3.766   2.483   2.054 -0.1221 -0.2275 -0.0204
 9633TIP3   OH250313   0.585   2.017   3.346 -0.5611  0.1245 -0.3848
 9633TIP3    H150314   0.606   2.107   3.321  0.2557 -0.3335 -1.4610
 9633TIP3    H250315   0.532   1.984   3.274 -1.9382  0.1018  0.5934
 9634TIP3   OH250316   3.133   6.764  13.452 -0.2662 -0.0253  0.1051
 9634TIP3    H150317   3.114   6.670  13.450  1.0264 -0.3501  1.2601
 9634TIP3    H250318   3.221   6.769  13.489 -0.0217  1.6194 -0.6371
 9635TIP3   OH250319   2.174   6.301  11.205  0.0255  0.0375 -0.4694
 9635TIP3    H150320   2.081   6.283  11.216 -0.0406 -1.4745 -2.7419
 9635TIP3    H250321   2.180   6.397  11.205 -2.0438  0.3025 -3.0710
 9636TIP3   OH250322   6.892   2.328  10.474 -0.2506 -0.1702  1.0006
 9636TIP3    H150323   6.853   2.415  10.480  0.9902  0.3625  2.1152
 9636TIP3    H250324   6.986   2.345  10.466 -0.1380 -1.4000 -0.7536
 9637TIP3   OH250325   0.187   6.580  11.821 -0.4142 -1.0260  0.0256
 9637TIP3    H150326   0.102   6.568  11.779 -0.5261 -0.4597  0.0756
 9637TIP3    H250327   0.175   6.546  11.910 -0.4704 -1.3117 -0.0906
 9638TIP3   OH250328   0.259   3.168  16.224  0.0346  0.1730 -0.8666
 9638TIP3    H150329   0.340   3.141  16.180 -1.0315 -1.9899 -1.7026
 9638TIP3    H250330   0.288   3.220  16.298  2.1514  0.1160 -1.5750
 9639TIP3   OH250331   6.694   2.791   4.098 -0.3733  0.1866 -0.7520
 9639TIP3    H150332   6.738   2.706   4.100 -0.6896  0.0166 -0.8454
 9639TIP3    H250333   6.747   2.847   4.155 -0.3081 -0.1487 -0.4748
 9640TIP3   OH250334   4.259   4.409  10.871  1.0124 -0.2499  0.4261
 9640TIP3    H150335   4.266   4.486  10.927  0.0712  0.0461  0.1527
 9640TIP3    H250336   4.196   4.353  10.915  1.5406 -0.7854  0.5192
 9641TIP3   OH250337   1.887   1.532   0.597 -0.4657 -0.5016  0.1585
 9641TIP3    H150338   1.974   1.493   0.607  0.0381  0.4895 -0.1715
 9641TIP3    H250339   1.839   1.471   0.542 -0.3576 -1.6129  1.2548
 9642TIP3   OH250340   5.916   6.864   5.566  0.4202 -0.1712  0.0906
 9642TIP3    H150341   5.823   6.841   5.560  0.4321  0.0515 -1.7025
 9642TIP3    H250342   5.918   6.960   5.566  0.6688 -0.1351 -1.7418
 9643TIP3   OH250343   1.648   6.349  15.498 -0.4289 -0.0952 -0.0663
 9643TIP3    H150344   1.674   6.431  15.455 -0.2173 -0.3565 -0.4482
 9643TIP3    H250345   1.721   6.329  15.557  0.5807 -1.1420 -1.5745
 9644TIP3   OH250346   3.031   4.014   5.672 -0.4071 -0.0076  0.0483
 9644TIP3    H150347   3.018   4.074   5.599  0.8374 -0.5477 -0.6487
 9644TIP3    H250348   3.107   3.961   5.647 -0.1025 -0.3728  1.6217
 9645TIP3   OH250349   2.653   6.859  16.449 -0.2340 -0.0315  0.3423
 9645TIP3    H150350   2.701   6.916  16.508  0.9455  0.5935 -1.1478
 9645TIP3    H250351   2.585   6.819  16.504  1.4576 -0.3336  2.3590
 9646TIP3   OH250352   2.639   0.002  15.013  0.1507  0.6767 -0.1816
 9646TIP3    H150353   2.544  -0.005  15.011  0.2303 -0.4909 -1.5945
 9646TIP3    H250354   2.667  -0.074  15.064  0.3422  1.0951  0.3524
 9647TIP3   OH250355   3.284   0.129   5.419 -0.2367 -0.6041 -0.6909
 9647TIP3    H150356   3.280   0.221   5.442  0.0679 -0.5678 -0.7768
 9647TIP3    H250357   3.234   0.085   5.487  1.0613 -0.5466  0.3415
 9648TIP3   OH250358   0.167   2.754  10.809  0.3530 -0.0187 -0.0279
 9648TIP3    H150359   0.078   2.721  10.795 -1.1070  1.2744  4.4742
 9648TIP3    H250360   0.175   2.829  10.750 -1.3759 -0.4330 -0.8425
 9649TIP3   OH250361   5.873   0.367  15.679  0.0514  0.1863  0.3615
 9649TIP3    H150362   5.841   0.380  15.589  3.1022 -0.3765 -0.9245
 9649TIP3    H250363   5.799   0.391  15.734 -1.2315  2.9133 -2.2293
 9650TIP3   OH250364   6.684   0.038  12.420 -0.0849 -0.5894 -0.0026
 9650TIP3    H150365   6.607   0.081  12.458 -0.8718 -0.0462 -2.1016
 9650TIP3    H250366   6.732   0.109  12.378  1.1102 -1.0770  0.5117
 9651TIP3   OH250367   5.052   6.540   1.659  0.2118  0.2198 -0.9539
 9651TIP3    H150368   5.133   6.500   1.689 -0.7597  0.3064  2.1246
 9651TIP3    H250369   4.989   6.467   1.656 -1.0630  0.9095  2.8139
 9652TIP3   OH250370   2.429   1.132   0.792  0.0612 -0.1289 -0.2242
 9652TIP3    H150371   2.407   1.053   0.743 -1.5879 -0.1028  0.4293
 9652TIP3    H250372   2.488   1.181   0.734 -0.2158 -1.0526 -1.3110
 9653TIP3   OH250373   2.709   5.903  10.136 -0.1562 -0.0368 -0.6978
 9653TIP3    H150374   2.734   5.995  10.126  0.4877 -0.0033  0.9194
 9653TIP3    H250375   2.753   5.858  10.064 -2.6838  1.2271 -3.2400
 9654TIP3   OH250376   6.290   0.181   0.853 -0.2573 -0.3352 -0.8127
 9654TIP3    H150377   6.378   0.181   0.816  0.0177 -0.3845 -0.1777
 9654TIP3    H250378   6.242   0.246   0.801  0.5061  0.6026 -0.3755
 9655TIP3   OH250379   1.676   5.875   4.491  0.0449  0.1765 -0.2976
 9655TIP3    H150380   1.768   5.859   4.513  0.1126  0.4302 -0.3902
 9655TIP3    H250381   1.666   5.970   4.496  0.0869  0.2607 -1.4416
 9656TIP3   OH250382   0.170   2.638  15.637 -0.0642  0.5065  0.3095
 9656TIP3    H150383   0.190   2.705  15.572  2.1084 -0.0359  0.3579
 9656TIP3    H250384   0.182   2.682  15.721  3.4848 -0.3417  0.4016
 9657TIP3   OH250385   6.789   2.992  11.142 -0.3567 -0.6380 -0.1911
 9657TIP3    H150386   6.854   2.994  11.071  1.5660 -1.2764  1.4516
 9657TIP3    H250387   6.716   3.043  11.109  1.0396  0.2533 -2.0925
 9658TIP3   OH250388   3.368   1.598   4.827  0.1542  0.2368 -0.0539
 9658TIP3    H150389   3.386   1.647   4.907  1.0951  1.4014 -0.9493
 9658TIP3    H250390   3.448   1.606   4.775 -0.6360 -0.0058 -1.3623
 9659TIP3   OH250391   0.275   5.105   3.559 -0.2191 -0.4019 -0.5005
 9659TIP3    H150392   0.248   5.103   3.467  1.4011  1.0915 -1.0676
 9659TIP3    H250393   0.343   5.172   3.563  1.2372 -1.8435  1.3868
 9660TIP3   OH250394   0.023   0.457   4.428 -0.4925  0.0425  0.2129
 9660TIP3    H150395   0.098   0.489   4.478 -1.4851  2.9243  0.0065
 9660TIP3    H250396   0.046   0.367   4.405  2.5594  0.5861  0.7845
 9661TIP3   OH250397   4.305   4.626  11.033 -0.1547  0.1481  0.1277
 9661TIP3    H150398   4.332   4.716  11.014 -1.5541  0.8560  1.2366
 9661TIP3    H250399   4.210   4.627  11.023 -0.2727 -0.9913  0.9492
 9662TIP3   OH250400   5.152   0.999   1.905 -0.2576  0.0545 -0.4061
 9662TIP3    H150401   5.076   0.946   1.926  0.4046 -0.7169  0.0853
 9662TIP3    H250402   5.227   0.944   1.927  0.4478  0.7458 -1.0089
 9663TIP3   OH250403   2.932   4.840  11.730 -0.2099  0.1535  0.0402
 9663TIP3    H150404   2.881   4.863  11.807 -0.8547  0.5473 -0.4898
 9663TIP3    H250405   2.926   4.745  11.725 -0.4715  0.1554  0.2745
 9664TIP3   OH250406   2.113   1.735  14.622 -0.3441  0.2099 -0.1195
 9664TIP3    H150407   2.098   1.653  14.575  2.7263 -0.2483 -0.5451
 9664TIP3    H250408   2.208   1.747  14.618 -0.4153  2.4020  2.2841
 9665TIP3   OH250409   1.067   5.405   1.968 -0.3330  0.2338  0.0964
 9665TIP3    H150410   1.016   5.356   2.033 -1.9461  2.5938  0.7439
 9665TIP3    H250411   1.134   5.343   1.938 -0.9596 -1.6629  2.3265
 9666TIP3   OH250412   6.596   3.043  15.300  0.0085  0.3347  0.3633
 9666TIP3    H150413   6.588   3.091  15.218  0.6352  1.6868  1.0618
 9666TIP3    H250414   6.558   2.957  15.281 -0.2659  0.7644 -1.1994
 9667TIP3   OH250415   2.125   2.115  12.787  0.5233  0.1586  0.0537
 9667TIP3    H150416   2.203   2.168  12.771 -0.3654  2.0347  1.5649
 9667TIP3    H250417   2.067   2.136  12.714  0.6344  0.3259  0.0120
 9668TIP3   OH250418   3.263   4.603  12.510 -0.2484  0.0179 -0.1841
 9668TIP3    H150419   3.326   4.668  12.480  1.4898 -1.1206  0.8005
 9668TIP3    H250420   3.260   4.614  12.605  0.3164 -1.5032  0.0433
 9669TIP3   OH250421   1.975   3.613   1.431  0.3362  0.3726  0.2399
 9669TIP3    H150422   1.901   3.555   1.446 -0.3427  1.4118  1.0840
 9669TIP3    H250423   1.963   3.646   1.342 -0.5010  0.9186  0.5496
 9670TIP3   OH250424   1.849   2.846  15.785  0.2612  0.0241 -0.2881
 9670TIP3    H150425   1.923   2.788  15.768 -0.3809 -0.8821 -0.0587
 9670TIP3    H250426   1.888   2.924  15.824  1.1858 -0.0573 -1.0057
 9671TIP3   OH250427   1.624   2.003  14.565 -0.0523  0.0684 -0.0391
 9671TIP3    H150428   1.690   2.040  14.623 -0.9629 -1.4218  2.0862
 9671TIP3    H250429   1.672   1.942  14.509  0.7304  0.9731 -0.3767
 9672TIP3   OH250430   6.605   6.766   3.747 -0.2412  0.2146 -0.2588
 9672TIP3    H150431   6.564   6.852   3.751  0.9283  0.7748  0.1753
 9672TIP3    H250432   6.693   6.783   3.713  0.7302 -0.5027  1.7319
 9673TIP3   OH250433   0.194   5.118   1.670 -0.5311  0.8912  0.3419
 9673TIP3    H150434   0.149   5.070   1.740 -1.6037  0.2695 -0.7360
 9673TIP3    H250435   0.231   5.195   1.714  1.4427 -0.9849  2.1753
 9674TIP3   OH250436   4.049   4.701   1.746  0.5666  0.7657 -0.3160
 9674TIP3    H150437   4.056   4.719   1.840  1.8139  2.7868 -0.7209
 9674TIP3    H250438   4.077   4.783   1.704  1.3841 -0.5180 -2.4547
 9675TIP3   OH250439   2.035   5.043   2.096 -0.0216  0.1114  0.2378
 9675TIP3    H150440   2.115   5.029   2.147  1.3818  1.1792 -1.5194
 9675TIP3    H250441   2.019   4.960   2.052  0.1867 -0.0804  0.5241
 9676TIP3   OH250442   0.462   1.627  13.568  0.4186  0.3640  0.5878
 9676TIP3    H150443   0.485   1.656  13.656 -0.9455  2.1748  0.3859
 9676TIP3    H250444   0.545   1.627  13.520  0.6547  3.3084  0.8172
 9677TIP3   OH250445   3.163   1.018   5.856  0.0000 -0.2658  0.1429
 9677TIP3    H150446   3.218   0.943   5.877  1.6693  1.1766  1.2111
 9677TIP3    H250447   3.088   1.010   5.915 -0.7178 -1.9527 -0.9307
 9678TIP3   OH250448   1.210   4.070  15.372 -0.1569  0.3395  0.2769
 9678TIP3    H150449   1.261   4.028  15.441 -0.4872  1.6954  1.3848
 9678TIP3    H250450   1.136   4.011  15.357  0.7382 -0.7392 -0.0646
 9679TIP3   OH250451   3.289   6.764  15.264  0.0169  0.1723  0.0388
 9679TIP3    H150452   3.324   6.820  15.332 -0.1900 -0.3557  0.5897
 9679TIP3    H250453   3.260   6.824  15.195 -0.5388  0.7612  0.7762
 9680TIP3   OH250454   0.556   3.955   3.703  0.5514  0.8270  0.3795
 9680TIP3    H150455   0.517   3.890   3.644 -0.0791  0.9933  0.6118
 9680TIP3    H250456   0.565   3.910   3.787 -0.2554  1.1619  0.6480
 9681TIP3   OH250457   4.547   3.311  11.728 -0.2813  0.1841  0.1945
 9681TIP3    H150458   4.597   3.318  11.646 -0.1135  0.2471  0.3013
 9681TIP3    H250459   4.509   3.224  11.726  1.1872 -0.5106  0.8877
 9682TIP3   OH250460   2.520   1.717  10.790  0.1873 -0.3361 -0.1465
 9682TIP3    H150461   2.456   1.737  10.721  1.2854 -0.7868 -1.3420
 9682TIP3    H250462   2.549   1.628  10.771  0.9290 -0.2561  0.5557
 9683TIP3   OH250463   2.924   3.764   3.924 -0.0097  0.2196 -0.1814
 9683TIP3    H150464   2.855   3.826   3.903  0.3700  1.5131  2.0950
 9683TIP3    H250465   2.993   3.817   3.964 -0.5111 -1.7590  3.8163
 9684TIP3   OH250466   0.439   3.292   2.030  0.2047  0.0830  0.3996
 9684TIP3    H150467   0.513   3.351   2.017 -0.2127  1.1047  2.3276
 9684TIP3    H250468   0.363   3.350   2.037 -0.7327 -0.9209 -1.0211
 9685TIP3   OH250469   0.593   4.801   3.230  0.0279  0.6717 -0.2278
 9685TIP3    H150470   0.536   4.873   3.202 -1.0529  0.2907  0.8730
 9685TIP3    H250471   0.532   4.733   3.258  1.0394  0.3084  1.1736
 9686TIP3   OH250472   4.455   6.712   4.271  0.6462  0.0131  0.2302
 9686TIP3    H150473   4.469   6.717   4.366  2.1858 -0.4807  0.0566
 9686TIP3    H250474   4.532   6.755   4.234 -0.0418  0.3730 -0.8096
 9687TIP3   OH250475   1.312   4.911   3.976 -0.4597 -0.4294  0.1623
 9687TIP3    H150476   1.377   4.954   3.920 -0.3459 -1.0488 -0.1905
 9687TIP3    H250477   1.235   4.968   3.972  0.0757  0.3529  0.6424
 9688TIP3   OH250478   1.507   1.832  10.899  0.0313  0.0965 -0.3390
 9688TIP3    H150479   1.437   1.863  10.958 -1.5813 -1.3738 -1.3848
 9688TIP3    H250480   1.474   1.749  10.865  2.8657 -1.2781  0.0460
 9689TIP3   OH250481   1.471   4.764   0.383 -0.1427  0.2693 -0.7216
 9689TIP3    H150482   1.472   4.707   0.460  0.5947  0.8287 -0.3052
 9689TIP3    H250483   1.550   4.741   0.335  0.4729  1.3219 -0.2485
 9690TIP3   OH250484   5.081   4.577  10.795  0.4412  0.4812  0.0970
 9690TIP3    H150485   5.011   4.630  10.757 -1.2862 -1.1832  0.7689
 9690TIP3    H250486   5.119   4.530  10.721 -0.7385 -0.3284 -0.0216
 9691TIP3   OH250487   2.913   5.383  15.774 -0.4921 -0.0163 -0.0268
 9691TIP3    H150488   2.844   5.387  15.708 -1.8313 -2.2294  1.1203
 9691TIP3    H250489   2.907   5.294  15.810  0.9295  0.7280  2.2845
 9692TIP3   OH250490   3.159   4.329   0.226  0.1543  0.1280  0.0120
 9692TIP3    H150491   3.117   4.371   0.301 -0.2381 -0.4862  0.1419
 9692TIP3    H250492   3.153   4.394   0.155  0.7525  0.8152  0.5660
 9693TIP3   OH250493   4.957   2.276  11.947 -0.4206 -0.2508  0.0220
 9693TIP3    H150494   4.988   2.298  11.860 -0.1140 -1.6650 -0.2377
 9693TIP3    H250495   5.033   2.286  12.004 -0.2205 -0.8748 -0.1353
 9694TIP3   OH250496   5.628   2.837  12.625 -0.3679 -0.3691  0.4323
 9694TIP3    H150497   5.723   2.829  12.632 -0.1388  0.3963 -1.2341
 9694TIP3    H250498   5.603   2.891  12.700  0.4817 -0.7727  1.0167
 9695TIP3   OH250499   1.199   3.842   0.977  0.1263 -0.2773  0.2013
 9695TIP3    H150500   1.237   3.810   0.896  1.3750 -1.2752  1.1429
 9695TIP3    H250501   1.115   3.879   0.951 -0.1896 -1.9405 -1.3466
 9696TIP3   OH250502   1.613   5.738  15.847 -0.1350 -0.1709  0.1297
 9696TIP3    H150503   1.628   5.781  15.931 -3.4678 -0.9210  1.2810
 9696TIP3    H250504   1.536   5.781  15.811 -1.5165 -2.7650 -0.3078
 9697TIP3   OH250505   6.622   1.607  14.794 -0.5214  0.1783  0.1034
 9697TIP3    H150506   6.574   1.554  14.857  4.2908 -1.0876  3.2920
 9697TIP3    H250507   6.678   1.545  14.748  0.3099  1.7814 -1.1601
 9698TIP3   OH250508   2.430   4.974   5.735  0.2562  0.0115 -0.1328
 9698TIP3    H150509   2.525   4.980   5.743  0.3073 -0.1705 -0.5841
 9698TIP3    H250510   2.398   4.976   5.825  0.6578  0.5284  0.0038
 9699TIP3   OH250511   3.649   6.354  15.939  0.4496 -0.0204  0.0377
 9699TIP3    H150512   3.713   6.318  16.001 -0.9288 -0.4971  1.2218
 9699TIP3    H250513   3.628   6.441  15.975  0.3680  0.1023 -0.3038
 9700TIP3   OH250514   1.313   6.461   9.831 -0.2924  0.1476  0.6019
 9700TIP3    H150515   1.369   6.465   9.754  2.3755  1.5948  2.4708
 9700TIP3    H250516   1.258   6.539   9.824 -2.0072 -1.0999 -1.0620
 9701TIP3   OH250517   6.749   2.938  13.991  0.0636  0.0604  0.4182
 9701TIP3    H150518   6.790   2.913  14.074  1.5944 -1.3334 -0.6949
 9701TIP3    H250519   6.765   3.032  13.983  1.3763 -0.1075  0.9139
 9702TIP3   OH250520   2.070   0.925   4.056 -0.0407 -1.0325 -0.3715
 9702TIP3    H150521   2.024   0.842   4.061  2.5988 -2.5310  2.6497
 9702TIP3    H250522   2.059   0.965   4.142 -0.4213  1.3466 -1.4315
 9703TIP3   OH250523   5.031   5.155   3.646  0.7004  0.4953  0.2572
 9703TIP3    H150524   5.057   5.210   3.720 -0.6537 -0.6522  1.6626
 9703TIP3    H250525   4.947   5.116   3.673 -0.1667  0.5180 -2.1580
 9704TIP3   OH250526   3.853   6.700   1.505  0.1149 -0.0568  0.4558
 9704TIP3    H150527   3.945   6.718   1.486  0.4640 -1.3463  0.7917
 9704TIP3    H250528   3.831   6.761   1.575  0.5889  0.5578  0.0775
 9705TIP3   OH250529   1.287   3.173   2.121  0.1714 -0.1234  1.1617
 9705TIP3    H150530   1.285   3.090   2.169 -0.1668  0.2499  1.8173
 9705TIP3    H250531   1.354   3.225   2.166 -1.1789  0.7889  2.2394
 9706TIP3   OH250532   4.101   2.942   5.488  0.1245 -0.2890  0.8758
 9706TIP3    H150533   4.146   2.899   5.561 -0.3978 -0.7751  0.9118
 9706TIP3    H250534   4.171   2.986   5.440  0.9247 -2.4121 -0.0319
 9707TIP3   OH250535   5.151   0.227  13.280  0.3035  0.4372  0.0637
 9707TIP3    H150536   5.064   0.216  13.317 -0.7526  1.5165 -1.9565
 9707TIP3    H250537   5.192   0.141  13.288 -1.1482 -0.2343  0.5157
 9708TIP3   OH250538   6.304   4.535   5.155  0.0081  0.3349 -0.2042
 9708TIP3    H150539   6.268   4.587   5.083  0.7589  0.5963 -0.3967
 9708TIP3    H250540   6.320   4.449   5.117  0.1863  0.4040 -0.2817
 9709TIP3   OH250541   3.481   1.335  10.672  0.3369  0.4233  0.1845
 9709TIP3    H150542   3.492   1.424  10.637  0.3511 -0.1838 -1.4604
 9709TIP3    H250543   3.477   1.279  10.594  1.6440 -1.1741  1.1860
 9710TIP3   OH250544   5.797   0.285   1.920  0.4089 -0.2226  0.0329
 9710TIP3    H150545   5.715   0.299   1.967 -0.0511  1.0074 -1.0360
 9710TIP3    H250546   5.770   0.262   1.831  1.2377 -1.0437 -0.0248
 9711TIP3   OH250547   5.667   0.075   3.438 -0.1662 -0.5772  0.0366
 9711TIP3    H150548   5.602   0.011   3.467  0.5792 -1.7329 -0.7537
 9711TIP3    H250549   5.634   0.104   3.352 -0.6449  0.3367  0.5121
 9712TIP3   OH250550   5.241   1.393   0.810 -0.1709 -0.0003 -0.0193
 9712TIP3    H150551   5.195   1.311   0.793 -0.4060  0.3832 -1.4288
 9712TIP3    H250552   5.173   1.453   0.841  0.5013 -1.1122  4.1836
 9713TIP3   OH250553   6.022   5.521  12.894  0.7186  0.1854  0.2199
 9713TIP3    H150554   6.053   5.606  12.925  1.4467 -0.4421  1.2791
 9713TIP3    H250555   6.098   5.463  12.902  0.5587 -0.3296 -1.5247
 9714TIP3   OH250556   4.406   6.529  10.739 -0.3422 -0.6130  0.5969
 9714TIP3    H150557   4.428   6.520  10.832  0.5592  3.1636  0.9026
 9714TIP3    H250558   4.490   6.520  10.694 -0.8079 -2.6604  0.0168
 9715TIP3   OH250559   2.828   2.525   5.836 -0.2189  0.0400  0.5816
 9715TIP3    H150560   2.772   2.594   5.873  0.6220  0.9373  0.2413
 9715TIP3    H250561   2.777   2.445   5.846 -1.5963  0.8313  0.2180
 9716TIP3   OH250562   3.961   3.875  15.582 -0.3589 -0.3408  0.3574
 9716TIP3    H150563   3.942   3.868  15.676  0.6718  1.0842  0.6904
 9716TIP3    H250564   3.899   3.940  15.550 -2.0608 -2.2083 -0.4068
 9717TIP3   OH250565   0.367   0.088  14.338  0.0385  0.3660 -0.0101
 9717TIP3    H150566   0.434   0.131  14.390  1.5551 -0.3405 -1.2743
 9717TIP3    H250567   0.308   0.158  14.311  1.3230  1.3355 -0.3805
 9718TIP3   OH250568   6.472   1.545   1.517  0.0017 -0.7341 -0.2420
 9718TIP3    H150569   6.496   1.493   1.441 -1.6863  0.6191 -1.7849
 9718TIP3    H250570   6.514   1.501   1.591  0.7010 -2.7835 -1.7887
 9719TIP3   OH250571   6.623   5.439   1.930 -0.2610  0.1872  0.5909
 9719TIP3    H150572   6.649   5.531   1.936 -2.1905  0.9078 -1.0117
 9719TIP3    H250573   6.686   5.400   1.869 -0.2892  0.7918  0.1746
 9720TIP3   OH250574   6.099   4.599  10.708  0.5743 -0.0852 -0.2357
 9720TIP3    H150575   6.118   4.640  10.624  1.1709  0.8011  0.3226
 9720TIP3    H250576   6.084   4.507  10.686  0.7338  0.1266 -1.3067
 9721TIP3   OH250577   4.173   3.231  11.765  0.4193  0.0471 -0.0871
 9721TIP3    H150578   4.248   3.200  11.816 -0.2926 -1.2830  0.2036
 9721TIP3    H250579   4.147   3.155  11.712 -1.1517  0.2389  0.3549
 9722TIP3   OH250580   1.525   2.704   0.379 -0.0478  0.5835 -0.2669
 9722TIP3    H150581   1.480   2.680   0.460  1.4788  0.9014  0.7299
 9722TIP3    H250582   1.497   2.639   0.315 -1.7379  0.6606  0.3449
 9723TIP3   OH250583   6.818   3.699  14.693  0.1505  0.2414 -0.6203
 9723TIP3    H150584   6.842   3.665  14.779  0.4272 -1.5278 -1.3466
 9723TIP3    H250585   6.901   3.703  14.645  0.2602  2.8440 -0.3124
 9724TIP3   OH250586   0.350   0.401   3.657  0.1297 -0.0959  0.5159
 9724TIP3    H150587   0.423   0.434   3.604  0.6773  1.3800  2.1180
 9724TIP3    H250588   0.366   0.307   3.664  1.3256  0.0467 -0.0019
 9725TIP3   OH250589   2.041   6.621  16.656  0.1688 -0.1257 -0.4302
 9725TIP3    H150590   2.096   6.688  16.696  0.2628 -0.1731 -0.4789
 9725TIP3    H250591   2.078   6.538  16.686  0.8141 -0.1878 -1.3364
 9726TIP3   OH250592   3.404   0.547  16.508 -0.2036 -0.1378 -0.3376
 9726TIP3    H150593   3.329   0.593  16.546  1.0350 -0.1940  2.3800
 9726TIP3    H250594   3.477   0.608  16.517  0.3433 -0.4805 -1.9976
 9727TIP3   OH250595   6.206   1.922  15.302 -0.0074  0.3174  0.2975
 9727TIP3    H150596   6.182   1.997  15.248 -0.5844 -0.3315 -0.3503
 9727TIP3    H250597   6.237   1.856  15.240 -2.5578 -1.1918  0.5186
 9728TIP3   OH250598   0.302   2.311   6.322  0.6732 -0.0693  0.7949
 9728TIP3    H150599   0.332   2.227   6.358  1.1590  0.1443  0.8972
 9728TIP3    H250600   0.222   2.289   6.275  0.6267 -0.5405  1.0828
 9729TIP3   OH250601   3.694   1.772  11.534  0.1182 -0.2678 -0.1163
 9729TIP3    H150602   3.680   1.824  11.613  0.1114  0.3771 -0.5322
 9729TIP3    H250603   3.648   1.821  11.465 -0.4856 -1.1954 -0.3864
 9730TIP3   OH250604   1.383   2.621  16.007  0.0237  0.1562  0.6978
 9730TIP3    H150605   1.372   2.557  16.077  0.3734 -1.0886 -0.3438
 9730TIP3    H250606   1.451   2.583  15.951 -0.5020  0.9419 -0.5078
 9731TIP3   OH250607   2.355   2.711  13.543  0.2866 -0.2973 -0.5828
 9731TIP3    H150608   2.351   2.806  13.552  2.7778 -0.2255  0.6272
 9731TIP3    H250609   2.443   2.694  13.509 -0.3895 -2.1641 -1.5489
 9732TIP3   OH250610   4.878   1.472  12.708  0.0387 -0.1905 -0.0932
 9732TIP3    H150611   4.926   1.467  12.626  0.4213 -0.3708  0.1370
 9732TIP3    H250612   4.848   1.563  12.714 -1.4561 -0.5699 -1.2431
 9733TIP3   OH250613   5.378   0.809   1.983  0.0077 -0.0877 -0.6660
 9733TIP3    H150614   5.410   0.898   1.999 -1.1627  0.3395 -0.5970
 9733TIP3    H250615   5.446   0.769   1.928  0.8345  0.6391 -0.2003
 9734TIP3   OH250616   2.741   2.995   3.450  0.0406 -0.0042 -0.0252
 9734TIP3    H150617   2.709   2.982   3.360  2.6178  2.2858 -1.4316
 9734TIP3    H250618   2.830   2.961   3.448 -0.7136 -2.5212  2.6099
 9735TIP3   OH250619   4.503   2.128  14.065  0.3664  0.3677 -0.2670
 9735TIP3    H150620   4.420   2.113  14.110  0.4411  1.4231  0.2399
 9735TIP3    H250621   4.505   2.061  13.996 -0.1156 -0.7395  0.7692
 9736TIP3   OH250622   2.694   0.806  12.595 -0.0302 -0.2225 -0.2376
 9736TIP3    H150623   2.682   0.834  12.504  0.1240  0.5207 -0.0407
 9736TIP3    H250624   2.779   0.844  12.621 -0.0124 -0.5346  0.1727
 9737TIP3   OH250625   6.584   1.611  16.013  0.1156  0.0257 -0.7065
 9737TIP3    H150626   6.581   1.615  15.917  0.1877 -0.0119 -0.7102
 9737TIP3    H250627   6.523   1.678  16.042  1.0167  0.8977 -0.7752
 9738TIP3   OH250628   0.253   1.062   1.267 -0.4512  0.0681 -0.0696
 9738TIP3    H150629   0.326   1.089   1.212 -0.4307  1.8063  0.7362
 9738TIP3    H250630   0.176   1.067   1.209 -0.2044  0.2250 -0.3837
 9739TIP3   OH250631   6.805   6.675   5.758  0.0460 -0.4500  0.4803
 9739TIP3    H150632   6.853   6.750   5.723  1.1647 -1.5296 -0.3911
 9739TIP3    H250633   6.727   6.668   5.703  0.6588 -0.7750 -0.3605
 9740TIP3   OH250634   2.372   4.608   6.724  0.0048  0.2307 -0.3374
 9740TIP3    H150635   2.316   4.568   6.656 -0.3064  1.2347 -0.6869
 9740TIP3    H250636   2.458   4.566   6.711 -0.0556  0.3807 -1.3417
 9741TIP3   OH250637   0.391   0.053   2.289  0.1629  0.4853 -0.2710
 9741TIP3    H150638   0.370  -0.038   2.310 -0.4142  0.6581 -0.0990
 9741TIP3    H250639   0.325   0.080   2.226 -0.2408  1.0786  0.3938
 9742TIP3   OH250640   5.560   2.677  14.910  0.1281 -0.1170  0.4416
 9742TIP3    H150641   5.636   2.725  14.944 -0.9646  1.0406  1.3323
 9742TIP3    H250642   5.491   2.743  14.903 -0.5439 -0.9356 -1.2950
 9743TIP3   OH250643   4.881   1.184  14.039  0.7347 -0.5492 -0.1883
 9743TIP3    H150644   4.845   1.259  13.992 -0.9267 -1.4336 -0.4068
 9743TIP3    H250645   4.908   1.124  13.970 -0.5404 -1.3139 -0.0491
 9744TIP3   OH250646   0.197   0.115  11.346  0.1642 -0.5287 -0.3953
 9744TIP3    H150647   0.160   0.081  11.265 -0.9130 -2.5596  0.8846
 9744TIP3    H250648   0.197   0.210  11.334 -3.5869 -0.4851 -1.3247
 9745TIP3   OH250649   5.018   3.763   0.904  0.1605 -0.3942 -0.0521
 9745TIP3    H150650   5.078   3.715   0.961  2.3585  2.5464  0.3447
 9745TIP3    H250651   4.959   3.808   0.964 -2.1592 -2.7055 -0.4283
 9746TIP3   OH250652   1.786   0.798  13.131  0.9447  0.3219  0.7237
 9746TIP3    H150653   1.802   0.816  13.224  1.9317  0.7869  0.4695
 9746TIP3    H250654   1.700   0.836  13.114 -0.6872 -2.4164  2.1684
 9747TIP3   OH250655   6.675   0.144  10.790 -0.3340 -0.1048 -0.1285
 9747TIP3    H150656   6.644   0.224  10.833  1.4915 -0.5504  2.2084
 9747TIP3    H250657   6.607   0.124  10.725 -3.0104  0.9555  2.1404
 9748TIP3   OH250658   5.082   6.005  10.416 -0.0921  0.5521  0.1659
 9748TIP3    H150659   5.110   5.994  10.507 -0.8001  0.6079  0.3971
 9748TIP3    H250660   5.163   6.018  10.368  0.2819  0.6726  0.8098
 9749TIP3   OH250661   2.827   0.509   1.174  0.3945 -0.1507 -0.3357
 9749TIP3    H150662   2.825   0.426   1.127 -1.0043  0.7978 -2.0590
 9749TIP3    H250663   2.850   0.574   1.107  0.9202  0.9485  0.8541
 9750TIP3   OH250664   6.817   5.009  14.292 -0.1553  0.2137  0.0057
 9750TIP3    H150665   6.749   4.943  14.301 -0.4036  0.0502 -2.3526
 9750TIP3    H250666   6.894   4.960  14.263  0.6792  0.5439  1.5720
 9751TIP3   OH250667   4.404   2.067  14.659  0.4833  0.3429 -0.0741
 9751TIP3    H150668   4.369   1.979  14.647 -0.4526  0.7695 -0.6077
 9751TIP3    H250669   4.464   2.059  14.733 -0.0974 -0.6083  0.3151
 9752TIP3   OH250670   3.371   0.026   5.185 -0.0758 -0.0408  0.0680
 9752TIP3    H150671   3.341   0.055   5.271  0.7174 -1.9992  1.0669
 9752TIP3    H250672   3.368  -0.070   5.190  1.1440 -0.2083 -1.6702
 9753TIP3   OH250673   6.101   6.749  13.441 -0.2962 -0.5009 -0.5127
 9753TIP3    H150674   6.037   6.786  13.380  0.2295  0.9774 -0.2038
 9753TIP3    H250675   6.156   6.693  13.387 -1.0118 -0.7311 -1.0240
 9754TIP3   OH250676   3.775   1.237  13.703 -0.7781  0.1749  0.1471
 9754TIP3    H150677   3.737   1.201  13.623 -3.8366 -0.6163  1.7884
 9754TIP3    H250678   3.821   1.316  13.675 -0.7267 -0.6807 -2.4822
 9755TIP3   OH250679   5.177   2.887   1.196 -0.1838  0.0685  0.6066
 9755TIP3    H150680   5.085   2.912   1.190 -0.3853 -0.6507  0.5462
 9755TIP3    H250681   5.223   2.968   1.219 -0.9776  0.1917  1.8831
 9756TIP3   OH250682   0.150   2.184  14.407 -0.3395  0.5259  0.0432
 9756TIP3    H150683   0.114   2.258  14.455 -0.0332 -0.3679  1.7294
 9756TIP3    H250684   0.106   2.107  14.443  0.2644 -0.2266 -0.7608
 9757TIP3   OH250685   0.915   1.871  15.375  0.0096  0.0087  0.1963
 9757TIP3    H150686   0.965   1.917  15.443  1.6866 -1.2790 -0.0927
 9757TIP3    H250687   0.826   1.866  15.410  0.5070  0.6555  1.6475
 9758TIP3   OH250688   0.641   2.775  11.931  0.0981  0.2285  0.1108
 9758TIP3    H150689   0.648   2.789  11.836  2.1645  0.9615  0.3177
 9758TIP3    H250690   0.562   2.822  11.956 -0.2635  0.3723 -1.1916
 9759TIP3   OH250691   1.610   3.203  11.343  0.0411 -0.2396  0.1366
 9759TIP3    H150692   1.559   3.263  11.397  1.5645  0.3268  1.0063
 9759TIP3    H250693   1.620   3.124  11.397 -0.5228 -0.6371 -0.3279
 9760TIP3   OH250694   1.696   2.914   6.238  0.0974 -0.2120  0.0290
 9760TIP3    H150695   1.695   2.837   6.295  0.4804 -1.9622 -2.1867
 9760TIP3    H250696   1.641   2.889   6.164 -1.5191  2.4928  0.1679
 9761TIP3   OH250697   6.896   2.633   3.913  0.0384  0.3578 -0.4978
 9761TIP3    H150698   6.906   2.728   3.903  0.9065  0.1996 -1.1434
 9761TIP3    H250699   6.856   2.604   3.831 -1.2477  0.2904  0.1158
 9762TIP3   OH250700   6.281   6.556   5.089  0.0032  0.2408 -0.1995
 9762TIP3    H150701   6.336   6.484   5.058  1.9140  0.8942  1.4573
 9762TIP3    H250702   6.255   6.530   5.177 -0.8122  0.7898 -0.2683
 9763TIP3   OH250703   5.499   4.951   0.599  0.4406 -0.4277 -0.0595
 9763TIP3    H150704   5.593   4.936   0.598  0.3392 -1.1138 -1.5498
 9763TIP3    H250705   5.488   5.044   0.579  0.7929 -0.3554  0.0871
 9764TIP3   OH250706   3.993   4.525   0.592  0.1805 -0.0906  0.6040
 9764TIP3    H150707   3.964   4.435   0.603 -0.0448 -0.2700 -1.1973
 9764TIP3    H250708   3.940   4.575   0.654 -0.1167 -1.1179  1.1924
 9765TIP3   OH250709   0.983   4.276  16.594  0.1319 -0.1365 -0.5384
 9765TIP3    H150710   0.921   4.264  16.666 -0.9037  0.8084 -1.2294
 9765TIP3    H250711   1.053   4.329  16.632  0.9463 -1.8365  0.4540
 9766TIP3   OH250712   3.862   1.371   4.818  0.6973  0.2759 -0.1124
 9766TIP3    H150713   3.923   1.300   4.796  0.4753 -0.2955  1.0553
 9766TIP3    H250714   3.886   1.397   4.906 -1.5209 -0.8413  0.9122
 9767TIP3   OH250715   4.097   3.792   4.527 -0.5174  0.1348  0.2330
 9767TIP3    H150716   4.038   3.732   4.571  0.0705  0.5394  1.6267
 9767TIP3    H250717   4.177   3.741   4.512 -0.9031 -0.1628 -0.8876
 9768TIP3   OH250718   6.894   5.468  16.566 -0.2268 -0.4894 -0.2673
 9768TIP3    H150719   6.848   5.394  16.529 -0.2640  0.5807 -2.5355
 9768TIP3    H250720   6.985   5.457  16.539 -0.4851  0.9761 -1.9088
 9769TIP3   OH250721   6.260   4.847  11.769  0.2020  0.3611 -0.4334
 9769TIP3    H150722   6.186   4.856  11.830 -1.9998 -1.6211 -2.5737
 9769TIP3    H250723   6.331   4.814  11.823 -0.7305  1.4050  1.5665
 9770TIP3   OH250724   1.015   1.066   1.399 -0.1930 -0.4306  0.4624
 9770TIP3    H150725   1.052   1.129   1.461  0.4705  0.1849 -0.5158
 9770TIP3    H250726   0.924   1.094   1.388 -0.5094 -0.9567  1.6515
 9771TIP3   OH250727   2.576   4.326  11.533  0.3618 -1.0567 -0.2043
 9771TIP3    H150728   2.644   4.352  11.472  1.2343  0.7184  1.4119
 9771TIP3    H250729   2.499   4.309  11.479  1.2066  0.0603 -1.8048
 9772TIP3   OH250730   1.702   4.754  10.572 -0.2490  0.1873  0.6436
 9772TIP3    H150731   1.778   4.796  10.532 -0.4578  0.7102  0.7905
 9772TIP3    H250732   1.631   4.817  10.560 -0.4027  0.1904  1.4886
 9773TIP3   OH250733   4.653   3.049   2.287 -0.3442 -0.0036  0.6995
 9773TIP3    H150734   4.697   3.021   2.367 -0.8631 -0.2833  0.8926
 9773TIP3    H250735   4.650   2.970   2.233  0.6748  0.3545  0.0756
 9774TIP3   OH250736   4.281   1.541  16.653  0.1151 -0.8659  0.1284
 9774TIP3    H150737   4.361   1.575  16.693 -0.0610  1.3936 -1.2778
 9774TIP3    H250738   4.215   1.550  16.722  0.5847 -0.5367  0.5468
 9775TIP3   OH250739   4.357   3.013  14.074  0.3207  0.3708  0.5637
 9775TIP3    H150740   4.346   2.970  13.989  0.4459 -0.0813  0.7776
 9775TIP3    H250741   4.414   3.088  14.054 -0.8923  1.1766 -0.0335
 9776TIP3   OH250742   3.783   5.155   3.333  0.3334 -0.3033  0.1311
 9776TIP3    H150743   3.850   5.222   3.322  0.6414 -0.4224  1.2199
 9776TIP3    H250744   3.741   5.150   3.247  0.9958  0.5354 -0.2618
 9777TIP3   OH250745   1.331   6.394  14.859 -0.0953  0.2233 -0.1938
 9777TIP3    H150746   1.296   6.433  14.779  0.0420 -0.0639 -0.3973
 9777TIP3    H250747   1.265   6.412  14.926  0.4067  1.6443 -0.0600
 9778TIP3   OH250748   6.619   3.303   1.965 -0.2538 -0.2150  0.3745
 9778TIP3    H150749   6.661   3.380   2.005 -1.9233 -0.6151  3.1748
 9778TIP3    H250750   6.580   3.336   1.884  2.4324  0.9048 -0.5677
 9779TIP3   OH250751   2.782   3.809   5.444  0.2250  0.2685 -0.3826
 9779TIP3    H150752   2.763   3.798   5.537 -2.0066 -0.5559 -0.8780
 9779TIP3    H250753   2.829   3.892   5.439  2.2168 -0.6206  1.6546
 9780TIP3   OH250754   1.888   3.879  15.078  0.4064 -0.5982 -0.5004
 9780TIP3    H150755   1.843   3.813  15.025 -2.6815 -0.4700  1.7044
 9780TIP3    H250756   1.884   3.959  15.026 -1.6792 -0.7050 -0.6021
 9781TIP3   OH250757   6.596   0.702  14.524  0.1862 -0.7408 -0.2260
 9781TIP3    H150758   6.621   0.766  14.458  0.6066  0.1754  0.7846
 9781TIP3    H250759   6.500   0.699  14.520  0.1072  0.5181  0.1927
 9782TIP3   OH250760   3.488   4.338   3.070 -0.8323 -0.2954 -0.1545
 9782TIP3    H150761   3.443   4.324   2.986  0.9889 -0.6716 -1.1297
 9782TIP3    H250762   3.571   4.379   3.045  0.0238 -0.9955  1.4218
 9783TIP3   OH250763   1.301   1.710  13.787  0.1722  0.2070 -0.3829
 9783TIP3    H150764   1.269   1.624  13.811  0.3659  0.4601  0.8258
 9783TIP3    H250765   1.390   1.694  13.755 -0.1020 -0.1338 -1.0030
 9784TIP3   OH250766   5.575   2.818  16.183 -0.5645  0.1503 -0.0433
 9784TIP3    H150767   5.572   2.792  16.091 -1.4877 -1.4465  0.3974
 9784TIP3    H250768   5.667   2.805  16.208 -0.3183  0.5361 -0.7022
 9785TIP3   OH250769   2.413   1.755   2.856  0.3144  0.2393 -0.8428
 9785TIP3    H150770   2.360   1.695   2.908  0.8755 -0.0464 -0.5831
 9785TIP3    H250771   2.487   1.701   2.827 -0.3509  0.1939 -2.5502
 9786TIP3   OH250772   0.948   4.292  12.713 -0.0917 -0.2993  0.0031
 9786TIP3    H150773   0.936   4.198  12.727 -0.6011 -0.1324  0.7818
 9786TIP3    H250774   1.034   4.299  12.672  0.1912 -1.0653  0.4382
 9787TIP3   OH250775   5.951   2.790  10.527 -0.1769  0.2762  0.2446
 9787TIP3    H150776   6.042   2.818  10.531 -0.1689  0.6696 -1.7608
 9787TIP3    H250777   5.911   2.826  10.606  1.0348  1.4943  0.3273
 9788TIP3   OH250778   6.691   4.544  13.264  0.2313 -0.2028  0.6015
 9788TIP3    H150779   6.661   4.543  13.174  1.7265 -0.1715  0.0759
 9788TIP3    H250780   6.611   4.539  13.316 -0.6385 -0.4987 -0.7155
 9789TIP3   OH250781   3.383   2.499   1.653 -0.3591 -0.2554 -0.4143
 9789TIP3    H150782   3.446   2.564   1.684 -1.3316 -0.5255  2.4810
 9789TIP3    H250783   3.434   2.439   1.599  0.9978  1.6504 -1.3688
 9790TIP3   OH250784   4.646   2.215   4.038  0.2148 -0.0542  0.5405
 9790TIP3    H150785   4.717   2.187   4.096 -1.1512 -2.1912  1.2935
 9790TIP3    H250786   4.654   2.310   4.035  1.5627 -0.0323  2.6151
 9791TIP3   OH250787   3.235   6.122   5.199  0.2975  0.1788  0.1446
 9791TIP3    H150788   3.171   6.083   5.258 -0.7457  0.5227 -0.7213
 9791TIP3    H250789   3.320   6.102   5.239 -0.2088 -2.1931  0.1840
 9792TIP3   OH250790   2.113   5.123   0.781  0.1843  0.4070  0.7793
 9792TIP3    H150791   2.115   5.121   0.877 -1.0743 -1.6250  0.8072
 9792TIP3    H250792   2.052   5.054   0.757  0.1628  1.1579 -1.5033
 9793TIP3   OH250793   1.671   5.312  13.359  0.5903  0.4755 -0.0812
 9793TIP3    H150794   1.586   5.269  13.363  1.2932 -0.8564  1.4751
 9793TIP3    H250795   1.654   5.402  13.387 -0.0940 -0.1788  1.7054
 9794TIP3   OH250796   5.723   2.832  14.758 -0.0740  0.0631 -0.1096
 9794TIP3    H150797   5.630   2.818  14.738 -0.2302  2.0136 -0.9798
 9794TIP3    H250798   5.728   2.828  14.853 -1.1532  0.4043 -0.0250
 9795TIP3   OH250799   5.624   0.702   5.208 -0.3235  0.2146  0.0534
 9795TIP3    H150800   5.665   0.715   5.123 -0.4335 -0.0119 -0.0352
 9795TIP3    H250801   5.679   0.637   5.252 -1.3125 -1.0819 -0.5757
 9796TIP3   OH250802   2.178   6.729  11.738 -0.3033 -0.3324  0.5296
 9796TIP3    H150803   2.270   6.704  11.727  0.5952  1.8284  2.2762
 9796TIP3    H250804   2.171   6.752  11.831 -2.7019 -0.6912  0.4918
 9797TIP3   OH250805   4.299   1.518  11.070 -0.1744  0.2435 -0.1420
 9797TIP3    H150806   4.236   1.511  11.142 -1.3806 -0.7866 -1.2548
 9797TIP3    H250807   4.376   1.469  11.101 -1.3334 -1.7084 -0.2056
 9798TIP3   OH250808   0.201   6.430   5.284  0.4736 -0.0335  0.2061
 9798TIP3    H150809   0.277   6.378   5.260  1.4238  1.3419  0.0680
 9798TIP3    H250810   0.135   6.410   5.217  1.1890 -0.2727 -0.4359
 9799TIP3   OH250811   4.170   4.462  14.996 -1.0668 -0.1087 -0.2003
 9799TIP3    H150812   4.189   4.460  14.902  2.3179 -0.2381  0.3685
 9799TIP3    H250813   4.159   4.370  15.020  0.4038 -0.2853 -0.1212
 9800TIP3   OH250814   4.221   2.207   3.984 -0.3500 -0.1130 -0.4260
 9800TIP3    H150815   4.272   2.254   4.050  0.4011 -0.4937 -0.7173
 9800TIP3    H250816   4.260   2.233   3.901  0.7254 -1.9462 -0.5507
 9801TIP3   OH250817   6.367   5.938   3.959  0.1375 -0.8631 -0.1660
 9801TIP3    H150818   6.350   6.009   3.898  1.9640 -1.4223 -1.4082
 9801TIP3    H250819   6.460   5.947   3.981 -0.4281 -0.7377  2.4981
 9802TIP3   OH250820   6.362   1.798   3.332  0.5517  0.3019 -0.0672
 9802TIP3    H150821   6.341   1.884   3.368 -1.8019 -0.0177 -0.5392
 9802TIP3    H250822   6.282   1.770   3.288  2.4924 -0.3408 -3.5925
 9803TIP3   OH250823   4.127   3.665  12.967 -0.5756  0.2722 -0.5216
 9803TIP3    H150824   4.070   3.652  12.891 -2.6002 -0.0862  0.9763
 9803TIP3    H250825   4.152   3.577  12.994  2.3394  0.4412 -2.2266
 9804TIP3   OH250826   4.427   4.722   3.190 -0.1628 -0.0111 -0.5191
 9804TIP3    H150827   4.386   4.797   3.146  1.0622 -0.3356 -2.3207
 9804TIP3    H250828   4.489   4.761   3.251  0.2783  0.4801 -1.2589
 9805TIP3   OH250829   1.031   4.006   6.467 -0.4435 -0.2148 -0.2725
 9805TIP3    H150830   1.017   3.983   6.375  0.2735  0.4002 -0.5416
 9805TIP3    H250831   0.995   3.932   6.515 -0.3965 -0.7683 -1.0582
 9806TIP3   OH250832   5.709   1.581   0.814 -0.2657 -0.5421  0.0878
 9806TIP3    H150833   5.707   1.669   0.776 -0.0168  0.0082  1.2938
 9806TIP3    H250834   5.650   1.586   0.889 -1.0519 -1.7087 -0.4203
 9807TIP3   OH250835   1.351   4.596  10.194  0.3147  1.0519  0.3917
 9807TIP3    H150836   1.301   4.674  10.166  2.6347  2.1492 -0.9890
 9807TIP3    H250837   1.324   4.528  10.133  0.0024  1.4275  0.1002
 9808TIP3   OH250838   1.995   2.432   0.495 -0.1462  0.3962 -0.3558
 9808TIP3    H150839   1.978   2.352   0.544 -1.7578  1.2479  0.5637
 9808TIP3    H250840   2.067   2.475   0.542 -0.4619  0.3349  0.1814
 9809TIP3   OH250841   2.027   4.802   1.960 -0.2522  0.1222  0.1874
 9809TIP3    H150842   2.104   4.746   1.962 -0.3704 -0.1456 -1.3752
 9809TIP3    H250843   1.953   4.743   1.948 -0.6977  0.3966  1.4282
 9810TIP3   OH250844   5.845   3.432  10.119 -0.0863 -0.0554 -0.1525
 9810TIP3    H150845   5.815   3.478  10.041  2.0994  0.6934 -0.6088
 9810TIP3    H250846   5.878   3.349  10.086  0.1908 -0.0353  0.0752
 9811TIP3   OH250847   2.171   2.438   3.842 -0.1943 -0.6871 -0.5154
 9811TIP3    H150848   2.263   2.454   3.860 -0.5565 -0.3251  1.0952
 9811TIP3    H250849   2.164   2.446   3.746  1.0966  1.0633 -0.5009
 9812TIP3   OH250850   1.310   0.343  15.123  0.1870  0.1399 -0.2664
 9812TIP3    H150851   1.402   0.370  15.134 -0.2455  1.0423  1.5525
 9812TIP3    H250852   1.279   0.329  15.212 -1.1003 -1.4560 -0.9253
 9813TIP3   OH250853   0.140   2.361  15.216  0.2701  0.3478 -0.3662
 9813TIP3    H150854   0.116   2.268  15.211  0.0588  0.4383 -1.3017
 9813TIP3    H250855   0.058   2.406  15.233  0.5347  0.2965  1.2086
 9814TIP3   OH250856   4.032   2.470  13.063 -1.5814 -0.0334 -0.1376
 9814TIP3    H150857   4.032   2.557  13.023  1.9768  0.0896 -0.1359
 9814TIP3    H250858   4.018   2.487  13.156 -0.7301  0.5951 -0.1119
 9815TIP3   OH250859   5.817   6.660  11.733  0.4575  0.8503  0.2078
 9815TIP3    H150860   5.743   6.599  11.735  1.2157 -0.1843 -1.2939
 9815TIP3    H250861   5.776   6.747  11.736 -0.7879  0.2982 -0.0151
 9816TIP3   OH250862   1.483   6.434  13.325  0.2596 -0.1435  0.2034
 9816TIP3    H150863   1.559   6.409  13.379  2.0635 -1.0748 -2.5675
 9816TIP3    H250864   1.520   6.479  13.250 -2.1929  1.4783 -0.1521
 9817TIP3   OH250865   0.613   4.744   1.573  0.4047  0.1573  0.2307
 9817TIP3    H150866   0.535   4.689   1.572 -1.3386  2.4850  0.2872
 9817TIP3    H250867   0.660   4.718   1.652 -1.0569 -0.3359  0.9643
 9818TIP3   OH250868   4.028   4.832   0.509 -0.3757 -0.2468  0.1167
 9818TIP3    H150869   3.951   4.799   0.462  1.3708 -1.3992 -2.1186
 9818TIP3    H250870   4.095   4.841   0.442  1.4581  0.7674  1.9789
 9819TIP3   OH250871   4.586   5.168  10.804  0.3437 -0.8285 -0.0388
 9819TIP3    H150872   4.493   5.165  10.780  0.1375 -0.6554  0.7125
 9819TIP3    H250873   4.628   5.105  10.745 -0.3273 -1.2491 -0.0807
 9820TIP3   OH250874   6.893   0.057  14.198  0.0382 -0.7176  0.3704
 9820TIP3    H150875   6.832   0.023  14.133  0.8306 -1.7213  0.1161
 9820TIP3    H250876   6.966   0.092  14.146 -0.6537  1.2319  0.6355
 9821TIP3   OH250877   6.413   5.349  10.883 -0.2941  0.7278 -0.5369
 9821TIP3    H150878   6.428   5.407  10.958 -1.6954  0.7643 -0.2525
 9821TIP3    H250879   6.434   5.403  10.807  0.8772  0.7774 -0.2038
 9822TIP3   OH250880   6.808   3.425  11.397 -0.1996  0.0046 -0.3715
 9822TIP3    H150881   6.746   3.448  11.466 -1.8273  0.1556 -1.8165
 9822TIP3    H250882   6.802   3.329  11.390  0.8375 -0.1375  0.4499
 9823TIP3   OH250883   4.324   5.685   5.574  0.2078 -0.2631 -0.0054
 9823TIP3    H150884   4.280   5.694   5.658  0.7409 -1.9793  0.4960
 9823TIP3    H250885   4.392   5.751   5.575 -0.8968  0.9158  0.1432
 9824TIP3   OH250886   0.748   6.424  13.904 -0.4781 -0.3737  0.2342
 9824TIP3    H150887   0.735   6.481  13.980  2.0986 -0.1169  0.5824
 9824TIP3    H250888   0.755   6.336  13.941 -1.2893 -0.5280  0.0405
 9825TIP3   OH250889   3.802   4.131   2.372 -0.3514 -0.0252 -0.5494
 9825TIP3    H150890   3.759   4.211   2.404  0.0531 -0.0876  0.1985
 9825TIP3    H250891   3.738   4.062   2.387  0.2899 -0.2703  1.4340
 9826TIP3   OH250892   1.848   5.207   5.991  0.6488  0.3236 -0.3044
 9826TIP3    H150893   1.932   5.162   5.983  0.7808  0.3448  0.9203
 9826TIP3    H250894   1.815   5.181   6.077 -0.3435  0.7550 -0.5459
 9827TIP3   OH250895   6.674   6.304  15.911 -0.0874  0.4385 -0.2793
 9827TIP3    H150896   6.663   6.399  15.914  0.4748  0.5087 -0.2443
 9827TIP3    H250897   6.736   6.285  15.982 -1.4342 -0.1445  0.7760
 9828TIP3   OH250898   5.891   5.512   0.272 -0.2891 -0.3491 -0.0130
 9828TIP3    H150899   5.852   5.594   0.242 -0.2591 -0.6691 -0.9653
 9828TIP3    H250900   5.834   5.484   0.344 -0.3122  0.4833  0.3087
 9829TIP3   OH250901   4.840   2.318  13.648 -0.1497  0.1359 -0.1858
 9829TIP3    H150902   4.918   2.284  13.603 -0.9253 -0.0509 -1.4591
 9829TIP3    H250903   4.852   2.292  13.739 -0.2044 -2.7448 -0.9001
 9830TIP3   OH250904   5.642   3.742   3.868 -0.1609  0.1466 -0.6625
 9830TIP3    H150905   5.656   3.724   3.775  0.0963  2.6905 -1.1920
 9830TIP3    H250906   5.561   3.792   3.871 -2.2376 -2.9979  0.9765
 9831TIP3   OH250907   3.545   2.982   2.230  0.1953  0.0870  0.0260
 9831TIP3    H150908   3.610   2.961   2.162 -1.4262  0.4749 -1.7163
 9831TIP3    H250909   3.597   2.994   2.309  2.3251  1.0080 -1.4166
 9832TIP3   OH250910   4.025   4.917   4.671  0.1692  0.6334  0.3341
 9832TIP3    H150911   4.113   4.907   4.705  1.4907  3.4189 -1.8036
 9832TIP3    H250912   4.029   4.880   4.583  0.1529  3.2317 -0.8620
 9833TIP3   OH250913   1.071   3.778  15.576 -0.3948 -0.2067 -0.1030
 9833TIP3    H150914   1.057   3.750  15.485 -1.8330 -0.6181  0.2116
 9833TIP3    H250915   1.157   3.819  15.576 -0.9302  1.0524 -1.9655
 9834TIP3   OH250916   5.627   4.631  11.247 -0.4561  0.3208 -0.1805
 9834TIP3    H150917   5.642   4.537  11.253  0.8071  0.4977 -0.2881
 9834TIP3    H250918   5.538   4.643  11.279 -0.0863 -0.7319  1.3428
 9835TIP3   OH250919   3.585   3.852   3.642  0.3595  0.1892  0.9502
 9835TIP3    H150920   3.645   3.887   3.575 -0.6557  0.8047  0.3411
 9835TIP3    H250921   3.636   3.854   3.723  1.2580  0.4449  0.3931
 9836TIP3   OH250922   0.067   1.424  15.939  0.1316  0.4335  0.0202
 9836TIP3    H150923   0.107   1.342  15.912 -0.7794  0.1285 -0.4379
 9836TIP3    H250924   0.010   1.401  16.012 -1.5198  0.3112 -1.2579
 9837TIP3   OH250925   4.811   2.166  15.627 -0.5760 -0.2123 -0.2695
 9837TIP3    H150926   4.790   2.170  15.721 -1.7680 -0.0801 -0.5276
 9837TIP3    H250927   4.890   2.111  15.623 -0.5377 -0.2663  0.8007
 9838TIP3   OH250928   1.358   5.641  11.654 -0.1051 -0.3427  0.3367
 9838TIP3    H150929   1.384   5.716  11.708 -1.4821 -0.7700  1.6530
 9838TIP3    H250930   1.436   5.622  11.601  0.9162  0.8155  1.3518
 9839TIP3   OH250931   0.855   2.155   1.259 -1.0345  0.2125 -0.3897
 9839TIP3    H150932   0.859   2.060   1.248  0.3053  0.1559  0.3877
 9839TIP3    H250933   0.861   2.190   1.170 -2.1724 -0.4188 -0.7400
 9840TIP3   OH250934   3.706   5.241   1.793 -0.1065 -0.0009 -0.2880
 9840TIP3    H150935   3.634   5.301   1.817 -1.2163 -1.1448 -0.6388
 9840TIP3    H250936   3.668   5.184   1.726  1.0781 -0.7684 -0.3279
 9841TIP3   OH250937   3.758   4.003   1.847  0.1775  0.0447 -0.1448
 9841TIP3    H150938   3.720   4.003   1.936  1.8984  0.6962  0.6270
 9841TIP3    H250939   3.796   3.916   1.837  1.0762  0.3788  0.2677
 9842TIP3   OH250940   1.800   1.327   0.904 -0.6211  0.6181  0.5465
 9842TIP3    H150941   1.803   1.336   0.999 -1.9835 -1.9729  0.9290
 9842TIP3    H250942   1.859   1.254   0.885 -0.6974  0.8190 -0.5409
 9843TIP3   OH250943   4.839   6.064   5.082  0.0335 -0.5588  0.9706
 9843TIP3    H150944   4.800   6.149   5.060  0.0387 -0.0876  2.6329
 9843TIP3    H250945   4.765   6.010   5.109  0.1870 -0.6219  1.2699
 9844TIP3   OH250946   6.875   0.740   3.154 -0.4881  0.4100 -0.5297
 9844TIP3    H150947   6.793   0.772   3.192  0.2386  0.3878  1.1410
 9844TIP3    H250948   6.849   0.662   3.105 -1.3273 -0.2943  0.9639
 9845TIP3   OH250949   5.030   2.008  12.644 -0.1033 -0.1198  0.3743
 9845TIP3    H150950   5.025   2.049  12.558  2.7512  0.1007  0.2149
 9845TIP3    H250951   5.047   1.915  12.627  0.9774  0.0095  0.6554
 9846TIP3   OH250952   4.887   2.093  13.090 -1.1813 -0.1663 -0.1070
 9846TIP3    H150953   4.934   2.133  13.163 -0.2785 -2.0038  0.3817
 9846TIP3    H250954   4.925   2.134  13.012 -1.4327  1.0716  0.3956
 9847TIP3   OH250955   0.237   3.292  14.429 -0.2742  0.1454 -0.2786
 9847TIP3    H150956   0.211   3.209  14.469  0.3242 -0.5728 -1.3171
 9847TIP3    H250957   0.163   3.351  14.445 -1.0415 -0.8155 -0.1894
 9848TIP3   OH250958   6.414   2.018   0.240 -0.5515  0.8868 -0.0605
 9848TIP3    H150959   6.353   1.945   0.246 -0.4595  0.8788  0.8365
 9848TIP3    H250960   6.360   2.093   0.215 -1.3513  1.3657  2.7811
 9849TIP3   OH250961   1.168   0.719  11.094 -0.6569 -0.1664 -0.0145
 9849TIP3    H150962   1.134   0.660  11.026  0.1981 -0.1647 -0.4486
 9849TIP3    H250963   1.105   0.791  11.096  0.0822  0.5999 -1.8874
 9850TIP3   OH250964   3.500   0.729  14.193 -0.2462  0.8000 -0.6558
 9850TIP3    H150965   3.484   0.650  14.245  0.2726  0.4140 -1.0760
 9850TIP3    H250966   3.593   0.726  14.172 -0.7691 -0.0820 -3.2244
 9851TIP3   OH250967   2.774   4.742  16.602  0.5452  0.0219 -0.0236
 9851TIP3    H150968   2.798   4.794  16.678 -0.3624 -0.0201  0.2997
 9851TIP3    H250969   2.680   4.755  16.592  0.6554  0.0406 -1.1555
 9852TIP3   OH250970   2.337   4.619  11.297  0.0467  0.4339 -0.1649
 9852TIP3    H150971   2.403   4.579  11.241 -0.1175 -1.0820  0.6650
 9852TIP3    H250972   2.368   4.602  11.386 -1.2141  0.1153  0.2331
 9853TIP3   OH250973   0.961   3.804   4.824 -0.1310  0.3795  0.2287
 9853TIP3    H150974   1.051   3.824   4.797  0.3925  0.0585  1.6713
 9853TIP3    H250975   0.947   3.714   4.794 -0.4741  0.8831 -1.2008
 9854TIP3   OH250976   5.009   3.953  12.600  0.0936 -0.2193  0.8026
 9854TIP3    H150977   5.012   4.039  12.643  1.5268 -0.9003  2.1711
 9854TIP3    H250978   4.952   3.901  12.655  0.1943 -0.4868  0.6553
 9855TIP3   OH250979   6.715   4.759   3.981  0.6785  0.1711 -0.2885
 9855TIP3    H150980   6.627   4.755   4.019  0.1288 -0.9555 -1.5818
 9855TIP3    H250981   6.711   4.831   3.919  0.9989  0.7742  0.3731
 9856TIP3   OH250982   2.667   4.775   5.085  0.4640  1.1914  0.1651
 9856TIP3    H150983   2.707   4.843   5.140  0.1531  0.6906  1.0368
 9856TIP3    H250984   2.574   4.798   5.084  0.2260  0.3718  1.1139
 9857TIP3   OH250985   2.553   3.256  10.789  0.1427 -0.4620 -0.0190
 9857TIP3    H150986   2.564   3.213  10.874 -0.2759 -1.4157 -0.4296
 9857TIP3    H250987   2.643   3.268  10.757  0.2946 -3.2928 -0.9593
 9858TIP3   OH250988   0.670   4.346  13.392 -0.2457  0.0466  0.2856
 9858TIP3    H150989   0.652   4.252  13.383 -0.0876 -0.0189  0.6096
 9858TIP3    H250990   0.762   4.350  13.418 -0.3990  0.2584  0.8181
 9859TIP3   OH250991   1.407   0.796  13.272  0.0505  0.3547 -0.1020
 9859TIP3    H150992   1.371   0.879  13.303  3.2861  2.2963 -1.0005
 9859TIP3    H250993   1.467   0.821  13.201  1.2333 -2.7718 -0.3753
 9860TIP3   OH250994   1.719   3.530   2.890 -0.0260  0.0545  0.2112
 9860TIP3    H150995   1.650   3.505   2.829 -1.8900  0.7116  1.9531
 9860TIP3    H250996   1.776   3.588   2.839 -0.8155 -0.4045 -1.2411
 9861TIP3   OH250997   4.940   3.261  15.682  0.2113  0.2713  0.8354
 9861TIP3    H150998   4.881   3.187  15.664  1.8798 -0.8527 -0.2954
 9861TIP3    H250999   4.934   3.315  15.603  1.1594 -0.2083  0.4145
 9862TIP3   OH251000   0.203   5.935   4.784  0.0635 -0.7382  0.1775
 9862TIP3    H151001   0.235   5.845   4.779 -0.3413 -0.8276 -1.3272
 9862TIP3    H251002   0.129   5.938   4.722 -0.3102  0.4680  0.6488
 9863TIP3   OH251003   6.870   5.751   2.483 -0.3059 -0.2359  0.3249
 9863TIP3    H151004   6.962   5.748   2.509  0.2094  0.9778 -1.2040
 9863TIP3    H251005   6.847   5.659   2.468  0.9099 -0.4966 -0.1006
 9864TIP3   OH251006   0.334   6.690  11.129  0.0355  0.2753  0.2558
 9864TIP3    H151007   0.301   6.649  11.209  0.1557  0.7924  0.5803
 9864TIP3    H251008   0.390   6.761  11.161 -1.4985  1.7757 -0.2644
 9865TIP3   OH251009   4.091   3.518  13.615  0.3190 -0.1426  0.3216
 9865TIP3    H151010   4.052   3.481  13.694 -0.8496 -1.0029 -0.6051
 9865TIP3    H251011   4.169   3.464  13.600  1.2195  0.7816  1.5004
 9866TIP3   OH251012   4.127   6.242  16.101 -0.7307  0.2408  0.2523
 9866TIP3    H151013   4.163   6.305  16.039  0.2855  1.5237  2.0600
 9866TIP3    H251014   4.170   6.159  16.078 -0.3216  0.6992 -0.6894
 9867TIP3   OH251015   0.963   1.681   3.881  0.4645 -0.5943  0.4374
 9867TIP3    H151016   0.909   1.744   3.834  0.2352  0.6908  2.3188
 9867TIP3    H251017   0.944   1.597   3.839 -2.2822 -0.0576  0.4278
 9868TIP3   OH251018   2.452   2.985   1.950  0.2416 -0.5581  0.1379
 9868TIP3    H151019   2.441   2.893   1.974 -1.0796 -0.5928 -0.5101
 9868TIP3    H251020   2.458   2.984   1.855  2.2074 -0.1298  0.2242
 9869TIP3   OH251021   2.207   5.334  11.767  0.0442 -0.0419  0.0502
 9869TIP3    H151022   2.198   5.428  11.787  0.2193 -0.3854  1.9970
 9869TIP3    H251023   2.301   5.318  11.772  0.0422 -0.2682 -0.5868
 9870TIP3   OH251024   1.454   5.315   4.735  0.4869  0.1484 -0.1076
 9870TIP3    H151025   1.437   5.402   4.771 -0.6362  1.3890 -3.3132
 9870TIP3    H251026   1.547   5.300   4.752  0.6604  1.8733  0.6746
 9871TIP3   OH251027   3.885   1.666   4.755  0.2812 -0.3206 -0.2940
 9871TIP3    H151028   3.864   1.620   4.836  1.5446 -0.3838  0.0232
 9871TIP3    H251029   3.871   1.602   4.686 -1.0162 -0.2006 -0.1603
 9872TIP3   OH251030   6.038   0.643  12.067  0.3177 -0.1037  0.0738
 9872TIP3    H151031   5.983   0.601  12.000 -0.3098 -1.3584  1.3172
 9872TIP3    H251032   6.014   0.735  12.063  0.5389 -0.0771 -1.6359
 9873TIP3   OH251033   0.585   1.505   0.048  0.3811  0.0751  0.0528
 9873TIP3    H151034   0.679   1.499   0.031  0.6118  2.9006 -0.1188
 9873TIP3    H251035   0.544   1.481  -0.035  1.0567  1.0370 -0.5803
 9874TIP3   OH251036   4.172   0.585   4.567  0.1670 -0.8021  0.0161
 9874TIP3    H151037   4.177   0.676   4.596  0.9020 -0.1859 -1.8852
 9874TIP3    H251038   4.168   0.534   4.648  0.8681  0.8535  1.1385
 9875TIP3   OH251039   1.034   0.542  14.712  0.1727  0.0534  0.1035
 9875TIP3    H151040   1.121   0.533  14.674  1.1810  3.8075  1.1422
 9875TIP3    H251041   1.037   0.623  14.762 -3.6298 -0.2204  1.1367
 9876TIP3   OH251042   4.020   0.719  11.575 -0.5725  0.2071  0.0586
 9876TIP3    H151043   4.017   0.689  11.484  1.5048  0.6551 -0.1989
 9876TIP3    H251044   3.945   0.778  11.582 -0.0984  1.1065 -1.7325
 9877TIP3   OH251045   1.308   4.482  15.822 -0.0825 -0.3342  0.5358
 9877TIP3    H151046   1.399   4.508  15.806  0.5785 -2.0011  1.3361
 9877TIP3    H251047   1.266   4.490  15.737  1.3320 -1.4272 -0.3126
 9878TIP3   OH251048   6.570   3.855  13.671  0.6486 -0.4274  0.0815
 9878TIP3    H151049   6.658   3.817  13.665  0.8363 -0.0188  0.1980
 9878TIP3    H251050   6.542   3.837  13.761 -0.3907 -2.7021 -0.6129
 9879TIP3   OH251051   6.334   2.538   4.707  0.5446 -0.0315 -0.0106
 9879TIP3    H151052   6.328   2.473   4.777  0.4185 -0.3618 -0.3220
 9879TIP3    H251053   6.386   2.494   4.639  0.3177  0.1301 -0.2889
 9880TIP3   OH251054   2.730   3.112  15.950 -0.5771  0.5860  0.2923
 9880TIP3    H151055   2.641   3.097  15.919 -0.4768 -1.2426  0.7467
 9880TIP3    H251056   2.766   3.024  15.963  2.1470  1.1429 -2.2710
 9881TIP3   OH251057   0.941   6.870  13.243 -0.0640 -0.2198 -0.1746
 9881TIP3    H151058   0.936   6.965  13.230  0.7344 -0.0008  0.9723
 9881TIP3    H251059   1.021   6.844  13.198  0.5130 -0.0980  0.7501
 9882TIP3   OH251060   0.402   1.307  12.803  0.6522  0.1118 -0.3091
 9882TIP3    H151061   0.419   1.399  12.820  1.8609 -0.2210  0.4346
 9882TIP3    H251062   0.318   1.290  12.846 -0.9725  1.4387 -2.7131
 9883TIP3   OH251063   3.819   0.189  14.948  0.3869  0.7908 -0.6410
 9883TIP3    H151064   3.744   0.205  14.890  0.7986 -1.4005 -1.8979
 9883TIP3    H251065   3.783   0.199  15.036 -1.2389  0.4134 -1.2129
 9884TIP3   OH251066   0.238   2.974  11.837  0.1510  0.1762 -0.6060
 9884TIP3    H151067   0.165   2.915  11.852  1.4462 -1.6544 -1.2199
 9884TIP3    H251068   0.242   3.029  11.916 -0.5057 -1.1854  0.4017
 9885TIP3   OH251069   3.140   5.979  12.740  0.1092  0.0944  0.1420
 9885TIP3    H151070   3.118   6.000  12.649 -1.8788 -0.5045  0.4386
 9885TIP3    H251071   3.234   5.962  12.739  0.2707  0.9181 -1.6368
 9886TIP3   OH251072   0.878   3.915   2.226  0.4171  0.1456 -0.3105
 9886TIP3    H151073   0.790   3.908   2.190  0.3844  2.6327 -0.8875
 9886TIP3    H251074   0.914   3.826   2.219 -2.2550 -1.1191  0.6469
 9887TIP3   OH251075   3.614   6.651  12.435  0.3556  0.2494 -0.1883
 9887TIP3    H151076   3.631   6.676  12.526 -1.9277  0.3262  0.2762
 9887TIP3    H251077   3.699   6.625  12.401  1.3737  0.8120  1.7873
 9888TIP3   OH251078   3.803   5.487   4.053  0.1632  0.1614  0.0043
 9888TIP3    H151079   3.765   5.490   3.965  0.8466 -1.7255 -0.4059
 9888TIP3    H251080   3.732   5.516   4.111 -0.3014  1.4167 -1.1438
 9889TIP3   OH251081   6.748   3.896   5.498 -0.1166 -0.5518  0.4233
 9889TIP3    H151082   6.750   3.803   5.516 -0.4618 -0.3631  1.4743
 9889TIP3    H251083   6.688   3.933   5.563  0.1382  0.4281  0.1322
 9890TIP3   OH251084   6.005   0.045   4.980 -0.3566 -0.0705 -0.8252
 9890TIP3    H151085   6.033  -0.038   4.941 -0.1064 -1.3031  1.7853
 9890TIP3    H251086   5.977   0.022   5.068  0.7597  2.7939  0.3957
 9891TIP3   OH251087   5.715   1.354  10.985  0.1572  0.0990 -0.0390
 9891TIP3    H151088   5.679   1.266  10.997 -1.3931  0.5323 -1.2335
 9891TIP3    H251089   5.790   1.341  10.926  0.1400 -0.4591  0.0549
 9892TIP3   OH251090   3.204   6.283   1.147  0.6390  0.3160  0.0046
 9892TIP3    H151091   3.226   6.225   1.074 -3.2541 -0.7527 -0.5771
 9892TIP3    H251092   3.195   6.370   1.107  0.8454  0.1910 -0.3139
 9893TIP3   OH251093   3.036   2.317  15.959 -0.2003 -0.3541 -0.6244
 9893TIP3    H151094   2.974   2.260  16.004  0.1475  0.2038  0.6041
 9893TIP3    H251095   3.122   2.280  15.979  0.0884  1.0336  0.8773
 9894TIP3   OH251096   3.304   0.102  10.733 -0.0723 -0.6401  0.3526
 9894TIP3    H151097   3.231   0.163  10.748  0.2767  0.5503 -2.2952
 9894TIP3    H251098   3.285   0.029  10.791 -2.4247  0.4239  1.0690
 9895TIP3   OH251099   6.075   3.127  16.333  0.7530 -0.7979  0.2765
 9895TIP3    H151100   5.984   3.149  16.355  0.6588 -1.5517  0.6722
 9895TIP3    H251101   6.125   3.206  16.355  0.1640 -0.2825 -0.1974
 9896TIP3   OH251102   5.752   6.650  12.558 -0.3152  0.4726  0.0926
 9896TIP3    H151103   5.777   6.738  12.586  2.0105  0.1091 -0.6705
 9896TIP3    H251104   5.809   6.591  12.607 -0.3100 -0.4934 -1.0087
 9897TIP3   OH251105   0.715   6.020   1.949 -0.4291  0.3714 -0.5713
 9897TIP3    H151106   0.676   5.947   1.901 -1.4032  0.7303 -0.3443
 9897TIP3    H251107   0.663   6.028   2.028  0.9886 -0.0216  0.4390
 9898TIP3   OH251108   5.026   4.327  11.784 -0.0666  0.1949  0.3368
 9898TIP3    H151109   5.009   4.350  11.692 -0.4853  1.3715  0.6890
 9898TIP3    H251110   5.122   4.331  11.792  0.0789 -1.1380 -0.3277
 9899TIP3   OH251111   5.311   0.074   3.021 -0.5307 -0.1685  0.6807
 9899TIP3    H151112   5.375   0.100   2.955 -0.1706 -1.9529  0.2683
 9899TIP3    H251113   5.236   0.043   2.971 -0.4394 -1.0921  1.0942
 9900TIP3   OH251114   2.369   1.285   1.011 -0.1731 -0.0293 -0.2236
 9900TIP3    H151115   2.296   1.240   1.052 -0.5577 -0.3687 -1.2398
 9900TIP3    H251116   2.393   1.229   0.937  0.1370  0.8282 -0.7890
 9901TIP3   OH251117   5.892   5.308   2.155 -0.2546  0.0855  0.5158
 9901TIP3    H151118   5.843   5.332   2.076 -0.3505 -1.1931  0.1508
 9901TIP3    H251119   5.962   5.251   2.123  1.0940  1.3402  1.1110
 9902TIP3   OH251120   4.420   1.675   3.964  0.3395 -0.3986  0.2099
 9902TIP3    H151121   4.380   1.753   4.003  1.0408  0.4592 -0.7371
 9902TIP3    H251122   4.513   1.684   3.983  0.4659 -0.8325 -0.1978
 9903TIP3   OH251123   2.099   2.702  15.701  0.0286  0.5155  0.6101
 9903TIP3    H151124   2.148   2.711  15.619  0.4526 -0.9015  0.6888
 9903TIP3    H251125   2.167   2.682  15.766 -0.5425 -0.4403  0.9164
 9904TIP3   OH251126   0.545   0.665  15.301 -0.2444  0.3805 -0.0796
 9904TIP3    H151127   0.607   0.738  15.303  0.0779  0.1420 -0.8118
 9904TIP3    H251128   0.540   0.641  15.208  0.4706 -1.2065  0.2431
 9905TIP3   OH251129   1.826   6.703  14.932  0.2402 -0.0877 -0.1556
 9905TIP3    H151130   1.843   6.792  14.964 -0.1001 -0.3300  0.7184
 9905TIP3    H251131   1.811   6.714  14.838  1.8672  0.5584 -0.3645
 9906TIP3   OH251132   5.104   5.982  11.857  0.4608  0.0528 -0.3006
 9906TIP3    H151133   5.128   5.892  11.880 -1.9747 -0.8097 -0.8235
 9906TIP3    H251134   5.092   6.026  11.941  0.7233 -0.3999 -0.0231
 9907TIP3   OH251135   5.834   0.400  12.333 -0.1412 -0.7124  0.2535
 9907TIP3    H151136   5.770   0.451  12.383  0.7926  0.8496 -0.0642
 9907TIP3    H251137   5.795   0.392  12.246  0.1882  0.4699 -0.0178
 9908TIP3   OH251138   2.982   4.939  13.577  0.2510  0.0144 -0.1492
 9908TIP3    H151139   3.001   4.869  13.514 -1.4577  0.2324 -0.9754
 9908TIP3    H251140   2.941   4.894  13.651 -0.2551  0.0565 -0.3996
 9909TIP3   OH251141   4.299   0.172   1.796 -0.1176  0.1395  0.3330
 9909TIP3    H151142   4.380   0.210   1.828 -1.3417  1.9869  1.4179
 9909TIP3    H251143   4.230   0.229   1.830 -1.7165  0.9390 -3.6121
 9910TIP3   OH251144   2.794   4.783   2.979  0.1231  0.0917  0.2331
 9910TIP3    H151145   2.815   4.690   2.964  1.7233  0.7087 -1.8973
 9910TIP3    H251146   2.701   4.790   2.956 -0.1862 -1.0817  1.0516
 9911TIP3   OH251147   5.018   6.145  15.910  0.4945 -0.0098 -0.2414
 9911TIP3    H151148   5.085   6.127  15.844  0.4970  0.9606 -0.5113
 9911TIP3    H251149   4.982   6.058  15.931  0.8008 -0.3861 -1.1915
 9912TIP3   OH251150   4.382   3.182   0.740  0.5530  0.0113  0.3634
 9912TIP3    H151151   4.379   3.275   0.717  0.5696 -0.1622 -0.3701
 9912TIP3    H251152   4.310   3.143   0.691  0.2282 -0.2837  1.0636
 9913TIP3   OH251153   2.118   1.393   3.761  0.5729  0.2083 -0.0622
 9913TIP3    H151154   2.036   1.353   3.790  0.4034 -0.6100 -1.5530
 9913TIP3    H251155   2.183   1.324   3.768  0.7128  0.2605 -0.7353
 9914TIP3   OH251156   6.193   4.831  16.191 -0.2335 -0.0438 -0.3502
 9914TIP3    H151157   6.109   4.806  16.153 -0.7390  1.3793 -0.1980
 9914TIP3    H251158   6.171   4.877  16.272  0.8111 -2.7901  1.6679
 9915TIP3   OH251159   2.556   3.802  15.751  0.4249 -0.5583 -0.2636
 9915TIP3    H151160   2.569   3.717  15.792  0.6321 -0.6741 -0.5710
 9915TIP3    H251161   2.471   3.795  15.708  0.4656 -0.6253 -0.3325
 9916TIP3   OH251162   3.493   5.232   4.141  0.0360  0.4903  0.5375
 9916TIP3    H151163   3.462   5.152   4.185 -0.7220 -0.0027 -0.8144
 9916TIP3    H251164   3.509   5.205   4.051  3.7856  0.9256  0.9488
 9917TIP3   OH251165   6.032   6.771   5.790 -0.1390 -0.5035 -0.0483
 9917TIP3    H151166   6.106   6.823   5.821  0.0699 -0.8106 -0.0296
 9917TIP3    H251167   6.009   6.811   5.706 -1.5295  1.1410  1.0497
 9918TIP3   OH251168   2.542   0.586  11.783  0.1442 -0.3393  0.2996
 9918TIP3    H151169   2.475   0.654  11.772 -0.7838 -1.2328  0.2449
 9918TIP3    H251170   2.497   0.515  11.827  0.7926 -1.3552 -0.6169
 9919TIP3   OH251171   3.932   5.091   2.622  0.1243 -0.7241 -0.1013
 9919TIP3    H151172   3.910   5.158   2.557  1.0085  2.3205  2.4642
 9919TIP3    H251173   4.023   5.069   2.606  0.1752 -0.4058 -0.2420
 9920TIP3   OH251174   4.866   3.963  11.739 -0.1584 -0.4618  0.2672
 9920TIP3    H151175   4.774   3.943  11.728 -0.3673  0.2437  0.6676
 9920TIP3    H251176   4.888   4.019  11.665 -0.1185 -0.4154  0.3133
 9921TIP3   OH251177   2.775   4.640   4.568 -0.5349 -0.4677  0.3594
 9921TIP3    H151178   2.762   4.647   4.662 -1.6105 -2.7457  0.4306
 9921TIP3    H251179   2.835   4.566   4.557  0.9731  0.8287 -0.7159
 9922TIP3   OH251180   1.539   2.010   3.598  0.3845 -0.2576 -0.2717
 9922TIP3    H151181   1.566   2.102   3.598  0.4485 -0.2728 -1.3337
 9922TIP3    H251182   1.447   2.012   3.624 -0.7758  0.4950 -3.9921
 9923TIP3   OH251183   2.037   0.587  10.002 -0.4060 -0.5682  0.0617
 9923TIP3    H151184   2.019   0.497  10.029 -1.5325 -0.6114 -0.7406
 9923TIP3    H251185   1.999   0.641  10.072 -1.2362 -0.7052 -0.2716
 9924TIP3   OH251186   1.898   5.394  16.661 -0.7003  0.4164 -0.0966
 9924TIP3    H151187   1.896   5.453  16.736 -0.8256  1.0564 -0.5945
 9924TIP3    H251188   1.938   5.446  16.591  0.5712 -0.5781 -0.1416
 9925TIP3   OH251189   3.858   2.000  10.141 -0.0346 -0.0332  0.0638
 9925TIP3    H151190   3.792   1.934  10.121 -2.0487  1.8401  0.1701
 9925TIP3    H251191   3.812   2.083  10.132  2.1439  1.3393  0.8784
 9926TIP3   OH251192   0.552   1.015  11.823 -0.1666  0.6177 -0.0858
 9926TIP3    H151193   0.561   1.036  11.916 -1.6202  1.6272 -0.1453
 9926TIP3    H251194   0.458   1.011  11.808 -0.0421 -2.9263 -0.8189
 9927TIP3   OH251195   6.182   3.614  14.305 -0.4747 -0.6292  0.8497
 9927TIP3    H151196   6.122   3.658  14.365 -1.9249 -0.0117 -0.9746
 9927TIP3    H251197   6.164   3.652  14.219  1.5419 -1.4586 -0.0195
 9928TIP3   OH251198   6.880   3.523  16.094 -0.5790  0.3755  0.3990
 9928TIP3    H151199   6.938   3.508  16.019 -1.7461 -1.2434 -0.2307
 9928TIP3    H251200   6.922   3.478  16.167 -0.7729 -0.3792  0.0571
 9929TIP3   OH251201   3.964   4.793  11.648  0.3739 -0.2467 -0.2516
 9929TIP3    H151202   3.890   4.772  11.705 -0.2117  1.5327 -0.2874
 9929TIP3    H251203   3.959   4.888  11.636  1.9299 -0.2538 -1.2876
 9930TIP3   OH251204   4.491   0.540  13.412  0.6335 -0.4515  0.2080
 9930TIP3    H151205   4.548   0.573  13.483  1.8102 -1.2626 -0.3166
 9930TIP3    H251206   4.408   0.522  13.455 -0.0545  2.9571  0.5595
 9931TIP3   OH251207   2.876   1.546  13.225 -0.2396  0.3089 -0.0274
 9931TIP3    H151208   2.822   1.616  13.188 -0.4199  0.0487 -0.2620
 9931TIP3    H251209   2.933   1.591  13.287  1.0514  0.9991 -1.6175
 9932TIP3   OH251210   6.433   0.255   1.702  0.2927 -0.0458 -0.0000
 9932TIP3    H151211   6.431   0.306   1.783 -0.2636  1.1361 -0.7314
 9932TIP3    H251212   6.369   0.185   1.717  0.6857 -0.2463  0.8261
 9933TIP3   OH251213   0.152   0.781  11.455 -0.5401 -0.1419  0.1715
 9933TIP3    H151214   0.180   0.690  11.470 -2.4352 -0.4459  2.3357
 9933TIP3    H251215   0.222   0.834  11.494 -0.2850 -0.7189  0.5159
 9934TIP3   OH251216   3.081   0.343   3.373  0.3214 -0.1398 -0.4672
 9934TIP3    H151217   3.017   0.402   3.412  2.3031  2.0106 -0.2506
 9934TIP3    H251218   3.030   0.287   3.315 -1.8799  0.6583  0.5905
 9935TIP3   OH251219   0.057   6.759  16.443  0.0316 -0.2928  0.3254
 9935TIP3    H151220  -0.016   6.736  16.385 -1.1475 -0.7686  1.9313
 9935TIP3    H251221   0.038   6.849  16.471  0.7344  0.0289 -0.2031
 9936TIP3   OH251222   3.861   3.203   4.435 -0.1922 -0.0371  0.2115
 9936TIP3    H151223   3.916   3.191   4.358  2.0066  1.1017  1.5004
 9936TIP3    H251224   3.783   3.247   4.402 -1.0948 -2.8809 -1.8971
 9937TIP3   OH251225   2.421   6.520   4.304 -0.4804 -0.2643  0.1953
 9937TIP3    H151226   2.512   6.546   4.318  0.0118 -1.3381 -0.8313
 9937TIP3    H251227   2.405   6.454   4.371 -0.3725 -0.3520  0.1360
 9938TIP3   OH251228   0.203   0.794  15.678  0.4826 -1.1477  0.0039
 9938TIP3    H151229   0.178   0.762  15.765  2.8797  1.9999  2.0722
 9938TIP3    H251230   0.298   0.809  15.685  0.2613  2.0073 -2.0972
 9939TIP3   OH251231   3.004   0.007  12.754 -0.9399  0.5484  0.1069
 9939TIP3    H151232   3.052   0.012  12.671 -1.0164  0.1507  0.0366
 9939TIP3    H251233   3.037   0.081  12.806 -0.0578  0.1182  0.1656
 9940TIP3   OH251234   1.180   3.427   4.825 -0.0979  0.5385 -0.7536
 9940TIP3    H151235   1.266   3.467   4.812  0.1076  0.2805 -0.2221
 9940TIP3    H251236   1.194   3.334   4.806  0.1776  0.1682  1.0434
 9941TIP3   OH251237   4.935   0.665   4.116 -0.5449  0.0089 -0.1929
 9941TIP3    H151238   4.907   0.590   4.064 -0.9733  0.0123  0.0228
 9941TIP3    H251239   5.028   0.651   4.131 -0.5104 -0.2050 -0.6040
 9942TIP3   OH251240   2.944   3.900  10.823 -0.2765 -0.0707  0.5544
 9942TIP3    H151241   2.986   3.895  10.738 -1.1037  0.9398  0.0553
 9942TIP3    H251242   2.890   3.979  10.818 -1.2753 -0.6571  1.5873
 9943TIP3   OH251243   6.182   6.804  10.843 -0.4154 -0.6874  0.0363
 9943TIP3    H151244   6.204   6.711  10.843  2.7065 -0.0958  1.7055
 9943TIP3    H251245   6.086   6.806  10.852 -0.6481 -3.6916 -0.7504
 9944TIP3   OH251246   1.524   4.271   2.615 -0.5082  0.2686  0.0905
 9944TIP3    H151247   1.528   4.244   2.523 -0.2007  1.4057 -0.2422
 9944TIP3    H251248   1.474   4.352   2.614  0.8151  1.1317  0.7097
 9945TIP3   OH251249   0.622   5.627  10.115 -0.5040 -0.3600  0.2646
 9945TIP3    H151250   0.679   5.560  10.077 -1.0740 -0.3788 -0.5948
 9945TIP3    H251251   0.678   5.675  10.176  0.2734 -0.7539 -0.1263
 9946TIP3   OH251252   2.071   6.744  15.947 -0.3651  0.3362  0.4291
 9946TIP3    H151253   2.059   6.736  16.042 -1.1125 -0.2589  0.2948
 9946TIP3    H251254   1.983   6.761  15.914  0.2963  4.1180  0.1388
 9947TIP3   OH251255   4.079   1.797  14.947  0.4030 -0.4379  0.3072
 9947TIP3    H151256   4.035   1.834  15.023  0.9742  1.2391 -0.1310
 9947TIP3    H251257   4.013   1.800  14.877  0.1505 -1.1791  0.5012
 9948TIP3   OH251258   1.423   4.209   5.371  0.8469  0.2645 -0.0225
 9948TIP3    H151259   1.361   4.185   5.303  2.0700 -1.1402 -0.7035
 9948TIP3    H251260   1.501   4.237   5.323  1.2123  0.7260  0.8149
 9949TIP3   OH251261   0.101   4.922  11.458 -0.2127  0.2611 -0.4870
 9949TIP3    H151262   0.074   4.862  11.389 -0.5017  0.5599 -0.6367
 9949TIP3    H251263   0.023   4.976  11.475 -0.7465 -0.9990  1.3320
 9950TIP3   OH251264   6.840   5.458   2.758 -0.4004  0.0782 -0.7427
 9950TIP3    H151265   6.781   5.383   2.769 -1.5350  1.0754  0.1382
 9950TIP3    H251266   6.881   5.469   2.844  1.7199 -1.0687 -1.5204
 9951TIP3   OH251267   0.516   6.527  14.725 -0.1207 -0.3743 -0.1275
 9951TIP3    H151268   0.437   6.530  14.670  0.4294  1.3013 -0.8956
 9951TIP3    H251269   0.483   6.506  14.812 -0.8937 -4.4077 -1.1810
 9952TIP3   OH251270   0.134   6.575   0.687 -0.4206  0.3331  0.4829
 9952TIP3    H151271   0.196   6.647   0.677  0.0676 -0.0444  0.7521
 9952TIP3    H251272   0.142   6.525   0.607  0.6313 -0.4839  1.0762
 9953TIP3   OH251273   4.536   0.988  16.563 -0.1749 -0.4319  0.3700
 9953TIP3    H151274   4.602   1.039  16.609 -0.5091 -0.5424  0.9802
 9953TIP3    H251275   4.564   0.897  16.573 -0.3039 -0.4641  0.4499
 9954TIP3   OH251276   6.840   5.260   5.136 -0.2592 -0.4835 -0.4722
 9954TIP3    H151277   6.887   5.184   5.103  0.1750 -0.9410  1.0857
 9954TIP3    H251278   6.908   5.314   5.177 -0.8112 -0.1805  0.0661
 9955TIP3   OH251279   1.898   1.508   4.369  0.1332 -0.2482 -0.3305
 9955TIP3    H151280   1.809   1.475   4.375  0.8566 -2.3756 -0.3711
 9955TIP3    H251281   1.906   1.541   4.279 -0.8656  0.8684 -0.0299
 9956TIP3   OH251282   6.400   2.740   5.698 -0.0596 -0.0279  0.1060
 9956TIP3    H151283   6.307   2.728   5.677  0.1876  0.9201 -1.6885
 9956TIP3    H251284   6.446   2.691   5.630  0.7817 -1.4257  1.6252
 9957TIP3   OH251285   2.401   2.373  16.329  0.1622 -0.3518 -0.0141
 9957TIP3    H151286   2.482   2.424  16.325 -1.2419  2.0712  0.1889
 9957TIP3    H251287   2.364   2.396  16.414 -1.4062 -0.3035 -0.6892
 9958TIP3   OH251288   2.455   2.220   5.279 -0.2899  0.2094 -0.1122
 9958TIP3    H151289   2.412   2.158   5.338  0.1471 -0.2499 -0.2701
 9958TIP3    H251290   2.454   2.176   5.193 -2.0522  1.3814 -0.7665
 9959TIP3   OH251291   1.528   6.678   1.152  0.3261  0.2355 -0.1475
 9959TIP3    H151292   1.549   6.591   1.186  2.5958  0.0048 -1.9304
 9959TIP3    H251293   1.552   6.675   1.060 -0.4524  2.4661 -0.4911
 9960TIP3   OH251294   1.894   2.705  11.771  0.6995 -0.4085 -0.3807
 9960TIP3    H151295   1.886   2.711  11.676 -2.8872  1.3259 -0.1507
 9960TIP3    H251296   1.845   2.627  11.795 -0.5636  0.4952  0.1191
 9961TIP3   OH251297   2.302   4.825   1.190 -0.4527 -0.6640  0.6041
 9961TIP3    H151298   2.282   4.732   1.190  0.6222 -0.9451 -1.2351
 9961TIP3    H251299   2.314   4.848   1.282 -2.3321 -1.9525  1.2190
 9962TIP3   OH251300   3.437   6.760  15.946  0.1444  0.0255 -0.4441
 9962TIP3    H151301   3.501   6.818  15.905  2.8010 -2.3543  0.0360
 9962TIP3    H251302   3.454   6.769  16.040  0.7531 -1.6286 -0.3718
 9963TIP3   OH251303   5.142   6.654  14.521  0.1516 -0.1133 -0.3562
 9963TIP3    H151304   5.176   6.565  14.516  0.3691  0.0275 -1.8910
 9963TIP3    H251305   5.208   6.702  14.570  0.6921 -0.5061 -0.6852
 9964TIP3   OH251306   0.979   0.918  14.289  0.2916  0.0460  0.3923
 9964TIP3    H151307   0.997   0.960  14.205 -0.0795  0.6304  0.5998
 9964TIP3    H251308   1.037   0.961  14.351 -1.4682  1.7043  0.9962
 9965TIP3   OH251309   6.677   4.651  13.558  0.6472  0.6739  0.0264
 9965TIP3    H151310   6.684   4.601  13.640 -2.4571 -2.7694 -1.5283
 9965TIP3    H251311   6.750   4.621  13.505 -0.2861 -1.2468 -0.2814
 9966TIP3   OH251312   5.992   5.708  13.077 -0.0283 -0.3101  0.5998
 9966TIP3    H151313   6.064   5.733  13.136  0.6788 -0.9774  0.0426
 9966TIP3    H251314   5.923   5.678  13.136  0.5132 -0.5818  1.1106
 9967TIP3   OH251315   4.707   6.582   3.025 -0.6895  0.1528  0.3153
 9967TIP3    H151316   4.751   6.565   3.109 -0.0473  0.8229  0.1181
 9967TIP3    H251317   4.681   6.495   2.994  0.8126 -0.2979  0.2678
 9968TIP3   OH251318   3.353   1.396   1.555 -0.3398  0.1842 -0.7579
 9968TIP3    H151319   3.281   1.374   1.615  0.5089  0.5479  0.4221
 9968TIP3    H251320   3.386   1.310   1.527 -0.1377 -0.0089  0.0424
 9969TIP3   OH251321   4.416   5.197  11.036  0.6576  0.3741  0.0794
 9969TIP3    H151322   4.457   5.148  10.965  0.0637  1.5109 -1.0745
 9969TIP3    H251323   4.415   5.135  11.110  2.8131 -0.2539 -0.3711
 9970TIP3   OH251324   0.137   6.514   3.439 -0.6749 -0.3765  0.3388
 9970TIP3    H151325   0.213   6.528   3.494 -0.3958  0.9572 -0.3335
 9970TIP3    H251326   0.163   6.446   3.377  0.8560  1.5835 -1.3340
 9971TIP3   OH251327   4.438   0.453  12.169  0.6695 -0.4536 -0.0924
 9971TIP3    H151328   4.438   0.426  12.261  0.9736 -0.4992 -0.1024
 9971TIP3    H251329   4.346   0.453  12.144  0.3303  1.8871  0.8857
 9972TIP3   OH251330   4.369   2.564   1.688 -0.2970  0.6994  0.5092
 9972TIP3    H151331   4.375   2.478   1.646  1.1648  1.2192 -0.4172
 9972TIP3    H251332   4.276   2.587   1.682 -0.8521 -1.0969  1.4233
 9973TIP3   OH251333   2.600   6.611   1.157  0.0287 -0.2605  0.0523
 9973TIP3    H151334   2.631   6.612   1.247  0.6048  2.1477 -0.1176
 9973TIP3    H251335   2.649   6.540   1.116  2.0446  0.5611  0.9145
 9974TIP3   OH251336   2.632   1.490  10.722  0.3614 -0.6515  0.0035
 9974TIP3    H151337   2.727   1.490  10.729  0.5996 -0.9783 -2.4658
 9974TIP3    H251338   2.608   1.400  10.703 -0.3438 -0.3952 -0.3814
 9975TIP3   OH251339   0.834   3.826   3.680  0.2159  0.6936  0.4134
 9975TIP3    H151340   0.897   3.857   3.746 -0.9644 -0.8649  2.3759
 9975TIP3    H251341   0.750   3.827   3.725 -0.3079 -2.5416 -0.3054
 9976TIP3   OH251342   6.316   2.836   4.838 -0.0544 -0.0079 -0.3160
 9976TIP3    H151343   6.298   2.906   4.776 -2.8907  0.4786  0.8867
 9976TIP3    H251344   6.308   2.756   4.786 -1.0035  0.4362 -0.8910
 9977TIP3   OH251345   0.658   1.228   4.023 -0.1274  0.2237 -0.1709
 9977TIP3    H151346   0.672   1.165   3.953 -2.4128 -0.3247 -0.2049
 9977TIP3    H251347   0.687   1.182   4.102 -2.6187 -1.3316 -0.0658
 9978TIP3   OH251348   5.272   2.903  11.422 -0.3319  0.2781  0.1995
 9978TIP3    H151349   5.199   2.908  11.484 -0.4689  0.6042  0.0171
 9978TIP3    H251350   5.350   2.908  11.477 -0.4505  0.2496  0.3735
 9979TIP3   OH251351   6.204   6.801   0.936 -0.1298  0.0251 -0.1807
 9979TIP3    H151352   6.227   6.874   0.879  1.1440 -0.6092 -0.5088
 9979TIP3    H251353   6.108   6.800   0.937 -0.1581  1.1055 -0.9290
 9980TIP3   OH251354   2.245   2.680   3.136  0.0711  0.0376 -0.6046
 9980TIP3    H151355   2.296   2.705   3.214  1.3975 -0.9939 -1.1005
 9980TIP3    H251356   2.299   2.613   3.093 -1.2282 -0.3142 -1.7447
 9981TIP3   OH251357   6.829   3.017  10.872 -0.6349 -0.3057  0.2941
 9981TIP3    H151358   6.836   3.048  10.782  2.3747 -0.8383  0.2683
 9981TIP3    H251359   6.788   2.930  10.865  0.3015 -0.6807 -0.6444
 9982TIP3   OH251360   4.934   0.921   3.990 -0.3107 -0.4173  0.2929
 9982TIP3    H151361   4.924   0.828   4.010  0.8288 -0.3217  1.3877
 9982TIP3    H251362   4.984   0.957   4.063 -2.4471  1.4899  0.9728
 9983TIP3   OH251363   3.669   4.067   0.672 -0.2170  0.2258 -0.2842
 9983TIP3    H151364   3.588   4.119   0.671  0.2178  0.9030 -0.8137
 9983TIP3    H251365   3.654   4.002   0.740 -0.0982  2.1350  1.6718
 9984TIP3   OH251366   6.840   4.975   0.378 -0.7510  0.2589 -0.0005
 9984TIP3    H151367   6.823   5.063   0.345  0.9035 -0.2168 -2.4238
 9984TIP3    H251368   6.770   4.922   0.340  0.2234 -0.0035 -1.5282
 9985TIP3   OH251369   5.402   1.961   4.594 -0.4655  0.1736  0.4167
 9985TIP3    H151370   5.384   2.055   4.593 -0.2244  0.2215  0.3175
 9985TIP3    H251371   5.459   1.947   4.518 -2.1953 -0.4087 -0.8440
 9986TIP3   OH251372   4.876   5.257  12.179  0.0145 -0.1009 -0.1104
 9986TIP3    H151373   4.836   5.248  12.265  1.2163 -1.8447  0.3357
 9986TIP3    H251374   4.961   5.214  12.188  0.3665  0.1030 -2.0423
 9987TIP3   OH251375   5.362   2.124   5.874  0.6972 -0.3633 -0.9283
 9987TIP3    H151376   5.281   2.081   5.901  0.8580  0.4631  1.0635
 9987TIP3    H251377   5.421   2.052   5.852 -0.0468 -1.0369 -0.7560
 9988TIP3   OH251378   5.899   4.196  15.610 -0.4708  0.0723 -0.8160
 9988TIP3    H151379   5.914   4.128  15.676 -0.9461  1.7522  1.1495
 9988TIP3    H251380   5.828   4.161  15.556  1.0196 -2.0385 -1.5168
 9989TIP3   OH251381   6.475   2.311  12.077 -0.4736 -0.5804  0.3361
 9989TIP3    H151382   6.423   2.386  12.049 -1.2577 -0.8511  1.0232
 9989TIP3    H251383   6.425   2.273  12.149  0.5625 -0.9982  0.8499
 9990TIP3   OH251384   6.267   6.859   5.903  0.1438 -0.6793  0.0846
 9990TIP3    H151385   6.337   6.919   5.876 -0.8251  0.3844 -0.1863
 9990TIP3    H251386   6.269   6.861   5.998  0.8778 -1.1437  0.0831
 9991TIP3   OH251387   5.499   5.210   1.675  0.1122 -0.1128 -0.0949
 9991TIP3    H151388   5.585   5.234   1.641  0.3341 -0.7675 -0.0043
 9991TIP3    H251389   5.518   5.153   1.750 -0.4083 -1.3467 -0.8756
 9992TIP3   OH251390   0.949   5.877   1.266  0.2429  0.2379 -0.0079
 9992TIP3    H151391   1.034   5.881   1.310 -0.6037 -0.9930  1.9122
 9992TIP3    H251392   0.955   5.941   1.196  2.6265  0.4296  0.2752
 9993TIP3   OH251393   4.372   3.241  12.349 -0.1072  0.4122 -0.3343
 9993TIP3    H151394   4.311   3.282  12.410  1.1948  0.3853  1.0429
 9993TIP3    H251395   4.416   3.314  12.306 -0.2462  0.4388 -0.4305
 9994TIP3   OH251396   1.602   5.330   2.838 -0.9202 -0.2510 -0.7216
 9994TIP3    H151397   1.593   5.240   2.869 -1.6789  0.2948  0.7571
 9994TIP3    H251398   1.691   5.335   2.804 -0.3210 -1.1630  0.6094
 9995TIP3   OH251399   3.944   4.597  12.911  0.3525  0.4292  0.0980
 9995TIP3    H151400   3.944   4.630  12.822  0.3977 -0.9160 -0.4269
 9995TIP3    H251401   4.032   4.564  12.926  0.4415  0.9287  0.7702
 9996TIP3   OH251402   0.223   1.470   3.060 -0.7294  0.6369  0.2138
 9996TIP3    H151403   0.138   1.514   3.063 -1.6297 -1.0133  0.2108
 9996TIP3    H251404   0.255   1.473   3.150 -1.8469 -0.6460  0.6861
 9997TIP3   OH251405   5.021   4.846   0.808 -0.4681 -0.5563  0.4156
 9997TIP3    H151406   5.105   4.888   0.793 -0.5043  0.6937  3.2163
 9997TIP3    H251407   5.043   4.755   0.830  0.1452 -0.2546  1.0544
 9998TIP3   OH251408   3.591   3.740   1.268 -0.5949  0.3304  0.3229
 9998TIP3    H151409   3.503   3.701   1.272  0.0340 -1.4491 -1.3771
 9998TIP3    H251410   3.605   3.778   1.354 -2.8061  0.1577  0.8103
 9999TIP3   OH251411   6.327   3.925   5.160 -0.3485 -0.1428 -0.2637
 9999TIP3    H151412   6.397   3.935   5.095  0.6814  0.8665  0.9477
 9999TIP3    H251413   6.372   3.892   5.238 -1.2169  0.5780  0.5537
10000TIP3   OH251414   2.856   0.524  12.605 -0.6693  0.1668  0.0456
10000TIP3    H151415   2.890   0.614  12.598  0.3906 -0.0060  2.2660
10000TIP3    H251416   2.806   0.524  12.686  0.2592 -1.5207  0.6508
10001TIP3   OH251417   6.166   0.869  11.852 -0.5923 -0.1276 -0.1309
10001TIP3    H151418   6.197   0.885  11.763 -1.5884  0.0079 -0.4624
10001TIP3    H251419   6.071   0.861  11.843 -0.5770 -1.4627  0.7247
10002TIP3   OH251420   3.380   5.859  13.454 -0.5363 -0.2064  0.6361
10002TIP3    H151421   3.439   5.880  13.382 -1.5280 -3.2380 -1.2727
10002TIP3    H251422   3.293   5.884  13.422 -0.7735  0.3059  1.6498
10003TIP3   OH251423   5.677   3.417  15.076 -0.3151  0.2789 -0.1823
10003TIP3    H151424   5.657   3.449  15.164  1.4433  0.9936 -0.0121
10003TIP3    H251425   5.736   3.482  15.039 -0.2766 -0.4934 -1.5553
10004TIP3   OH251426   1.407   3.960  11.221 -0.5093  0.3350 -0.4056
10004TIP3    H151427   1.344   4.025  11.252  0.2746 -0.1851  2.5457
10004TIP3    H251428   1.492   3.993  11.250 -0.1954 -2.5650  2.5258
10005TIP3   OH251429   3.835   0.483  13.386  0.3802  0.1310  0.0285
10005TIP3    H151430   3.916   0.444  13.353  0.4382 -0.3581  0.7354
10005TIP3    H251431   3.772   0.471  13.314  1.0873  1.0703 -0.7696
10006TIP3   OH251432   1.203   3.060  11.844  0.0543  0.0247  0.1602
10006TIP3    H151433   1.202   3.048  11.939  1.3920  1.1635  0.3493
10006TIP3    H251434   1.293   3.086  11.824 -0.7038  1.8755 -1.1354
10007TIP3   OH251435   5.100   6.050   5.100  0.9725  0.5104  0.4918
10007TIP3    H151436   5.005   6.057   5.097  1.0027  0.7188 -1.4110
10007TIP3    H251437   5.118   5.958   5.082  1.1296  0.8480 -1.3211
10008TIP3   OH251438   6.152   6.533   2.211 -0.0858 -0.4100 -0.2026
10008TIP3    H151439   6.155   6.472   2.137  2.3121  1.3844 -1.7195
10008TIP3    H251440   6.213   6.497   2.275  0.1919 -0.3731 -0.4461
10009TIP3   OH251441   4.533   3.125   5.178 -0.0514 -0.2627 -0.3083
10009TIP3    H151442   4.509   3.033   5.167  0.1480 -0.0620 -3.0268
10009TIP3    H251443   4.545   3.158   5.089  0.1593  2.3442  0.5959
10010TIP3   OH251444   5.154   2.038   3.136  0.2877  0.4815 -0.2359
10010TIP3    H151445   5.072   2.006   3.098  1.4005 -1.6224 -1.0638
10010TIP3    H251446   5.185   2.103   3.072 -1.6585  2.9202  1.1136
10011TIP3   OH251447   6.697   1.655   5.396  0.0704 -0.1075 -0.3500
10011TIP3    H151448   6.715   1.711   5.471 -0.0484  0.7124 -0.9222
10011TIP3    H251449   6.717   1.567   5.427 -0.7942  0.1137  0.9099
10012TIP3   OH251450   6.603   6.075  11.590  0.4669 -0.2008 -0.6355
10012TIP3    H151451   6.635   6.159  11.556  1.3008 -0.4127 -0.4051
10012TIP3    H251452   6.556   6.098  11.670 -1.2186  0.2667 -1.7104
10013TIP3   OH251453   4.861   1.821  10.388  0.1008  0.0690  0.1176
10013TIP3    H151454   4.817   1.761  10.449  0.9831  0.8624  1.5943
10013TIP3    H251455   4.924   1.766  10.342 -0.4068 -0.5069  0.0996
10014TIP3   OH251456   3.073   6.250   1.906  0.1622  0.0456 -0.4075
10014TIP3    H151457   3.120   6.203   1.837 -0.2287  0.9267 -1.3007
10014TIP3    H251458   3.136   6.257   1.977  0.2833 -1.6743 -0.2925
10015TIP3   OH251459   1.650   1.269  14.771  0.3413  0.5625  0.7536
10015TIP3    H151460   1.624   1.193  14.822  1.6438  0.8241  1.8739
10015TIP3    H251461   1.621   1.344  14.823  0.3220  0.8350  0.3583
10016TIP3   OH251462   5.526   6.845   0.568 -0.0999  0.8039  0.3339
10016TIP3    H151463   5.542   6.865   0.660  0.2332  1.6457  0.1024
10016TIP3    H251464   5.431   6.842   0.559 -0.1722  2.1904  0.4143
10017TIP3   OH251465   6.693   0.667   2.837 -0.3672 -0.6091 -0.1371
10017TIP3    H151466   6.649   0.751   2.832  2.2741  0.8426 -1.0610
10017TIP3    H251467   6.700   0.639   2.746  1.9314  0.0136 -0.2049
10018TIP3   OH251468   5.343   6.003  15.872 -0.4203 -0.0053 -0.4525
10018TIP3    H151469   5.306   5.991  15.784  0.8116  0.1980 -1.0219
10018TIP3    H251470   5.335   5.917  15.913 -1.1838 -0.0531 -0.6843
10019TIP3   OH251471   0.940   3.429   5.581 -0.0861 -0.2121 -0.0190
10019TIP3    H151472   1.028   3.424   5.618  0.1580  0.8221 -0.4227
10019TIP3    H251473   0.912   3.519   5.597 -1.0115 -0.4748 -0.0502
10020TIP3   OH251474   2.609   2.155  15.982 -0.1281 -0.2197 -0.2222
10020TIP3    H151475   2.534   2.215  15.981 -1.0524 -1.3560 -0.1359
10020TIP3    H251476   2.623   2.133  15.890  0.0221 -0.1216 -0.2237
10021TIP3   OH251477   5.541   0.627   2.905  0.5489 -0.1669 -0.0386
10021TIP3    H151478   5.536   0.594   2.994 -0.4332  0.3337  0.1078
10021TIP3    H251479   5.516   0.552   2.850  0.2026 -0.2109  0.1753
10022TIP3   OH251480   1.243   5.918  11.842  0.3960 -0.1819  0.0219
10022TIP3    H151481   1.191   5.838  11.854  0.2648 -0.3528 -1.4926
10022TIP3    H251482   1.192   5.986  11.886 -0.3885 -0.6032 -0.2145
10023TIP3   OH251483   1.721   5.490  14.765  0.1729  0.7518  0.0937
10023TIP3    H151484   1.757   5.562  14.713  2.3785  0.1586  0.6864
10023TIP3    H251485   1.785   5.420  14.756 -2.1463 -1.3888 -0.8656
10024TIP3   OH251486   3.011   1.622  15.549 -0.2090 -0.9985  0.5639
10024TIP3    H151487   3.066   1.669  15.612  0.7702 -1.8667  0.3707
10024TIP3    H251488   2.922   1.656  15.565  0.5038  1.2801  0.1017
10025TIP3   OH251489   0.379   2.932  15.746  0.2172 -0.5870  0.0498
10025TIP3    H151490   0.334   2.880  15.812  1.6111 -1.2288  0.5405
10025TIP3    H251491   0.438   2.870  15.703 -0.1537 -0.0234 -1.3268
10026TIP3   OH251492   1.200   6.831  11.396  0.5205  0.3835  0.6205
10026TIP3    H151493   1.248   6.792  11.470 -0.4746  0.4356  1.3138
10026TIP3    H251494   1.160   6.756  11.352  1.1741  0.3450  0.0699
10027TIP3   OH251495   1.361   4.427  12.308  0.2183 -0.7065 -0.2431
10027TIP3    H151496   1.359   4.502  12.248  0.2876 -0.9075 -0.5011
10027TIP3    H251497   1.326   4.355  12.256 -0.0405 -0.8059  0.0718
10028TIP3   OH251498   5.169   0.222  11.206  0.5734  0.6041 -0.1070
10028TIP3    H151499   5.083   0.180  11.204 -0.4614  2.6837 -0.8065
10028TIP3    H251500   5.191   0.226  11.299 -0.0691  0.0615  0.0757
10029TIP3   OH251501   1.473   2.860   2.777 -0.1529  0.7406 -0.7300
10029TIP3    H151502   1.417   2.790   2.744 -0.7891  0.6166  0.5581
10029TIP3    H251503   1.412   2.928   2.806  0.4212  1.2619 -0.7182
10030TIP3   OH251504   2.395   1.343   3.773  0.1879 -0.1852  0.3357
10030TIP3    H151505   2.378   1.256   3.737  0.0272  0.0524 -0.1621
10030TIP3    H251506   2.407   1.327   3.867 -0.8659 -0.6070  0.4143
10031TIP3   OH251507   5.705   5.634  16.291  0.5828  0.1483 -0.4203
10031TIP3    H151508   5.765   5.663  16.359 -2.8820  3.3659  1.7116
10031TIP3    H251509   5.718   5.696  16.219  1.5279 -0.7879 -1.0797
10032TIP3   OH251510   1.108   0.744  12.081 -0.7337  0.6717  0.5635
10032TIP3    H151511   1.139   0.823  12.036  0.3247  0.2969  0.6275
10032TIP3    H251512   1.028   0.773  12.125 -1.0410  1.3994 -0.4115
10033TIP3   OH251513   0.645   6.698  10.552  0.3673  0.1086 -0.3843
10033TIP3    H151514   0.684   6.614  10.525 -0.8893  0.0097 -2.0428
10033TIP3    H251515   0.677   6.760  10.487 -1.3842  0.2183 -1.1959
10034TIP3   OH251516   4.193   0.213  13.478 -0.3910 -0.8371 -0.1135
10034TIP3    H151517   4.286   0.198  13.495 -0.4581 -1.9284 -0.5948
10034TIP3    H251518   4.170   0.291  13.529  0.3980 -1.5003  1.2793
10035TIP3   OH251519   6.770   2.384  15.658  0.0035 -0.2691 -0.1637
10035TIP3    H151520   6.678   2.377  15.680 -0.9987 -3.0153 -4.0950
10035TIP3    H251521   6.776   2.464  15.605 -0.2194 -0.3279 -0.2771
10036TIP3   OH251522   5.185   4.882  12.103  0.0925  0.6472  0.1659
10036TIP3    H151523   5.121   4.848  12.040  0.7542  1.0030 -0.7071
10036TIP3    H251524   5.189   4.815  12.171 -0.5559  0.2140 -0.2092
10037TIP3   OH251525   5.819   3.162   1.338  0.5631  0.6042  0.1501
10037TIP3    H151526   5.764   3.125   1.407  0.3441  0.1669 -0.2596
10037TIP3    H251527   5.778   3.246   1.318  1.2011  1.2122  1.2537
10038TIP3   OH251528   0.980   5.764   4.520 -0.4224 -0.1762  0.2333
10038TIP3    H151529   0.940   5.840   4.479  2.7344  1.7269  0.3421
10038TIP3    H251530   1.026   5.799   4.597  2.1759 -1.8786 -0.3997
10039TIP3   OH251531   4.048   2.015  14.613  0.4515  0.4054 -0.1105
10039TIP3    H151532   4.105   1.939  14.600  0.3782  0.4349 -0.6033
10039TIP3    H251533   4.023   2.042  14.525 -0.9503 -0.0715  0.1126
10040TIP3   OH251534   4.697   5.482  12.201 -0.6701 -0.0538  0.1435
10040TIP3    H151535   4.757   5.407  12.194 -1.0913 -0.4481  0.6101
10040TIP3    H251536   4.754   5.558  12.210 -0.1662 -0.0409 -2.3525
10041TIP3   OH251537   5.982   5.202   3.716  0.0497  0.5762 -0.3867
10041TIP3    H151538   6.077   5.191   3.719  0.0233  0.4942  0.2439
10041TIP3    H251539   5.967   5.291   3.747 -0.0231  0.9539 -1.4537
10042TIP3   OH251540   2.213   3.151   0.015 -0.3321 -0.2019  0.5548
10042TIP3    H151541   2.133   3.194  -0.015  1.4200  1.8310 -1.5676
10042TIP3    H251542   2.232   3.192   0.100 -2.0526 -1.5019  1.6195
10043TIP3   OH251543   5.563   0.994  16.243 -0.1756 -0.4242 -0.8895
10043TIP3    H151544   5.562   1.068  16.183 -0.8170  1.1933  0.9812
10043TIP3    H251545   5.474   0.989  16.276  0.8362  1.1590  2.5716
10044TIP3   OH251546   3.950   6.720  15.698 -0.1964  0.2935 -0.2177
10044TIP3    H151547   3.883   6.767  15.648  0.2308  3.0176  1.5603
10044TIP3    H251548   3.916   6.719  15.788  1.6183  0.8147  0.5192
10045TIP3   OH251549   5.907   2.480  10.453 -0.2971  0.7890 -0.0443
10045TIP3    H151550   5.932   2.448  10.540 -2.4844 -0.2001  0.2948
10045TIP3    H251551   5.987   2.472  10.400  0.3387 -1.3818  1.1269
10046TIP3   OH251552   4.537   1.538   0.082  0.2884  0.2446  0.1487
10046TIP3    H151553   4.570   1.517  -0.006  1.3549  1.0003  0.3537
10046TIP3    H251554   4.533   1.454   0.126  1.2187  0.0263 -0.1469
10047TIP3   OH251555   1.749   0.054  12.391  0.0705  0.2074 -0.3976
10047TIP3    H151556   1.677  -0.009  12.388  0.6022 -0.6706  2.3649
10047TIP3    H251557   1.794   0.044  12.307 -1.8498 -0.6243 -1.3784
10048TIP3   OH251558   2.349   5.964   0.853  0.0663  0.2706 -0.2776
10048TIP3    H151559   2.392   5.900   0.910 -0.5926 -1.9393 -2.0848
10048TIP3    H251560   2.354   6.047   0.901  0.4398 -1.2200  2.4581
10049TIP3   OH251561   2.689   1.495   1.953 -0.2036  0.1395 -0.1342
10049TIP3    H151562   2.702   1.460   2.041  3.4588 -1.7283 -1.1975
10049TIP3    H251563   2.682   1.418   1.897 -1.6886  1.2723 -1.5917
10050TIP3   OH251564   5.303   1.176   0.486  0.0336 -0.4368  0.4160
10050TIP3    H151565   5.213   1.178   0.518  0.3852  1.0709  1.4209
10050TIP3    H251566   5.304   1.239   0.413  0.3778 -0.0574  0.7428
10051TIP3   OH251567   4.901   0.587   2.951 -0.6210  0.4360 -0.1064
10051TIP3    H151568   4.983   0.540   2.968 -0.8395 -0.1437 -0.6062
10051TIP3    H251569   4.927   0.661   2.896 -0.0788  1.6995  1.7870
10052TIP3   OH251570   5.537   3.876  15.275  0.3440  0.4252  0.9880
10052TIP3    H151571   5.506   3.964  15.251  0.2127  0.6303  1.8618
10052TIP3    H251572   5.506   3.864  15.365 -0.5365 -0.9316  0.5371
10053TIP3   OH251573   6.020   0.499  15.086  0.1599 -0.0085 -0.2781
10053TIP3    H151574   5.939   0.469  15.128 -0.4079 -0.8859 -1.9193
10053TIP3    H251575   6.079   0.423  15.091 -0.2195 -0.4273 -1.7844
10054TIP3   OH251576   0.229   4.759   2.701 -0.2904 -0.4847  0.1890
10054TIP3    H151577   0.262   4.813   2.773 -0.6615 -0.8490  0.6384
10054TIP3    H251578   0.208   4.822   2.632 -1.1202  0.0022  0.8595
10055TIP3   OH251579   4.250   1.697   3.017 -0.0509 -0.1569  0.0685
10055TIP3    H151580   4.198   1.647   2.954 -0.8877  0.1648  0.4842
10055TIP3    H251581   4.341   1.678   2.994 -0.3425 -0.2818 -1.0402
10056TIP3   OH251582   3.078   5.578  15.187  0.3638  0.3202 -0.7417
10056TIP3    H151583   3.097   5.658  15.139 -0.5845  0.5333 -0.7799
10056TIP3    H251584   3.162   5.531  15.189  1.1234  1.6337 -0.0725
10057TIP3   OH251585   2.865   5.923   5.293 -0.2162 -0.0957  0.2214
10057TIP3    H151586   2.918   5.846   5.316  1.3432  0.3828 -1.5714
10057TIP3    H251587   2.856   5.970   5.376  0.8103 -1.0170  0.9007
10058TIP3   OH251588   5.107   1.376  13.572 -0.2741  0.6508 -0.9144
10058TIP3    H151589   5.035   1.313  13.584  0.2122  0.3939  1.0119
10058TIP3    H251590   5.082   1.451  13.626  0.0892  1.2855 -1.6224
10059TIP3   OH251591   4.217   6.012  15.946 -0.2971  0.0581  0.2205
10059TIP3    H151592   4.220   5.919  15.968 -1.9449 -0.2121 -0.5543
10059TIP3    H251593   4.128   6.027  15.914 -0.2433  2.0249  0.8244
10060TIP3   OH251594   4.347   5.756  14.821 -0.5410  0.2088  0.1879
10060TIP3    H151595   4.356   5.840  14.777  0.2930  0.2816  0.4808
10060TIP3    H251596   4.437   5.728  14.840 -0.6709 -1.6387 -1.5406
10061TIP3   OH251597   3.742   1.518  12.104 -0.0765 -0.5214 -0.7050
10061TIP3    H151598   3.771   1.589  12.047 -1.2242  0.3630 -0.2353
10061TIP3    H251599   3.821   1.469  12.125  0.9626  1.4032  0.0351
10062TIP3   OH251600   5.935   2.005   2.269 -0.2165 -0.6074 -0.2310
10062TIP3    H151601   5.943   1.921   2.223 -0.3410  0.2282 -1.8734
10062TIP3    H251602   6.021   2.046   2.258  0.3051 -1.0859  1.7949
10063TIP3   OH251603   1.375   3.483  12.151 -0.5611 -0.4170  0.1683
10063TIP3    H151604   1.360   3.417  12.218 -0.8428  0.2530  0.7844
10063TIP3    H251605   1.450   3.534  12.184 -0.2430 -0.5263 -0.3759
10064TIP3   OH251606   2.699   2.968  11.574 -0.4616 -0.2222 -0.0227
10064TIP3    H151607   2.753   3.031  11.622 -1.9372  1.4401 -0.4447
10064TIP3    H251608   2.614   2.971  11.617 -1.6626  0.8803 -2.2994
10065TIP3   OH251609   0.982   1.629   0.726 -0.4186 -0.0109 -0.3317
10065TIP3    H151610   1.011   1.664   0.641 -2.0693  1.7697 -0.2460
10065TIP3    H251611   0.982   1.534   0.714  1.5339  0.0796 -1.5646
10066TIP3   OH251612   1.124   0.664  12.846  0.7588  0.2095  0.7289
10066TIP3    H151613   1.086   0.683  12.761  2.0901  2.0192  0.4803
10066TIP3    H251614   1.049   0.656  12.905 -0.1632 -0.7095 -0.4992
10067TIP3   OH251615   4.455   6.402   1.162 -0.1240 -0.4857 -0.6552
10067TIP3    H151616   4.475   6.314   1.130  1.4833 -0.5948  0.5133
10067TIP3    H251617   4.491   6.461   1.096 -0.4642 -0.6882 -1.0282
10068TIP3   OH251618   3.992   3.557  15.802 -0.0324  0.4137  0.5251
10068TIP3    H151619   4.061   3.613  15.766 -0.4894  2.0817  2.0669
10068TIP3    H251620   3.980   3.489  15.736 -0.3776  2.8745 -2.2040
10069TIP3   OH251621   3.153   1.890  15.134  0.0132 -0.3852 -0.9131
10069TIP3    H151622   3.162   1.873  15.040  0.3113 -0.4571 -0.8742
10069TIP3    H251623   3.159   1.986  15.142 -0.0918 -0.3736 -0.9743
10070TIP3   OH251624   6.759   1.460  12.310  0.4903 -0.5001  0.2434
10070TIP3    H151625   6.726   1.426  12.392  0.2382  1.5080  1.0307
10070TIP3    H251626   6.722   1.403  12.243 -0.5945 -1.2160  1.4198
10071TIP3   OH251627   5.394   1.056  11.873  0.2675 -0.3856  0.2960
10071TIP3    H151628   5.341   1.088  11.946 -0.7481  0.8433 -0.9188
10071TIP3    H251629   5.339   1.072  11.795  2.1470  0.2518 -0.9512
10072TIP3   OH251630   3.347   6.068  15.237  0.1507 -0.4039 -0.0697
10072TIP3    H151631   3.387   6.136  15.183  0.5216  0.4904  1.2920
10072TIP3    H251632   3.412   5.998  15.239  0.6897  0.0980  0.2709
10073TIP3   OH251633   5.240   6.666   2.857 -0.2685  0.2488  0.2911
10073TIP3    H151634   5.205   6.634   2.940  0.0155 -0.1721  0.2494
10073TIP3    H251635   5.173   6.728   2.826 -1.1244 -0.7531  0.0668
10074TIP3   OH251636   1.171   0.248   0.580 -0.1599  0.6606  0.3148
10074TIP3    H151637   1.119   0.319   0.617 -2.1372 -0.3086 -0.4430
10074TIP3    H251638   1.254   0.251   0.628 -0.7532  2.5283  1.3102
10075TIP3   OH251639   5.715   3.887   4.598 -0.0926 -0.0447  0.5327
10075TIP3    H151640   5.800   3.897   4.556 -0.2975  0.0030  0.1219
10075TIP3    H251641   5.669   3.822   4.544  0.2844 -1.3182  1.6940
10076TIP3   OH251642   0.130   0.496  16.055  0.5683  0.2575  0.4584
10076TIP3    H151643   0.109   0.527  16.143  2.8246  1.2264  0.7053
10076TIP3    H251644   0.187   0.420  16.069  0.9810  0.4483 -0.1701
10077TIP3   OH251645   1.684   5.433   2.019 -0.0838  0.0581  0.1286
10077TIP3    H151646   1.723   5.349   2.041  1.5602  0.5026 -0.9214
10077TIP3    H251647   1.747   5.498   2.049 -0.0722  0.8069 -1.4022
10078TIP3   OH251648   4.237   0.822   4.112 -0.0621 -0.0565  0.0722
10078TIP3    H151649   4.323   0.784   4.094 -0.4973 -0.4188 -1.3035
10078TIP3    H251650   4.194   0.758   4.168  0.2095 -0.3234 -0.0202
10079TIP3   OH251651   3.762   6.478  11.055  0.0317  0.0398  0.1238
10079TIP3    H151652   3.731   6.541  10.989 -0.6384 -0.6168 -0.2128
10079TIP3    H251653   3.849   6.453  11.026 -0.0314  0.1920 -0.2013
10080TIP3   OH251654   5.021   5.903   2.131  0.4389 -0.1158 -0.6245
10080TIP3    H151655   5.054   5.876   2.046  1.5080 -3.0270  0.5672
10080TIP3    H251656   5.003   5.820   2.177  1.8546  1.2261  2.6725
10081TIP3   OH251657   1.718   6.439  11.041  0.1488 -0.1322 -0.2390
10081TIP3    H151658   1.768   6.409  10.966  0.9159 -2.2012  1.0010
10081TIP3    H251659   1.629   6.407  11.025 -0.0995  0.9260 -1.0394
10082TIP3   OH251660   1.254   1.777   3.041 -0.7146  0.0633  0.2044
10082TIP3    H151661   1.337   1.800   2.999 -0.1261 -1.2361  0.6251
10082TIP3    H251662   1.227   1.857   3.086 -0.5737  1.0188 -1.3407
10083TIP3   OH251663   6.691   1.254   3.820  0.2134  0.0627 -0.4384
10083TIP3    H151664   6.687   1.217   3.732  1.2628  0.7278 -0.7918
10083TIP3    H251665   6.601   1.253   3.851 -0.3583  0.8738 -1.9816
10084TIP3   OH251666   5.929   0.191  13.963  0.3028 -0.0076 -0.2370
10084TIP3    H151667   5.971   0.206  13.878 -0.4868 -2.0894 -1.0427
10084TIP3    H251668   5.972   0.112  13.997 -1.0212 -0.5464  0.2183
10085TIP3   OH251669   4.230   4.145   3.416  0.4880 -0.0721 -0.2016
10085TIP3    H151670   4.300   4.207   3.392 -1.2317  2.4774  0.9609
10085TIP3    H251671   4.276   4.072   3.458  2.5492  0.8353 -0.7498
10086TIP3   OH251672   3.335   3.475  15.344 -0.0835 -0.5386 -0.0652
10086TIP3    H151673   3.379   3.408  15.291 -1.1764  0.3049 -2.1878
10086TIP3    H251674   3.397   3.548  15.346 -0.3866 -0.2421 -0.9960
10087TIP3   OH251675   3.015   6.257   2.936 -0.0918 -0.5196  0.1915
10087TIP3    H151676   2.935   6.301   2.965 -0.4932 -1.7176  0.9619
10087TIP3    H251677   3.017   6.175   2.985  2.1924 -0.0348  1.0845
10088TIP3   OH251678   2.803   4.199   0.854  0.3667  0.0283 -0.3105
10088TIP3    H151679   2.737   4.129   0.848 -1.6751  1.8424 -0.3105
10088TIP3    H251680   2.822   4.221   0.763  0.8808 -0.3987 -0.3090
10089TIP3   OH251681   1.180   0.851  15.480 -0.1236  0.2898  0.2085
10089TIP3    H151682   1.183   0.861  15.575 -1.6546 -0.4277  0.3642
10089TIP3    H251683   1.141   0.765  15.466  0.2682  0.3036 -1.0739
10090TIP3   OH251684   4.823   4.072  15.341  0.1025  0.1735 -0.2913
10090TIP3    H151685   4.760   4.056  15.271 -0.7829 -3.4809  1.1092
10090TIP3    H251686   4.769   4.098  15.416  0.5416 -0.4530  0.2441
10091TIP3   OH251687   6.214   3.588   1.409 -0.2284  1.0155  0.3302
10091TIP3    H151688   6.225   3.597   1.314  0.8352  0.0573  0.3310
10091TIP3    H251689   6.274   3.517   1.433  1.9670  3.2785  2.1792
10092TIP3   OH251690   3.832   6.567  12.281  0.2221  0.3290 -0.0344
10092TIP3    H151691   3.849   6.629  12.210 -0.4311 -1.7157 -2.1026
10092TIP3    H251692   3.919   6.543  12.314  0.5736  0.7750 -0.6229
10093TIP3   OH251693   6.322   2.524  15.808 -0.4463 -0.2575 -0.3403
10093TIP3    H151694   6.342   2.584  15.737 -0.0861  0.6723  0.5198
10093TIP3    H251695   6.407   2.497  15.842 -0.6029  0.4506  0.6588
10094TIP3   OH251696   1.019   1.452   3.723 -0.0592  0.0483  0.4518
10094TIP3    H151697   1.059   1.435   3.638 -0.3018  1.3365  0.0643
10094TIP3    H251698   0.943   1.394   3.726  0.2465 -0.3849  0.0205
10095TIP3   OH251699   6.275   6.439   2.420 -0.0910  0.1501 -0.5878
10095TIP3    H151700   6.296   6.437   2.514  2.4399 -0.1002 -1.0806
10095TIP3    H251701   6.311   6.357   2.386 -0.7390  0.3588 -1.8286
10096TIP3   OH251702   4.128   5.499   0.382 -0.6163 -0.1578  1.1229
10096TIP3    H151703   4.130   5.553   0.461 -2.1317  2.4197 -0.4403
10096TIP3    H251704   4.220   5.493   0.355 -0.3789  1.9090  1.2794
10097TIP3   OH251705   6.452   5.426  11.350 -0.2216 -0.5013 -0.0131
10097TIP3    H151706   6.462   5.345  11.400  2.2855  1.7129  3.5071
10097TIP3    H251707   6.381   5.472  11.395 -1.1580 -0.3713 -1.5592
10098TIP3   OH251708   1.368   1.144  11.842 -0.6741  0.2509 -0.9444
10098TIP3    H151709   1.320   1.212  11.795 -1.7821 -1.4690 -2.4709
10098TIP3    H251710   1.394   1.082  11.774 -0.4042 -1.2597  0.4731
10099TIP3   OH251711   0.760   0.577   0.184 -0.2102  0.1825 -0.4125
10099TIP3    H151712   0.808   0.654   0.153  0.2994  0.1293  0.2476
10099TIP3    H251713   0.783   0.569   0.276 -2.1575  0.6734  0.1728
10100TIP3   OH251714   3.371   4.465   3.384 -0.0491  0.7904 -0.3469
10100TIP3    H151715   3.363   4.487   3.291  3.2815  1.4494 -0.5832
10100TIP3    H251716   3.399   4.374   3.385 -1.1563  0.4328  0.1141
10101TIP3   OH251717   0.580   3.655   0.882 -0.1116 -0.3726 -0.3272
10101TIP3    H151718   0.573   3.686   0.792  0.1193  0.1173 -0.1800
10101TIP3    H251719   0.533   3.572   0.883 -2.0958  0.6853 -0.3936
10102TIP3   OH251720   3.467   1.793   5.002 -0.3016 -0.1068  0.0053
10102TIP3    H151721   3.415   1.866   5.035 -0.8321 -0.7323  0.5679
10102TIP3    H251722   3.518   1.831   4.930 -0.1468  0.9495  0.6502
10103TIP3   OH251723   0.982   2.406   4.253  0.3536 -0.2980 -0.1640
10103TIP3    H151724   0.911   2.418   4.316  0.6462  0.9306 -0.0335
10103TIP3    H251725   0.943   2.423   4.168  0.4342  0.1660 -0.1113
10104TIP3   OH251726   1.186   4.881  11.136  0.3909 -0.2181 -0.2369
10104TIP3    H151727   1.227   4.815  11.080 -0.7763  0.0207 -1.4284
10104TIP3    H251728   1.205   4.964  11.092  1.9809  0.3129  1.3330
10105TIP3   OH251729   4.713   4.199  15.576 -0.3265  0.3534  0.0222
10105TIP3    H151730   4.798   4.220  15.615 -0.1883 -0.3114  0.1015
10105TIP3    H251731   4.653   4.194  15.651 -1.3316  4.5045 -0.2623
10106TIP3   OH251732   0.258   4.175  13.941  0.2072 -0.8118  0.0346
10106TIP3    H151733   0.335   4.231  13.933  0.0298 -0.4664  0.6695
10106TIP3    H251734   0.285   4.108  14.004  0.7049 -1.9535 -1.3415
10107TIP3   OH251735   2.360   2.379  13.573  0.3377 -0.3923  0.1143
10107TIP3    H151736   2.281   2.377  13.519 -0.0874  2.4106  0.4600
10107TIP3    H251737   2.419   2.440  13.528  0.0577  1.8481  2.5569
10108TIP3   OH251738   1.848   3.002  16.074  0.0071  0.4978 -0.3092
10108TIP3    H151739   1.790   3.040  16.008  1.2786  2.3151 -0.4723
10108TIP3    H251740   1.830   2.908  16.071 -0.9035  0.6794 -2.3280
10109TIP3   OH251741   3.853   0.408   0.374  0.7096  0.0771 -0.2568
10109TIP3    H151742   3.771   0.384   0.418  1.0169 -0.6650 -0.0690
10109TIP3    H251743   3.828   0.477   0.313 -0.2284 -0.7300 -0.8341
10110TIP3   OH251744   3.170   0.410  12.381 -0.9686  0.3316  0.2002
10110TIP3    H151745   3.245   0.446  12.428 -0.3539 -1.2443  0.5231
10110TIP3    H251746   3.194   0.416  12.289 -0.3430 -0.2992  0.3056
10111TIP3   OH251747   3.242   2.402  12.646 -0.3205  0.5640 -0.1323
10111TIP3    H151748   3.316   2.353  12.611 -0.7137 -0.4496  0.4212
10111TIP3    H251749   3.265   2.494  12.631  1.2029  0.2820  0.3327
10112TIP3   OH251750   0.166   0.872   5.228 -0.2920  0.1123  0.0787
10112TIP3    H151751   0.142   0.876   5.321  1.7280 -2.6348  0.8754
10112TIP3    H251752   0.203   0.958   5.209  0.1973  0.4216  2.1613
10113TIP3   OH251753   4.427   4.451  16.398  0.2708 -0.4019 -0.0508
10113TIP3    H151754   4.382   4.509  16.460 -1.3866  0.5377 -2.0039
10113TIP3    H251755   4.511   4.493  16.382  0.0269  0.2315  0.3095
10114TIP3   OH251756   3.765   3.661   5.153 -0.0369 -0.2005  0.7559
10114TIP3    H151757   3.712   3.591   5.114 -1.8695  0.9941  0.9798
10114TIP3    H251758   3.819   3.616   5.218 -2.9131 -1.2032  2.6383
10115TIP3   OH251759   0.915   0.277   4.059  0.1627  0.0085  0.2173
10115TIP3    H151760   0.909   0.183   4.043 -1.2969 -0.1676  1.5200
10115TIP3    H251761   0.876   0.289   4.146  1.3704  1.6839  0.5880
10116TIP3   OH251762   6.357   0.285  11.463  0.2475 -0.3845  0.3234
10116TIP3    H151763   6.410   0.242  11.530 -0.0477 -0.2041  0.6708
10116TIP3    H251764   6.418   0.301  11.391  0.4553 -1.0328  0.3419
10117TIP3   OH251765   2.480   4.480  13.023  0.7113 -0.1540 -0.1790
10117TIP3    H151766   2.436   4.564  13.034  1.0875  0.2130 -1.3337
10117TIP3    H251767   2.550   4.480  13.089 -0.6345 -0.5158  1.3056
10118TIP3   OH251768   2.824   6.760  10.265 -0.4233  0.5908  0.1857
10118TIP3    H151769   2.899   6.817  10.249 -0.6334  1.4526  2.0358
10118TIP3    H251770   2.769   6.809  10.326 -2.1320 -0.3484 -0.5287
10119TIP3   OH251771   2.439   5.288  15.349 -0.1575  0.0490  0.1428
10119TIP3    H151772   2.432   5.257  15.439  2.2891 -0.3114  0.2770
10119TIP3    H251773   2.462   5.381  15.357 -0.1012  0.0574 -0.1053
10120TIP3   OH251774   1.082   4.907   4.214 -0.1043 -0.0145  0.3404
10120TIP3    H151775   1.028   4.870   4.144  1.9220 -0.0555 -1.3310
10120TIP3    H251776   1.155   4.845   4.223  1.0179  1.2929  0.6160
10121TIP3   OH251777   3.080   5.615   1.799  0.0854 -0.4647  0.2732
10121TIP3    H151778   3.146   5.591   1.865 -0.6171  0.1682  1.2248
10121TIP3    H251779   3.085   5.710   1.795 -0.2664 -0.4673 -0.1980
10122TIP3   OH251780   6.194   3.433  11.523  0.7641  0.3819  0.0969
10122TIP3    H151781   6.204   3.338  11.528  0.0152  0.3250  0.7680
10122TIP3    H251782   6.279   3.468  11.551  0.7246 -0.0876  0.8301
10123TIP3   OH251783   1.475   1.937   2.547 -0.2776 -0.6060  0.2134
10123TIP3    H151784   1.510   1.894   2.625  0.9769 -0.1124 -0.0608
10123TIP3    H251785   1.495   2.030   2.561  0.8317 -0.6202 -1.1273
10124TIP3   OH251786   3.950   2.113  14.043  0.6662  0.0349  0.1374
10124TIP3    H151787   3.854   2.112  14.043  0.5742  2.6459  0.6800
10124TIP3    H251788   3.974   2.062  14.121 -0.2505 -0.6451 -0.0011
10125TIP3   OH251789   6.075   0.530  16.048  0.1257  0.3316 -0.0762
10125TIP3    H151790   6.136   0.458  16.031 -2.1635 -1.5025 -1.0679
10125TIP3    H251791   6.051   0.562  15.962  0.6264  1.9304  0.3435
10126TIP3   OH251792   0.756   5.960  11.314 -0.4480 -0.2055  0.5419
10126TIP3    H151793   0.819   5.977  11.384 -2.2512  0.2249  2.1467
10126TIP3    H251794   0.676   6.004  11.344 -1.0880  0.6283 -2.1580
10127TIP3   OH251795   2.257   6.841   1.240 -0.1986 -0.1328 -0.0535
10127TIP3    H151796   2.325   6.903   1.265 -1.0912  1.1860 -0.8090
10127TIP3    H251797   2.186   6.895   1.206 -1.0802 -1.5605 -0.5653
10128TIP3   OH251798   5.366   1.869   2.184  0.0540  0.0086  0.3776
10128TIP3    H151799   5.414   1.787   2.187 -0.2070 -0.1416  0.4642
10128TIP3    H251800   5.332   1.881   2.273  2.2317  1.4997  1.1132
10129TIP3   OH251801   0.040   2.845   1.650  0.1909  0.4527  0.1883
10129TIP3    H151802   0.045   2.939   1.661 -0.6001  0.8127 -1.9833
10129TIP3    H251803  -0.052   2.827   1.628  0.1000 -0.9672  1.5293
10130TIP3   OH251804   4.170   0.453  12.096 -0.2680  0.0396  0.0672
10130TIP3    H151805   4.105   0.482  12.160  0.0532  2.3024 -0.5423
10130TIP3    H251806   4.118   0.420  12.022 -0.7372  0.7794  0.0510
10131TIP3   OH251807   3.905   0.193  13.518  0.2447 -0.1542  0.0739
10131TIP3    H151808   3.943   0.243  13.590  2.3593 -0.1327 -0.9998
10131TIP3    H251809   3.980   0.165  13.466 -1.1883 -0.6744 -1.8005
10132TIP3   OH251810   1.596   3.386  11.128 -0.6053 -0.3729 -0.0992
10132TIP3    H151811   1.612   3.316  11.191  1.1323  1.2145  1.3617
10132TIP3    H251812   1.517   3.360  11.081 -0.1440 -3.1694  0.5173
10133TIP3   OH251813   2.472   2.847  15.545 -0.4925 -0.0828  0.7481
10133TIP3    H151814   2.436   2.927  15.586 -1.3277 -0.5461  0.9410
10133TIP3    H251815   2.463   2.862  15.451  0.2077  0.4272  0.7476
10134TIP3   OH251816   5.001   3.567   0.132  0.1606  0.7125 -0.5470
10134TIP3    H151817   4.907   3.568   0.146  0.3717  0.0192  1.1111
10134TIP3    H251818   5.034   3.643   0.180  0.6236 -0.1615  0.5667
10135TIP3   OH251819   6.884   0.273  13.033  0.0144 -0.0413 -0.0979
10135TIP3    H151820   6.964   0.222  13.017  0.4001  0.6311 -0.3696
10135TIP3    H251821   6.824   0.212  13.076  0.0137 -1.0928 -1.5215
10136TIP3   OH251822   3.867   2.389  11.618 -0.2480  0.0373 -0.7048
10136TIP3    H151823   3.790   2.348  11.579 -0.2675 -0.7117  0.0965
10136TIP3    H251824   3.855   2.483  11.601 -1.3400 -0.0643 -0.5719
10137TIP3   OH251825   3.323   1.428   5.763  0.1259  0.5021  0.2119
10137TIP3    H151826   3.383   1.502   5.754  1.5921 -0.6744  0.0158
10137TIP3    H251827   3.253   1.460   5.820  1.1551  1.7661  0.7955
10138TIP3   OH251828   6.827   0.795  10.568  0.6415  0.5093  0.5737
10138TIP3    H151829   6.902   0.741  10.591  0.3158  0.3388  1.2713
10138TIP3    H251830   6.862   0.860  10.507  1.0359 -0.4698 -0.2765
10139TIP3   OH251831   0.322   3.376   0.336  0.0765  0.1028  0.0574
10139TIP3    H151832   0.415   3.386   0.355 -0.2185  0.5243  1.3448
10139TIP3    H251833   0.281   3.456   0.369 -1.1872 -1.4935  2.7297
10140TIP3   OH251834   1.748   5.306   3.643 -0.3983 -0.2118  0.7017
10140TIP3    H151835   1.740   5.213   3.622 -2.4421  0.1562 -0.3999
10140TIP3    H251836   1.677   5.322   3.705  0.6061  0.4174  1.7177
10141TIP3   OH251837   3.266   6.284  11.885  0.4532  0.2729 -0.3749
10141TIP3    H151838   3.349   6.237  11.891  0.7643  0.7335 -1.0285
10141TIP3    H251839   3.201   6.215  11.869  0.5540 -0.2012  1.0827
10142TIP3   OH251840   6.465   6.815  15.669 -0.3406 -0.0636 -0.5265
10142TIP3    H151841   6.387   6.768  15.700 -0.4647  0.7839  0.5095
10142TIP3    H251842   6.438   6.907  15.668  0.7122  0.2677  0.0672
10143TIP3   OH251843   4.973   2.708   4.706 -0.4953 -0.1089  0.2274
10143TIP3    H151844   5.055   2.755   4.687 -0.7997  0.1733 -0.4205
10143TIP3    H251845   4.992   2.617   4.681 -0.6256  0.1045 -0.6715
10144TIP3   OH251846   4.435   3.771  12.791 -0.0672  0.3410 -0.1960
10144TIP3    H151847   4.346   3.805  12.796 -1.0515 -1.8866 -1.2725
10144TIP3    H251848   4.460   3.781  12.699 -0.3348 -1.5661 -0.5204
10145TIP3   OH251849   3.460   1.848   2.393 -0.4373  0.0646  0.4119
10145TIP3    H151850   3.400   1.893   2.453  0.3312  0.1681  1.1315
10145TIP3    H251851   3.514   1.793   2.451 -0.3619 -0.6261 -0.3026
10146TIP3   OH251852   0.457   1.605  11.007  0.7306  0.2276  0.6318
10146TIP3    H151853   0.400   1.534  11.037  0.8232  0.2280  0.8088
10146TIP3    H251854   0.545   1.576  11.032  1.0034 -0.4983 -0.9631
10147TIP3   OH251855   0.447   4.513  10.093 -0.5020 -0.5360  0.8622
10147TIP3    H151856   0.384   4.489  10.162  0.3916  0.8950  2.2525
10147TIP3    H251857   0.516   4.447  10.099 -2.5730 -3.3116 -1.9577
10148TIP3   OH251858   0.592   0.705  12.410  0.2678 -0.1288  0.5238
10148TIP3    H151859   0.631   0.742  12.331  1.4630 -0.7544  0.7958
10148TIP3    H251860   0.647   0.738  12.481  1.1537 -2.0451  0.8077
10149TIP3   OH251861   5.647   4.849  14.850 -0.0563 -0.2916 -0.2949
10149TIP3    H151862   5.573   4.820  14.903 -0.2893  1.3029  0.3310
10149TIP3    H251863   5.724   4.828  14.903 -0.1656 -0.4273 -0.1888
10150TIP3   OH251864   6.558   6.623   3.062  0.1795 -0.2025  0.3234
10150TIP3    H151865   6.472   6.628   3.104  0.0106 -0.0839 -0.0317
10150TIP3    H251866   6.588   6.534   3.080  0.2415 -0.0600  0.9494
10151TIP3   OH251867   3.176   3.948   2.038 -0.4546  0.3493 -0.4297
10151TIP3    H151868   3.178   3.854   2.059  1.1234  0.4442 -0.0245
10151TIP3    H251869   3.118   3.986   2.104 -1.9529 -0.4443 -1.2174
10152TIP3   OH251870   4.361   2.758   2.656 -0.1156  0.1063 -0.7461
10152TIP3    H151871   4.321   2.753   2.569  1.9496  4.5328 -2.2583
10152TIP3    H251872   4.450   2.726   2.643 -0.1765 -0.4584  0.1335
10153TIP3   OH251873   1.726   0.777  10.054 -0.5553  0.0008  0.1489
10153TIP3    H151874   1.788   0.849  10.039 -1.0717  0.2592 -0.8859
10153TIP3    H251875   1.666   0.811  10.120 -1.5161  1.0261 -1.1864
10154TIP3   OH251876   2.568   0.188   2.523  0.2581 -0.0559 -0.5063
10154TIP3    H151877   2.509   0.204   2.449  1.6074 -0.1716 -1.6523
10154TIP3    H251878   2.514   0.203   2.600 -1.3784 -0.5709 -1.4959
10155TIP3   OH251879   1.303   2.368   3.231  0.3913 -0.1203 -0.2143
10155TIP3    H151880   1.347   2.336   3.310  1.8014 -0.6574 -1.1715
10155TIP3    H251881   1.364   2.430   3.193  0.2160 -0.6750 -1.4451
10156TIP3   OH251882   5.649   2.046  10.937  0.5722 -0.1596  0.3885
10156TIP3    H151883   5.570   2.096  10.917  0.0910 -1.0988 -0.1049
10156TIP3    H251884   5.628   1.999  11.017 -0.1635 -2.0296 -0.8459
10157TIP3   OH251885   5.049   3.921  15.391 -0.1788  0.5850  0.1591
10157TIP3    H151886   4.965   3.965  15.380 -1.1554 -1.3451 -0.5149
10157TIP3    H251887   5.031   3.829  15.370  1.8120 -0.1151  1.2426
10158TIP3   OH251888   4.085   0.034  10.923 -0.2425  0.3795 -0.1910
10158TIP3    H151889   4.004   0.031  10.973  0.4228  1.9474  1.0976
10158TIP3    H251890   4.063  -0.002  10.837 -1.4182 -2.5552  1.2029
10159TIP3   OH251891   0.677   6.544   3.183 -0.3436  0.1032 -0.0984
10159TIP3    H151892   0.609   6.609   3.198 -2.1106 -1.8677  0.9186
10159TIP3    H251893   0.637   6.460   3.208  2.5500 -1.1238  0.8669
10160TIP3   OH251894   1.124   2.381  15.238 -0.4416  0.2250 -0.7286
10160TIP3    H151895   1.036   2.385  15.201 -0.5208 -0.1131 -0.5722
10160TIP3    H251896   1.178   2.348  15.166 -0.7329 -1.2260 -0.3041
10161TIP3   OH251897   1.686   6.644  14.578  0.1731  0.0694 -0.3108
10161TIP3    H151898   1.643   6.561  14.600 -0.1059  0.4505  0.6022
10161TIP3    H251899   1.739   6.623  14.501  0.5207 -1.0950  0.2209
10162TIP3   OH251900   1.046   6.135  13.327 -0.2772  0.2011 -0.3222
10162TIP3    H151901   0.996   6.146  13.408  0.0724  1.8749 -0.2825
10162TIP3    H251902   1.090   6.219  13.315  0.1333 -0.2082 -1.9558
10163TIP3   OH251903   2.470   0.974  15.603 -0.1110 -0.3966 -0.2557
10163TIP3    H151904   2.409   1.010  15.539  0.0841 -1.3072 -0.9737
10163TIP3    H251905   2.543   1.036  15.603  0.0359 -0.5565 -1.1718
10164TIP3   OH251906   3.798   2.230   2.398  0.3589  0.0863 -0.0693
10164TIP3    H151907   3.870   2.174   2.426 -0.5998 -0.8446  0.6417
10164TIP3    H251908   3.833   2.319   2.403  0.6374 -0.0890  3.0857
10165TIP3   OH251909   6.573   4.849   0.930  0.1833  0.0175 -0.7651
10165TIP3    H151910   6.552   4.784   0.863 -0.7531  0.6896 -1.1524
10165TIP3    H251911   6.661   4.880   0.907 -0.5716  1.0768 -2.4225
10166TIP3   OH251912   2.696   2.496   3.004  0.0221 -0.0648 -0.0349
10166TIP3    H151913   2.745   2.551   2.943 -0.4218 -0.4585 -0.7587
10166TIP3    H251914   2.724   2.526   3.091 -0.0482  1.1563 -0.4134
10167TIP3   OH251915   6.539   5.968  10.434 -0.1033 -0.1829 -0.1636
10167TIP3    H151916   6.583   5.966  10.349 -1.1907  1.5072 -0.8113
10167TIP3    H251917   6.507   6.058  10.443 -2.1737 -0.9626  0.9180
10168TIP3   OH251918   5.371   0.829   2.517 -0.1213 -0.2906 -0.1600
10168TIP3    H151919   5.288   0.875   2.501  0.7976  1.4563 -0.2023
10168TIP3    H251920   5.380   0.770   2.442 -0.7544  0.4032 -0.8068
10169TIP3   OH251921   0.855   5.305  15.065  0.0808 -0.9312 -0.0338
10169TIP3    H151922   0.851   5.217  15.103 -2.1148 -1.4093 -1.2028
10169TIP3    H251923   0.820   5.362  15.133  0.6365 -1.0851  0.3857
10170TIP3   OH251924   5.024   2.309  15.520 -0.0100  0.4293  0.0738
10170TIP3    H151925   4.936   2.286  15.550 -0.0884 -0.5488 -0.8454
10170TIP3    H251926   5.073   2.227  15.525 -0.3621 -0.1602 -3.5705
10171TIP3   OH251927   5.921   2.892   4.533 -0.5120 -0.1327  0.3034
10171TIP3    H151928   5.940   2.980   4.563 -0.2892 -0.1271  0.1441
10171TIP3    H251929   6.001   2.862   4.490 -0.8667 -0.0952 -0.4003
10172TIP3   OH251930   2.732   0.489  11.636 -0.4079 -0.1744 -0.5112
10172TIP3    H151931   2.671   0.530  11.697 -0.0090  1.4111 -1.1430
10172TIP3    H251932   2.681   0.473  11.557 -1.4946 -4.0732  0.7336
10173TIP3   OH251933   3.973   1.904  11.570  0.5621 -0.2091 -0.4904
10173TIP3    H151934   4.046   1.922  11.510  0.6413  2.1704  0.2471
10173TIP3    H251935   3.909   1.972  11.552 -0.8659 -1.4116 -0.1146
10174TIP3   OH251936   1.530   1.632  11.693 -0.0839 -0.6986  0.5125
10174TIP3    H151937   1.554   1.607  11.783 -0.0748  1.0666  1.0387
10174TIP3    H251938   1.589   1.582  11.637  0.6932 -0.9642  1.5450
10175TIP3   OH251939   4.252   0.630  15.439  0.0304  0.1280  0.1217
10175TIP3    H151940   4.198   0.682  15.379  0.3746  1.3173  0.7927
10175TIP3    H251941   4.341   0.639  15.405  0.1359  0.2705  0.4214
10176TIP3   OH251942   6.334   2.366  12.918 -0.1163  0.0982 -0.8126
10176TIP3    H151943   6.417   2.404  12.890  0.7140  0.0144  1.2869
10176TIP3    H251944   6.354   2.273  12.933 -0.8311 -0.1162 -1.1229
10177TIP3   OH251945   1.316   1.764  14.890 -0.0521 -0.4835  0.1419
10177TIP3    H151946   1.312   1.809  14.975  0.5242  1.6735 -0.9046
10177TIP3    H251947   1.233   1.786  14.847 -0.4806 -1.8283  0.2250
10178TIP3   OH251948   1.618   6.398   5.889 -0.3226 -0.0547 -0.3377
10178TIP3    H151949   1.539   6.450   5.873 -1.6934 -1.5803  1.0849
10178TIP3    H251950   1.672   6.454   5.946 -1.9680 -0.2373  1.5323
10179TIP3   OH251951   3.144   5.658  13.338  0.0407 -0.3478  0.0785
10179TIP3    H151952   3.184   5.652  13.251  0.6499  2.4761  0.0680
10179TIP3    H251953   3.060   5.614  13.328  1.3340 -2.7991 -1.0422
10180TIP3   OH251954   4.877   4.956   2.267  0.0198 -0.2248  0.8045
10180TIP3    H151955   4.946   4.943   2.333  0.5052  1.2229  0.6336
10180TIP3    H251956   4.834   5.037   2.295 -1.1025 -0.6919  0.4544
10181TIP3   OH251957   2.266   0.096   1.491  0.5799  0.0438  0.2414
10181TIP3    H151958   2.258   0.004   1.465  2.0878  0.2678 -1.1608
10181TIP3    H251959   2.177   0.131   1.484  0.5424 -0.3958 -3.0343
10182TIP3   OH251960   5.694   4.979  12.252  0.3055 -1.1348 -0.1374
10182TIP3    H151961   5.604   4.989  12.221  0.1294 -1.4654  0.2518
10182TIP3    H251962   5.685   4.951  12.343  0.7745 -2.6013 -0.5035
10183TIP3   OH251963   3.384   3.012  14.640  0.4055  0.0178  0.1114
10183TIP3    H151964   3.450   3.057  14.693  0.6095 -0.3039  0.1331
10183TIP3    H251965   3.302   3.024  14.688  0.5717 -0.1851  0.4455
10184TIP3   OH251966   4.235   4.446   4.268  0.3918 -0.2244  0.3069
10184TIP3    H151967   4.314   4.496   4.245  1.0176 -0.4204  1.8580
10184TIP3    H251968   4.174   4.512   4.301 -0.0517 -0.0926 -0.7483
10185TIP3   OH251969   5.264   4.462  14.715 -0.2450  0.2128  0.1126
10185TIP3    H151970   5.223   4.476  14.630  1.8752  1.0932 -0.8479
10185TIP3    H251971   5.261   4.548  14.757 -1.6956 -0.3144  1.1878
10186TIP3   OH251972   3.795   0.904   0.192  0.0717  0.1489 -0.0005
10186TIP3    H151973   3.881   0.894   0.151 -0.5916  0.4923 -1.5741
10186TIP3    H251974   3.766   0.991   0.164 -0.5744  0.2366  0.9255
10187TIP3   OH251975   6.554   2.626  15.615  0.4201 -0.4096 -0.1520
10187TIP3    H151976   6.650   2.630  15.617  0.3687  0.8077  0.5547
10187TIP3    H251977   6.530   2.683  15.542  0.1657  1.3861  1.2759
10188TIP3   OH251978   6.144   1.985  15.566 -0.3388  0.4881  0.3896
10188TIP3    H151979   6.113   2.069  15.600  1.0097  0.9085  0.6150
10188TIP3    H251980   6.129   1.990  15.472 -3.3454 -0.3689  0.6900
10189TIP3   OH251981   2.160   5.157  15.698 -0.4436 -0.0827 -0.3915
10189TIP3    H151982   2.121   5.156  15.785 -0.1535 -0.9918 -0.2570
10189TIP3    H251983   2.172   5.250  15.677 -0.9030  0.1463  0.3585
10190TIP3   OH251984   5.981   0.928  11.515  0.1168  0.3091  0.5293
10190TIP3    H151985   6.073   0.915  11.540  0.6683  1.0074 -1.0361
10190TIP3    H251986   5.983   0.931  11.420 -1.5427  0.4202  0.4839
10191TIP3   OH251987   3.970   5.540   1.884 -0.4047  0.2841 -0.3283
10191TIP3    H151988   3.986   5.479   1.812 -0.7653 -0.0444 -0.1359
10191TIP3    H251989   3.996   5.492   1.963 -1.2595  0.1416 -0.1149
10192TIP3   OH251990   1.518   2.433  10.226 -0.6874 -1.1460  0.0013
10192TIP3    H151991   1.598   2.465  10.184 -1.2239 -0.7994 -0.7802
10192TIP3    H251992   1.548   2.363  10.284  0.0731 -1.7055 -1.0306
10193TIP3   OH251993   2.145   5.919  11.461 -0.1165  0.2349 -0.0332
10193TIP3    H151994   2.059   5.945  11.426 -0.5188 -0.3526  0.4963
10193TIP3    H251995   2.205   5.932  11.388 -0.5328  1.3417 -0.1987
10194TIP3   OH251996   0.288   6.451  15.482  0.4846  0.0484 -0.3264
10194TIP3    H151997   0.278   6.544  15.461 -2.3217  0.2604  1.4960
10194TIP3    H251998   0.269   6.406  15.399  1.0693  1.0278 -1.0221
10195TIP3   OH251999   4.701   4.147   5.924 -0.0193  0.2810 -0.5046
10195TIP3    H152000   4.683   4.234   5.961  2.6919 -0.2572  2.5898
10195TIP3    H252001   4.619   4.099   5.935 -0.6278  1.5383  0.7584
10196TIP3   OH252002   5.412   5.489   4.721 -0.0690 -0.1170  0.0230
10196TIP3    H152003   5.455   5.572   4.743 -2.6342  1.6444 -1.1254
10196TIP3    H252004   5.337   5.484   4.780 -0.0609 -1.5895 -0.0467
10197TIP3   OH252005   1.671   6.025  15.635 -0.0854  0.1024 -0.1330
10197TIP3    H152006   1.587   5.980  15.624  0.3271 -0.2662 -2.0459
10197TIP3    H252007   1.657   6.085  15.709 -1.5191 -1.0959  0.6212
10198TIP3   OH252008   0.214   4.196   2.076  0.1047  0.1338  0.5663
10198TIP3    H152009   0.233   4.107   2.107 -0.4570  0.2392  1.2433
10198TIP3    H252010   0.283   4.250   2.114  0.2214  0.0472  0.4784
10199TIP3   OH252011   6.563   1.023   0.418 -0.0265 -0.3865 -0.6191
10199TIP3    H152012   6.622   0.948   0.423 -1.5511 -1.5616  1.8918
10199TIP3    H252013   6.477   0.987   0.442 -0.7831  2.1533  0.8608
10200TIP3   OH252014   6.049   4.343   2.040 -0.3203  0.4780 -0.9192
10200TIP3    H152015   5.982   4.334   2.108  3.5108 -2.8607  3.0088
10200TIP3    H252016   6.044   4.261   1.991  2.0209 -0.8805  0.8972
10201TIP3   OH252017   3.572   5.280   0.080  0.0120  0.2192 -0.1238
10201TIP3    H152018   3.586   5.250  -0.010  3.2156  1.9463 -0.3493
10201TIP3    H252019   3.642   5.238   0.130  0.9497  2.5659  0.6680
10202TIP3   OH252020   5.924   5.760   4.407  0.1557  0.7141 -0.3325
10202TIP3    H152021   5.926   5.848   4.445  0.3017 -0.1244  1.7518
10202TIP3    H252022   6.002   5.717   4.442 -0.4412 -0.5534 -0.5010
10203TIP3   OH252023   4.730   6.868  13.515  0.3326 -0.0368 -0.1189
10203TIP3    H152024   4.795   6.936  13.500 -1.8257  1.7415 -2.1609
10203TIP3    H252025   4.719   6.866  13.610  2.0278  0.8452  0.1372
10204TIP3   OH252026   4.534   5.702   0.134  0.0832 -0.0984  0.8905
10204TIP3    H152027   4.484   5.784   0.140 -0.1208 -0.2360  1.0584
10204TIP3    H252028   4.625   5.728   0.151  0.2060  0.2918 -0.2368
10205TIP3   OH252029   5.706   4.367   5.156 -0.0078  0.1081  0.0715
10205TIP3    H152030   5.729   4.357   5.063 -1.9792 -3.3377 -0.2572
10205TIP3    H252031   5.610   4.367   5.156 -0.0468 -0.4426  2.1034
10206TIP3   OH252032   2.112   6.414  12.689  0.4758 -0.0033 -0.5501
10206TIP3    H152033   2.038   6.449  12.739 -0.1550 -0.5242 -1.0988
10206TIP3    H252034   2.093   6.437  12.598  1.8707  1.3848 -0.5263
10207TIP3   OH252035   2.885   3.763  13.404  0.1135 -0.3268  0.1603
10207TIP3    H152036   2.894   3.751  13.498 -0.8934 -0.1619  0.2888
10207TIP3    H252037   2.867   3.676  13.369 -1.6536 -0.1110  0.4094
10208TIP3   OH252038   4.759   5.024   2.784  0.3867 -0.2016 -0.3114
10208TIP3    H152039   4.770   5.105   2.733  2.4844 -0.2974 -0.0918
10208TIP3    H252040   4.736   5.053   2.872  0.3922  0.1358 -0.4209
10209TIP3   OH252041   1.964   5.844   5.229 -0.1134 -0.2904 -0.1828
10209TIP3    H152042   2.004   5.765   5.193  0.2738 -0.2417  0.1305
10209TIP3    H252043   1.890   5.812   5.281 -2.2546 -0.2465 -2.9089
10210TIP3   OH252044   2.803   3.906   2.488 -0.1844 -0.2048  0.2085
10210TIP3    H152045   2.788   3.892   2.395 -1.8180 -0.2195  0.4437
10210TIP3    H252046   2.865   3.978   2.492 -1.5732  1.1049 -0.8923
10211TIP3   OH252047   0.063   4.246   1.272  0.0131  0.2543 -0.4151
10211TIP3    H152048   0.038   4.157   1.245 -0.9085  0.5394 -0.5383
10211TIP3    H252049   0.077   4.293   1.190  0.9933  0.1045 -0.3496
10212TIP3   OH252050   1.965   4.161  15.501  0.2756 -0.3309 -0.0077
10212TIP3    H152051   1.908   4.102  15.451 -0.0972  0.5918 -0.7073
10212TIP3    H252052   1.910   4.190  15.574 -0.4218  1.0865 -1.0549
10213TIP3   OH252053   0.692   0.196  11.151 -0.4511  0.6179 -0.2054
10213TIP3    H152054   0.715   0.288  11.146  2.5351  0.0722  1.3517
10213TIP3    H252055   0.741   0.155  11.080  0.6495 -0.1305  0.9494
10214TIP3   OH252056   6.660   3.947   0.327  0.5359  0.5265 -0.4256
10214TIP3    H152057   6.720   3.878   0.300 -0.5702 -1.7957  2.4654
10214TIP3    H252058   6.717   4.016   0.362  1.6443 -1.0874  1.1338
10215TIP3   OH252059   2.038   6.252   3.312  0.5607 -0.9178  0.2776
10215TIP3    H152060   2.107   6.246   3.245 -0.3108 -1.3931 -0.5988
10215TIP3    H252061   2.047   6.340   3.348 -0.0716  0.0183 -1.7141
10216TIP3   OH252062   6.203   5.278   4.704 -0.0484  0.0355  0.0782
10216TIP3    H152063   6.191   5.302   4.612  1.1572  0.1255 -0.0781
10216TIP3    H252064   6.294   5.248   4.709 -0.1681 -0.1924  1.1968
10217TIP3   OH252065   3.451   5.735  11.054  0.3099 -0.5340 -0.4082
10217TIP3    H152066   3.470   5.745  10.961 -1.0451 -2.6246 -0.9827
10217TIP3    H252067   3.363   5.772  11.065 -0.4227 -2.1319 -0.4664
10218TIP3   OH252068   5.449   0.955  14.133  0.2036  0.3459  0.0090
10218TIP3    H152069   5.490   0.869  14.143  1.3102  0.8666  0.0914
10218TIP3    H252070   5.414   0.975  14.220  0.9123  0.4440  0.2833
10219TIP3   OH252071   3.144   1.991  12.490  0.3702  0.0336 -0.2074
10219TIP3    H152072   3.052   1.962  12.492  0.1998  0.5966  0.6797
10219TIP3    H252073   3.157   2.035  12.573  0.8759  1.7231 -1.1337
10220TIP3   OH252074   0.069   4.720  13.881  0.1877  0.0635 -0.2553
10220TIP3    H152075   0.028   4.806  13.891 -0.1056 -0.1976  0.8693
10220TIP3    H252076   0.144   4.722  13.941  0.0211 -0.5595 -0.0200
10221TIP3   OH252077   6.658   6.032   1.793  0.1860 -0.0054  0.4449
10221TIP3    H152078   6.712   6.100   1.752 -0.7821  1.1845  1.0796
10221TIP3    H252079   6.609   6.078   1.861  0.4236 -1.5917  1.7472
10222TIP3   OH252080   0.238   4.378  15.288  0.4112  0.3286 -0.5431
10222TIP3    H152081   0.283   4.298  15.263 -0.7137  0.5937 -3.8709
10222TIP3    H252082   0.276   4.446  15.233 -1.2759  1.3098 -0.5838
10223TIP3   OH252083   2.521   3.610  15.928  0.2876 -0.2709 -0.3926
10223TIP3    H152084   2.566   3.537  15.886 -0.5379 -0.8483 -0.2945
10223TIP3    H252085   2.551   3.609  16.018  0.2996 -0.4695 -0.3996
10224TIP3   OH252086   4.618   1.352   1.779 -0.0760 -0.1892  0.6095
10224TIP3    H152087   4.625   1.278   1.839 -0.0775 -0.4196  0.3257
10224TIP3    H252088   4.544   1.403   1.811  0.1433 -0.1183  1.0142
10225TIP3   OH252089   5.676   0.242   9.987 -0.0100 -0.0182 -0.2453
10225TIP3    H152090   5.611   0.213   9.923 -0.7503  2.7838 -0.9096
10225TIP3    H252091   5.624   0.276  10.060  0.6877  1.4256 -0.3827
10226TIP3   OH252092   0.011   2.752   1.166  0.3061 -0.2823 -0.4874
10226TIP3    H152093   0.045   2.777   1.252 -0.3146 -0.8970 -0.0481
10226TIP3    H252094   0.087   2.716   1.120  0.3155 -1.5005  0.4247
10227TIP3   OH252095   4.246   6.028   2.974 -0.2743  0.0671  0.3276
10227TIP3    H152096   4.242   6.069   3.060 -1.0522 -1.3928  1.0195
10227TIP3    H252097   4.327   5.976   2.976 -0.2757  0.0568  0.1583
10228TIP3   OH252098   1.630   2.419   2.868  0.1708  0.2220 -0.0577
10228TIP3    H152099   1.638   2.497   2.814 -0.3188  0.1741 -0.2033
10228TIP3    H252100   1.684   2.353   2.824  0.0042  0.2671 -0.3340
10229TIP3   OH252101   5.431   6.573   1.744 -0.5285  0.6327  0.4711
10229TIP3    H152102   5.379   6.492   1.740 -2.0690  1.4512  2.1272
10229TIP3    H252103   5.505   6.557   1.686 -2.3992 -0.7954 -1.7195
10230TIP3   OH252104   3.605   0.207  12.994  0.1772 -0.1954  0.5000
10230TIP3    H152105   3.553   0.230  12.917  1.2389 -0.3236 -0.2650
10230TIP3    H252106   3.545   0.222  13.067 -0.8956 -0.1974 -0.3427
10231TIP3   OH252107   5.178   6.579  13.586  0.5180  0.6407  0.0739
10231TIP3    H152108   5.236   6.579  13.510  0.3607  2.5079 -0.0895
10231TIP3    H252109   5.228   6.624  13.654  0.6448 -0.9820  1.1139
10232TIP3   OH252110   0.748   2.972  15.801 -0.3119 -0.2533  0.1083
10232TIP3    H152111   0.754   2.880  15.828 -0.8864 -0.2667  0.2124
10232TIP3    H252112   0.730   2.968  15.707  1.7666 -0.2053 -0.3249
10233TIP3   OH252113   4.813   0.908   4.936  0.2606 -0.6946  0.9315
10233TIP3    H152114   4.744   0.848   4.910 -0.5293  0.4248  0.3381
10233TIP3    H252115   4.894   0.857   4.928 -0.3611 -1.5915  0.1879
10234TIP3   OH252116   5.124   3.521  16.072 -0.0520 -0.3507  0.0364
10234TIP3    H152117   5.124   3.568  16.155 -2.7066 -0.2283  0.0320
10234TIP3    H252118   5.137   3.588  16.005  0.4796 -0.2378  0.2486
10235TIP3   OH252119   1.769   4.777   4.847  0.1914 -0.1565  0.2436
10235TIP3    H152120   1.719   4.741   4.920  1.3131 -0.3854  0.9072
10235TIP3    H252121   1.827   4.706   4.820 -0.6891 -0.3267 -1.3497
10236TIP3   OH252122   5.538   4.247   3.586 -0.1662  0.2356  0.6613
10236TIP3    H152123   5.556   4.327   3.536  0.5362  0.9460  2.0076
10236TIP3    H252124   5.446   4.227   3.566 -0.3162  1.3089  0.2019
10237TIP3   OH252125   1.788   5.615   2.960  0.3406 -0.2301  0.3090
10237TIP3    H152126   1.703   5.571   2.967  1.1809 -2.6044 -2.3906
10237TIP3    H252127   1.766   5.706   2.942 -1.5613 -0.3476  1.6861
10238TIP3   OH252128   3.673   4.375   3.865 -0.1448  0.3137  0.3849
10238TIP3    H152129   3.621   4.369   3.785  0.2913 -0.3525  0.1423
10238TIP3    H252130   3.738   4.306   3.856  1.0475  1.3832  0.4839
10239TIP3   OH252131   2.061   5.976   3.378  0.1099 -0.6889  0.1827
10239TIP3    H152132   1.967   5.990   3.365  0.4842  1.3241 -0.7811
10239TIP3    H252133   2.101   6.060   3.356  1.9976 -0.8966  2.4121
10240TIP3   OH252134   6.145   2.273  13.997  0.0686  0.0513 -0.4095
10240TIP3    H152135   6.098   2.340  14.046  0.6147 -0.1387  0.3846
10240TIP3    H252136   6.081   2.203  13.985  0.1089 -0.1729  0.5916
10241TIP3   OH252137   3.329   6.082  12.217 -0.3716  0.3305  0.1839
10241TIP3    H152138   3.262   6.019  12.243 -1.0877  1.2547  0.6154
10241TIP3    H252139   3.408   6.053  12.263 -0.5269 -0.6013 -0.1100
10242TIP3   OH252140   2.190   4.722   0.742  0.4121  0.4730 -0.4824
10242TIP3    H152141   2.213   4.787   0.676  0.6305  0.3908 -0.4905
10242TIP3    H252142   2.154   4.649   0.692  1.1443  0.1613 -0.5713
10243TIP3   OH252143   3.963   0.147  16.595 -0.4693  0.2163 -0.1673
10243TIP3    H152144   4.008   0.114  16.516  0.8098 -0.4032  0.7756
10243TIP3    H252145   4.021   0.216  16.627 -0.6999  0.0819  0.5339
10244TIP3   OH252146   3.354   4.213  13.236  0.8872 -0.1545 -0.0044
10244TIP3    H152147   3.414   4.270  13.188  0.0585  1.6223  0.9645
10244TIP3    H252148   3.270   4.222  13.191  0.8191 -0.9098 -0.0475
10245TIP3   OH252149   0.227   6.516  12.808 -0.5367  0.1121  0.8081
10245TIP3    H152150   0.247   6.531  12.900  0.0407 -0.6723  0.8257
10245TIP3    H252151   0.284   6.577  12.761 -0.9432  0.6225  0.9637
10246TIP3   OH252152   4.934   6.088  13.554  0.0157  0.0269  0.3776
10246TIP3    H152153   4.909   6.005  13.595 -0.8876  0.1230  0.0474
10246TIP3    H252154   4.869   6.150  13.585  1.2750  0.8663  1.4386
10247TIP3   OH252155   5.982   2.127  16.067 -0.1987  0.0447 -0.4187
10247TIP3    H152156   5.902   2.109  16.017  0.3946 -0.3383 -1.2476
10247TIP3    H252157   6.053   2.094  16.012  0.4759 -0.4572  0.7173
10248TIP3   OH252158   3.006   5.021   3.528 -0.4356 -0.8488 -0.2419
10248TIP3    H152159   3.021   5.105   3.484  2.4896 -0.1047  1.7840
10248TIP3    H252160   2.932   5.038   3.586  0.8537  0.8718  1.0463
10249TIP3   OH252161   1.497   6.315  12.399  0.0076  0.4717 -0.0628
10249TIP3    H152162   1.504   6.224  12.428  0.8592  0.2320 -0.9537
10249TIP3    H252163   1.535   6.366  12.470 -2.1339  0.3287  1.2718
10250TIP3   OH252164   1.136   5.302   1.608  0.1417 -0.2112  0.1768
10250TIP3    H152165   1.187   5.301   1.689  1.7220  1.2312 -0.7412
10250TIP3    H252166   1.045   5.307   1.637  0.7206  1.6621  1.8735
10251TIP3   OH252167   1.522   2.628  11.627  0.4384 -0.3774 -0.0607
10251TIP3    H152168   1.443   2.593  11.586  0.2511  0.7566 -0.7102
10251TIP3    H252169   1.489   2.679  11.701  0.3484  1.6290 -1.3840
10252TIP3   OH252170   1.917   3.556   3.640 -0.8869 -0.0584  0.2370
10252TIP3    H152171   1.968   3.555   3.721 -2.6504 -1.6973  1.4164
10252TIP3    H252172   1.971   3.509   3.576  0.2483  0.6930  0.6202
10253TIP3   OH252173   2.204   3.544   1.983  0.1752  0.0936  0.0491
10253TIP3    H152174   2.272   3.497   1.934 -0.6139  0.0084 -0.9758
10253TIP3    H252175   2.123   3.527   1.935 -0.4504  0.8542  0.8102
10254TIP3   OH252176   1.798   3.503   4.071  0.1371 -0.1650  0.7291
10254TIP3    H152177   1.865   3.566   4.097 -0.3770  2.0219 -2.6683
10254TIP3    H252178   1.846   3.433   4.028  0.4197  0.9963 -0.9540
10255TIP3   OH252179   1.285   5.401  14.923  0.0193 -0.1462  0.4751
10255TIP3    H152180   1.274   5.472  14.987 -0.3875 -0.5874  0.8996
10255TIP3    H252181   1.204   5.351  14.928 -0.1233 -0.0403 -0.5820
10256TIP3   OH252182   4.568   6.745   0.115  0.2401 -0.3869 -0.2899
10256TIP3    H152183   4.648   6.703   0.145 -0.1612 -0.4554  0.7470
10256TIP3    H252184   4.562   6.825   0.167 -0.5592 -0.5860 -0.0539
10257TIP3   OH252185   4.109   5.239   3.432 -0.2153  0.1981 -0.4261
10257TIP3    H152186   4.066   5.250   3.347  1.2825 -0.3644 -1.2997
10257TIP3    H252187   4.152   5.153   3.426 -0.2370  0.0614  0.9878
10258TIP3   OH252188   5.294   3.268   4.637 -0.5355 -0.1418 -0.6567
10258TIP3    H152189   5.223   3.260   4.701  0.3141 -1.1191  0.2110
10258TIP3    H252190   5.316   3.361   4.638 -2.0057  0.2506 -1.2048
10259TIP3   OH252191   2.888   1.775  11.215 -0.4254  0.2500  0.2449
10259TIP3    H152192   2.905   1.719  11.139 -0.6307 -0.2247  0.5406
10259TIP3    H252193   2.819   1.834  11.186  0.1874  0.7343 -0.2554
10260TIP3   OH252194   4.648   3.126   4.936 -0.0548  0.5870 -0.1861
10260TIP3    H152195   4.640   3.131   4.840 -2.3381 -1.6514 -0.2308
10260TIP3    H252196   4.712   3.056   4.951 -1.4091 -0.7214 -0.1928
10261TIP3   OH252197   5.007   0.500  15.841  0.1235 -0.0101  0.2170
10261TIP3    H152198   5.017   0.479  15.748 -0.2359 -0.3023  0.2431
10261TIP3    H252199   5.072   0.446  15.885  0.1570 -0.0236  0.1509
10262TIP3   OH252200   3.312   4.685   6.049  0.2991 -0.3270  0.3424
10262TIP3    H152201   3.236   4.712   6.101 -0.8098 -2.5925  0.0339
10262TIP3    H252202   3.368   4.637   6.110  0.4911 -0.3791  0.1272
10263TIP3   OH252203   0.140   4.524  15.615  0.3080  0.3784  0.1988
10263TIP3    H152204   0.177   4.608  15.640  0.3553  0.3204  0.3233
10263TIP3    H252205   0.074   4.545  15.549  0.2399  0.5228  0.3129
10264TIP3   OH252206   1.530   5.152   2.553  0.1523 -0.3862  0.2287
10264TIP3    H152207   1.543   5.100   2.474  0.1596  0.4525 -0.3325
10264TIP3    H252208   1.606   5.210   2.557 -0.1157 -0.0462  0.5559
10265TIP3   OH252209   0.150   3.199  10.543  0.1710  0.0335 -0.0615
10265TIP3    H152210   0.145   3.215  10.449  1.1547  0.1116 -0.1068
10265TIP3    H252211   0.234   3.236  10.569 -0.4027  0.6629  0.9773
10266TIP3   OH252212   4.996   1.081  15.283 -0.8293  0.1526  0.0965
10266TIP3    H152213   5.060   1.041  15.225 -1.1243  1.4422 -1.1772
10266TIP3    H252214   5.041   1.087  15.368 -0.3095 -1.5505 -0.0308
10267TIP3   OH252215   2.071   4.794  11.304 -0.3123 -0.0088 -0.1805
10267TIP3    H152216   2.145   4.756  11.256 -0.9105 -1.4083 -0.0238
10267TIP3    H252217   2.006   4.813  11.237  0.0187  0.8684 -0.2702
10268TIP3   OH252218   2.877   4.827  14.787  0.0137 -0.0804 -0.0200
10268TIP3    H152219   2.787   4.799  14.803 -0.1648  0.2032 -0.4962
10268TIP3    H252220   2.911   4.764  14.724  0.7823 -1.3158  1.5560
10269TIP3   OH252221   5.447   0.411   2.746 -0.0983  0.6843  0.0537
10269TIP3    H152222   5.384   0.341   2.730 -0.1986  0.2443  2.0844
10269TIP3    H252223   5.503   0.411   2.669 -1.2386 -0.3659 -0.8289
10270TIP3   OH252224   4.878   3.259   3.836 -0.0941 -0.2403  0.1061
10270TIP3    H152225   4.858   3.264   3.743  0.3280 -1.0760 -0.0394
10270TIP3    H252226   4.900   3.349   3.861 -3.0473  0.5798  0.0887
10271TIP3   OH252227   4.210   0.733   5.579 -0.5747  0.0064  0.2080
10271TIP3    H152228   4.299   0.701   5.593 -0.7896  0.1369  2.1260
10271TIP3    H252229   4.160   0.655   5.556 -0.0658 -0.1297 -0.4870
10272TIP3   OH252230   0.386   3.694   1.475 -0.0806  0.7896 -0.0837
10272TIP3    H152231   0.318   3.656   1.531 -1.1914  3.6298  0.7131
10272TIP3    H252232   0.397   3.783   1.509  0.9348  1.8621 -2.9412
10273TIP3   OH252233   2.193   2.199  16.568 -0.6287  0.5454  0.4332
10273TIP3    H152234   2.253   2.273  16.575  0.1155  0.1126 -0.9530
10273TIP3    H252235   2.188   2.163  16.656  2.5061 -0.4262  0.3281
10274TIP3   OH252236   1.430   3.434   3.442 -0.0841  0.3873 -0.1625
10274TIP3    H152237   1.516   3.417   3.478  1.3497  1.1242 -2.9327
10274TIP3    H252238   1.423   3.376   3.366 -1.2893  1.5313 -0.9831
10275TIP3   OH252239   5.061   3.972   5.463  1.0624  0.0836  0.0027
10275TIP3    H152240   5.055   3.888   5.418  1.0995  0.0686  0.0259
10275TIP3    H252241   5.145   3.969   5.508  1.4488  0.4718 -0.6839
10276TIP3   OH252242   1.267   1.553  16.006  0.0835  0.4651  0.3286
10276TIP3    H152243   1.195   1.591  15.956  0.7005  2.3125  0.7907
10276TIP3    H252244   1.308   1.627  16.050  0.2025 -0.9454  2.7821
10277TIP3   OH252245   6.777   6.482  11.039 -0.0241 -0.0881  0.3176
10277TIP3    H152246   6.777   6.563  11.091 -1.4970  1.7006 -2.2230
10277TIP3    H252247   6.684   6.461  11.027  0.2936 -0.9915 -0.7346
10278TIP3   OH252248   1.651   0.648   2.747  0.1839 -0.1512 -0.4630
10278TIP3    H152249   1.660   0.728   2.799 -1.1276  0.6058 -1.3296
10278TIP3    H252250   1.559   0.624   2.757  0.7520 -2.1518  0.5741
10279TIP3   OH252251   6.852   0.881   4.632 -0.8134  0.6390 -0.3170
10279TIP3    H152252   6.814   0.968   4.622 -0.6817  0.5479 -1.8142
10279TIP3    H252253   6.930   0.883   4.577  0.6383  0.3875  1.6345
10280TIP3   OH252254   5.140   5.095  14.907 -0.0171  0.5136 -0.3130
10280TIP3    H152255   5.139   5.115  14.813 -2.1839 -0.2563 -0.5181
10280TIP3    H252256   5.070   5.149  14.944 -1.1168 -1.2284  0.3178
10281TIP3   OH252257   0.284   2.630  16.165 -0.0210  0.0478 -0.2624
10281TIP3    H152258   0.369   2.630  16.208 -0.3508  2.5585  0.5448
10281TIP3    H252259   0.246   2.715  16.186 -2.7788 -1.0007 -0.5609
10282TIP3   OH252260   3.436   0.095   3.782  0.1355  0.2184 -0.0762
10282TIP3    H152261   3.460   0.168   3.839 -0.9902  0.5970 -0.0660
10282TIP3    H252262   3.389   0.135   3.709  0.3804 -0.4034 -0.5909
10283TIP3   OH252263   6.289   0.812   2.155 -0.2357  0.4349 -0.5048
10283TIP3    H152264   6.257   0.778   2.071 -0.4966 -1.3714  0.2688
10283TIP3    H252265   6.221   0.789   2.217  0.4801  0.7175  0.4047
10284TIP3   OH252266   4.819   4.189   4.676 -0.2170  0.1731  0.2330
10284TIP3    H152267   4.769   4.241   4.738 -1.4101 -1.8549  1.0380
10284TIP3    H252268   4.791   4.099   4.690 -0.1381 -0.4628 -2.8740
10285TIP3   OH252269   6.274   4.672   4.890 -0.1208  0.3945 -0.0610
10285TIP3    H152270   6.313   4.599   4.842  1.4396  0.3674  1.1767
10285TIP3    H252271   6.186   4.680   4.853  0.2408 -1.0449 -1.3513
10286TIP3   OH252272   6.214   2.908   2.936 -0.0043 -0.1422 -0.5404
10286TIP3    H152273   6.157   2.897   2.861 -1.2797 -1.1542  0.5357
10286TIP3    H252274   6.167   2.969   2.993  1.0711  0.8258 -0.6480
10287TIP3   OH252275   3.398   5.808   3.911 -0.2734 -0.1454  0.4516
10287TIP3    H152276   3.344   5.751   3.966 -0.7117 -0.4397 -0.2681
10287TIP3    H252277   3.362   5.797   3.823  1.9917 -1.6585 -0.3776
10288TIP3   OH252278   4.850   2.419  11.033  0.2456 -0.4965  0.0997
10288TIP3    H152279   4.942   2.398  11.018  0.4317  0.9228 -1.0394
10288TIP3    H252280   4.809   2.410  10.947 -0.8385 -1.6971  0.7045
10289TIP3   OH252281   4.601   3.472   2.123  0.8530 -0.0742 -0.3192
10289TIP3    H152282   4.608   3.390   2.172 -0.1335  0.7526  1.3093
10289TIP3    H252283   4.541   3.452   2.051  1.1521 -0.9388 -0.3407
10290TIP3   OH252284   2.715   0.114  15.262 -1.1716 -0.1875 -0.0911
10290TIP3    H152285   2.682   0.199  15.291 -2.1427  0.0354 -1.6918
10290TIP3    H252286   2.653   0.086  15.195 -0.3425 -1.7312 -0.2658
10291TIP3   OH252287   0.777   2.648  15.354  0.1747  0.7153  0.1877
10291TIP3    H152288   0.732   2.573  15.317  2.4455 -0.7246  0.1277
10291TIP3    H252289   0.773   2.715  15.285  0.0576 -0.1660 -0.6860
10292TIP3   OH252290   0.966   6.328   0.452 -0.7768 -0.1849 -0.5805
10292TIP3    H152291   0.928   6.413   0.474 -0.4242  0.3218 -1.8499
10292TIP3    H252292   1.029   6.347   0.382  0.9875 -1.1540  0.6502
10293TIP3   OH252293   4.411   2.769   6.151  0.0006 -0.2134  0.4375
10293TIP3    H152294   4.500   2.796   6.130  0.2922 -2.1978 -1.0955
10293TIP3    H252295   4.421   2.696   6.212 -0.5790 -0.2669  0.4802
10294TIP3   OH252296   6.122   0.191   4.352  0.6628 -0.0524 -0.0187
10294TIP3    H152297   6.195   0.176   4.410  2.6695 -0.2262 -2.4230
10294TIP3    H252298   6.132   0.127   4.281 -1.9184 -0.1917 -0.3910
10295TIP3   OH252299   3.155   3.980  11.050 -0.1974 -0.2416  0.4180
10295TIP3    H152300   3.093   3.945  10.986 -1.3019 -1.6439  2.1490
10295TIP3    H252301   3.240   3.945  11.022  0.4143  3.4197 -3.2324
10296TIP3   OH252302   4.490   5.196   1.677  0.0620  0.5013 -0.1609
10296TIP3    H152303   4.538   5.233   1.751 -0.5077 -0.1958  0.5711
10296TIP3    H252304   4.399   5.196   1.705  0.0516 -1.5725 -0.0581
10297TIP3   OH252305   2.364   4.260  11.391 -0.0214 -0.3711 -0.3960
10297TIP3    H152306   2.275   4.262  11.425  0.1721  0.6726  0.1031
10297TIP3    H252307   2.354   4.275  11.297 -0.2906  1.6020 -0.0949
10298TIP3   OH252308   0.079   2.195  15.747 -0.3916 -0.6204  0.2683
10298TIP3    H152309   0.026   2.115  15.752  0.2100 -1.0106  0.5886
10298TIP3    H252310   0.019   2.262  15.717 -1.1570 -0.9820  0.9516
10299TIP3   OH252311   0.289   4.939  16.416 -0.4889 -0.2908  0.7636
10299TIP3    H152312   0.307   4.985  16.334  0.3443 -3.2410 -0.8689
10299TIP3    H252313   0.357   4.969  16.476 -0.3845  1.0551  0.0048
10300TIP3   OH252314   2.919   0.785   4.896 -0.0189 -0.2534 -0.3187
10300TIP3    H152315   2.903   0.869   4.853 -0.8259  0.1801  0.7869
10300TIP3    H252316   2.858   0.783   4.969 -0.8725 -2.3398 -1.0133
10301TIP3   OH252317   4.813   4.753   1.034  0.0177 -0.6317 -0.1344
10301TIP3    H152318   4.890   4.759   0.978 -0.0307  0.0308 -0.1311
10301TIP3    H252319   4.794   4.843   1.059 -0.6143 -0.8178  0.0672
10302TIP3   OH252320   4.626   0.734  16.578  0.1397 -0.6515  0.1621
10302TIP3    H152321   4.647   0.758  16.488  1.5540  2.6758  1.1759
10302TIP3    H252322   4.711   0.714  16.618  0.0642  1.4086  1.5242
10303TIP3   OH252323   3.004   1.642   1.313 -0.0651  0.1241 -0.0595
10303TIP3    H152324   3.082   1.646   1.368 -1.3714 -2.3446  2.2100
10303TIP3    H252325   3.029   1.585   1.240  0.8236  1.0267 -0.4751
10304TIP3   OH252326   6.737   2.556  13.399 -0.2551  0.0815  0.0933
10304TIP3    H152327   6.705   2.475  13.438 -1.4117  1.0157  1.1609
10304TIP3    H252328   6.712   2.625  13.461 -0.0277  1.3584 -1.1687
10305TIP3   OH252329   0.332   4.751   5.721 -0.3855 -0.2732  0.2043
10305TIP3    H152330   0.273   4.729   5.793 -1.6754 -0.0428 -0.7451
10305TIP3    H252331   0.396   4.681   5.720 -1.0723 -0.9219  0.8175
10306TIP3   OH252332   6.067   2.161  15.217 -0.3632 -0.4077  0.6557
10306TIP3    H152333   6.039   2.104  15.146  1.5289 -0.7879  0.1610
10306TIP3    H252334   6.005   2.233  15.216  0.6796  0.6099 -2.6692
10307TIP3   OH252335   1.717   0.953  12.428 -0.3567 -0.5152  0.0070
10307TIP3    H152336   1.700   0.954  12.333  1.0001  1.6403 -0.2658
10307TIP3    H252337   1.783   0.885  12.439 -0.2733 -0.5505 -0.6405
10308TIP3   OH252338   1.373   4.154  14.928  0.2246  0.5274  0.0903
10308TIP3    H152339   1.321   4.167  15.008  0.3639 -0.3903  0.3448
10308TIP3    H252340   1.426   4.076  14.947  0.0536  0.1355 -1.0074
10309TIP3   OH252341   5.039   0.774   1.330 -0.0967  0.0745  0.2007
10309TIP3    H152342   4.995   0.848   1.289  0.6013 -0.8094 -2.3085
10309TIP3    H252343   5.015   0.699   1.275  1.3791 -1.0931  1.0893
10310TIP3   OH252344   4.808   5.799   9.909  0.1468 -0.5110 -0.2039
10310TIP3    H152345   4.795   5.839   9.995  1.0396 -1.0639  0.1983
10310TIP3    H252346   4.866   5.860   9.863  0.9788 -1.0057  0.1748
10311TIP3   OH252347   4.648   1.965   1.555  0.0017  0.5576  0.1614
10311TIP3    H152348   4.607   1.901   1.498  1.9565  0.7572 -1.5947
10311TIP3    H252349   4.651   1.924   1.641 -3.7882  0.5745  0.4401
10312TIP3   OH252350   6.595   0.093   1.560 -0.2387  0.9357 -0.0418
10312TIP3    H152351   6.526   0.146   1.599  0.1773  1.3180  0.1910
10312TIP3    H252352   6.634   0.047   1.634 -0.6654  0.2190 -0.2576
10313TIP3   OH252353   4.788   1.301   0.205  0.2091  0.0213 -0.5472
10313TIP3    H152354   4.852   1.269   0.269 -0.6679 -2.7455 -0.8969
10313TIP3    H252355   4.713   1.329   0.259  0.2344 -0.4518 -0.2521
10314TIP3   OH252356   5.351   3.738   4.590 -0.2855 -0.3920  0.4805
10314TIP3    H152357   5.316   3.825   4.605 -0.0644  0.0189 -1.1624
10314TIP3    H252358   5.275   3.686   4.563 -0.2246 -0.4185  0.3614
10315TIP3   OH252359   5.020   0.252   2.485 -0.4109 -0.0195 -0.4513
10315TIP3    H152360   4.993   0.161   2.477 -0.0784 -0.1569 -0.0263
10315TIP3    H252361   5.064   0.257   2.570  0.1158  0.4035 -0.7415
10316TIP3   OH252362   3.781   6.028   4.052 -0.4195 -0.6126  0.0107
10316TIP3    H152363   3.874   6.017   4.037 -0.4949  0.2072 -1.2747
10316TIP3    H252364   3.774   6.057   4.142  0.4185 -2.1986  0.6326
10317TIP3   OH252365   2.799   6.326  10.269  0.1525 -0.0137 -0.0286
10317TIP3    H152366   2.744   6.279  10.206  0.8452  0.2668 -0.8643
10317TIP3    H252367   2.813   6.263  10.340 -1.4925  0.0226  0.3618
10318TIP3   OH252368   0.574   1.159  14.574 -0.3418  0.5235 -0.7652
10318TIP3    H152369   0.516   1.217  14.622 -0.1258  1.5940 -1.7426
10318TIP3    H252370   0.584   1.082  14.630 -1.3074  1.0668  0.1797
10319TIP3   OH252371   1.904   1.533   3.654  0.3311 -0.2403  0.1097
10319TIP3    H152372   1.990   1.501   3.679  0.8473  0.1488 -1.1023
10319TIP3    H252373   1.847   1.456   3.656  0.9387 -0.6965 -0.0931
10320TIP3   OH252374   4.605   3.999  16.295 -0.3728 -0.3596 -0.0995
10320TIP3    H152375   4.540   4.058  16.334  2.2867  3.8760 -1.4243
10320TIP3    H252376   4.554   3.923  16.267 -3.9685  0.7186  2.6637
10321TIP3   OH252377   4.478   4.045   4.890 -0.3481 -0.3317  0.2469
10321TIP3    H152378   4.385   4.038   4.869 -0.1966 -1.5388 -0.1105
10321TIP3    H252379   4.521   3.988   4.826  0.4503 -1.4012  1.6907
10322TIP3   OH252380   2.307   1.192  12.763 -0.3669  0.1330 -0.1292
10322TIP3    H152381   2.344   1.121  12.711 -2.0698 -0.2749 -0.8140
10322TIP3    H252382   2.383   1.231  12.807  0.7968 -1.0286 -1.0468
10323TIP3   OH252383   1.116   3.285  11.599 -0.2292 -0.1409 -0.0705
10323TIP3    H152384   1.025   3.297  11.572 -0.0122  1.3021 -0.2609
10323TIP3    H252385   1.111   3.264  11.692 -0.7589 -0.1791 -0.1045
10324TIP3   OH252386   2.056   5.374   5.463 -0.1087 -0.0216  0.2283
10324TIP3    H152387   2.081   5.435   5.532  0.3440  0.9624 -0.7673
10324TIP3    H252388   2.122   5.388   5.394 -0.3540 -1.2023 -0.2651
10325TIP3   OH252389   3.618   3.384  14.369 -0.1718 -0.4356 -0.0333
10325TIP3    H152390   3.654   3.389  14.280 -2.0754 -0.3558 -0.8450
10325TIP3    H252391   3.558   3.309  14.366  1.4880 -1.9717  1.9107
10326TIP3   OH252392   1.084   6.327   0.202 -0.2538 -0.4458  0.0066
10326TIP3    H152393   1.057   6.236   0.186  0.2261 -0.5244 -0.3747
10326TIP3    H252394   1.141   6.348   0.128 -0.3446  0.1602  0.1061
10327TIP3   OH252395   4.633   0.696  11.685 -0.0337 -0.0882 -0.0853
10327TIP3    H152396   4.687   0.703  11.607 -1.1902  1.5290 -0.7897
10327TIP3    H252397   4.658   0.771  11.739  2.9088 -2.7251  2.6261
10328TIP3   OH252398   0.017   0.917   2.271 -0.1388 -0.4083  0.6958
10328TIP3    H152399   0.014   0.848   2.204 -0.1747 -1.3144  1.6079
10328TIP3    H252400   0.042   0.871   2.351  0.4475  0.7508  1.1983
10329TIP3   OH252401   2.091   0.475   6.080  0.1751 -0.8966 -0.7334
10329TIP3    H152402   2.004   0.436   6.085  0.5683 -1.8513 -1.0269
10329TIP3    H252403   2.141   0.415   6.025  1.2160 -0.7254  0.0002
10330TIP3   OH252404   1.832   1.467  15.446  0.2141 -0.0155  0.5248
10330TIP3    H152405   1.779   1.543  15.469 -0.5742 -0.3627 -0.0760
10330TIP3    H252406   1.782   1.423  15.377  1.8888  0.3225 -0.9848
10331TIP3   OH252407   2.472   3.230  11.764 -0.2466 -0.1798  0.5525
10331TIP3    H152408   2.545   3.190  11.811 -0.3514  1.2942  2.0249
10331TIP3    H252409   2.466   3.319  11.799 -1.5173  0.3633 -0.9440
10332TIP3   OH252410   0.018   5.445  14.846  0.0605  0.1640 -0.4176
10332TIP3    H152411  -0.040   5.435  14.771  1.8650  0.7654 -1.9788
10332TIP3    H252412  -0.034   5.493  14.911 -1.2172  0.5620 -1.6917
10333TIP3   OH252413   0.397   5.983  15.071 -0.0098  0.0730  0.1046
10333TIP3    H152414   0.390   6.077  15.090  0.3139 -0.1160  1.2616
10333TIP3    H252415   0.391   5.977  14.976 -1.2409  1.1513  0.0865
10334TIP3   OH252416   1.416   5.617   1.707  0.1576  0.5467  0.6717
10334TIP3    H152417   1.485   5.678   1.735  3.2396 -3.0737  1.6800
10334TIP3    H252418   1.439   5.593   1.617 -0.3486 -0.0355  0.6901
10335TIP3   OH252419   0.064   3.418  12.980 -0.0244 -0.0103  0.2311
10335TIP3    H152420   0.069   3.444  12.888 -0.0965  0.2476  0.2986
10335TIP3    H252421   0.143   3.456  13.019 -0.1731  0.1720  0.3492
10336TIP3   OH252422   0.416   6.022  16.025 -0.0022 -0.0878 -0.4936
10336TIP3    H152423   0.508   6.017  16.000 -0.3207  1.1589 -2.1106
10336TIP3    H252424   0.392   6.114  16.009 -1.8632 -0.6840 -1.4009
10337TIP3   OH252425   1.232   5.479   2.247  1.1140  0.5154  0.3815
10337TIP3    H152426   1.288   5.434   2.309  0.9100 -0.6084 -0.2290
10337TIP3    H252427   1.167   5.414   2.221  0.7823  1.1689 -0.4861
10338TIP3   OH252428   2.707   4.532  13.177 -0.0939 -0.1861  0.3665
10338TIP3    H152429   2.668   4.491  13.255 -2.0254  0.2801 -0.2982
10338TIP3    H252430   2.778   4.586  13.211 -0.9613  0.0859  1.8251
10339TIP3   OH252431   3.484   6.825   2.827 -0.0749 -0.2254  0.1131
10339TIP3    H152432   3.420   6.755   2.839 -0.6123  0.1730 -0.3308
10339TIP3    H252433   3.545   6.792   2.761 -1.4900  0.4622 -1.6301
10340TIP3   OH252434   5.672   3.246  11.176 -0.2356 -0.1683  0.0863
10340TIP3    H152435   5.620   3.168  11.191  0.4613 -0.3479  1.7517
10340TIP3    H252436   5.680   3.287  11.262  1.2250  0.5743 -0.3690
10341TIP3   OH252437   2.059   4.467  16.608 -0.1459 -0.3788 -0.2374
10341TIP3    H152438   2.124   4.400  16.589  0.2520 -0.5201  1.4339
10341TIP3    H252439   2.109   4.549  16.606 -0.3055 -0.2964 -0.7759
10342TIP3   OH252440   0.294   2.522   9.829 -0.2196  0.0523 -0.3220
10342TIP3    H152441   0.248   2.476   9.759 -0.6588 -0.6530  0.4091
10342TIP3    H252442   0.374   2.554   9.788 -0.5189 -0.2515 -1.1720
10343TIP3   OH252443   6.309   2.779  12.116  0.3393  0.2954 -0.1309
10343TIP3    H152444   6.275   2.847  12.059  2.4007  0.5201 -1.1926
10343TIP3    H252445   6.242   2.767  12.183 -1.3232  1.3365 -1.5459
10344TIP3   OH252446   4.746   1.393  13.854  0.0428  0.6395 -0.1172
10344TIP3    H152447   4.708   1.387  13.941  0.2531  0.8515 -0.0082
10344TIP3    H252448   4.674   1.418  13.797 -0.7989 -2.2697 -0.5225
10345TIP3   OH252449   1.921   0.721   4.576 -0.0522  0.0294  0.0917
10345TIP3    H152450   2.013   0.718   4.551  0.1790 -0.0293  0.9279
10345TIP3    H252451   1.909   0.808   4.615 -0.5882  0.4113 -0.8856
10346TIP3   OH252452   1.098   6.148   4.274  0.1609 -0.0929  0.3308
10346TIP3    H152453   1.024   6.115   4.224 -0.6586  1.3431  0.5436
10346TIP3    H252454   1.104   6.241   4.250  1.9059 -0.1687  0.3040
10347TIP3   OH252455   4.475   6.195   5.705  0.0769  0.3906  0.3082
10347TIP3    H152456   4.501   6.181   5.796 -0.0894 -0.5063  0.2339
10347TIP3    H252457   4.428   6.278   5.706  2.9289  2.1026  0.4390
10348TIP3   OH252458   1.330   5.562   4.086  0.3738 -0.3387 -0.2741
10348TIP3    H152459   1.347   5.520   4.171  0.5555 -0.5898 -0.4347
10348TIP3    H252460   1.414   5.599   4.060  0.3070 -0.2207 -0.3229
10349TIP3   OH252461   3.918   1.260  15.433  0.0674 -0.4629  0.2734
10349TIP3    H152462   3.941   1.167  15.434 -0.6464 -0.6445  0.2178
10349TIP3    H252463   3.880   1.274  15.346 -0.7897 -0.3645  0.6521
10350TIP3   OH252464   5.584   3.644  12.488 -0.0255 -0.4068  0.2138
10350TIP3    H152465   5.645   3.628  12.417  0.6833 -1.1872  0.9669
10350TIP3    H252466   5.639   3.665  12.564 -0.7688  0.6365  0.4865
10351TIP3   OH252467   1.277   0.988   2.359  0.2150 -0.4449 -0.4980
10351TIP3    H152468   1.343   0.926   2.388 -0.5910 -2.3399 -2.4894
10351TIP3    H252469   1.211   0.988   2.428  1.1051 -0.3504  0.3713
10352TIP3   OH252470   5.852   2.063  10.459 -0.0640 -0.0629  0.1595
10352TIP3    H152471   5.926   2.101  10.507 -0.3906 -0.0720  0.6782
10352TIP3    H252472   5.858   1.969  10.477 -0.0898 -0.0867  0.0437
10353TIP3   OH252473   6.545   0.980   3.940 -0.3371 -0.2473  0.0454
10353TIP3    H152474   6.504   0.902   3.903  1.5642 -0.8513 -0.8785
10353TIP3    H252475   6.629   0.988   3.895  1.0680  0.3504  2.5523
10354TIP3   OH252476   5.289   1.428   2.480 -1.0328  0.1227 -0.2496
10354TIP3    H152477   5.317   1.345   2.442 -1.8553  0.1766 -1.0033
10354TIP3    H252478   5.267   1.482   2.404  0.8801  1.5587  0.1358
10355TIP3   OH252479   4.403   2.734   2.356 -0.5031 -0.3387  0.2428
10355TIP3    H152480   4.474   2.673   2.377 -0.2502 -0.5352 -1.1183
10355TIP3    H252481   4.437   2.786   2.283 -1.3034  0.4050  0.3820
10356TIP3   OH252482   3.426   1.385  12.482  0.3185  0.2931  1.0637
10356TIP3    H152483   3.373   1.343  12.550  0.3039 -0.2492  0.7218
10356TIP3    H252484   3.507   1.333  12.479  0.0635 -0.0738  0.2387
10357TIP3   OH252485   1.967   6.290   4.994  0.5384 -0.7371 -0.2966
10357TIP3    H152486   1.914   6.238   5.054 -1.6487  0.3568 -1.1755
10357TIP3    H252487   1.905   6.323   4.928  1.2905  4.3726  1.0767
10358TIP3   OH252488   1.770   1.152   0.185  0.1986 -0.3111  0.0669
10358TIP3    H152489   1.732   1.084   0.130  1.4764 -0.7850 -0.2546
10358TIP3    H252490   1.754   1.233   0.137 -0.7572 -0.4419  0.1389
10359TIP3   OH252491   2.341   4.567  14.712 -0.3198  0.1086  0.0911
10359TIP3    H152492   2.344   4.604  14.800 -2.7077  0.6339  0.0249
10359TIP3    H252493   2.350   4.473  14.725 -2.0304  0.0335  1.0955
10360TIP3   OH252494   1.753   6.374  16.287  0.4646  0.0841  0.2167
10360TIP3    H152495   1.734   6.380  16.193  0.1773  0.3170  0.2881
10360TIP3    H252496   1.671   6.348  16.327  0.4248  0.5734  0.4667
10361TIP3   OH252497   2.883   1.978   0.227  0.4442 -0.0715  0.0594
10361TIP3    H152498   2.799   2.013   0.258  0.2152 -1.3625  0.9598
10361TIP3    H252499   2.867   1.958   0.134 -0.2893 -0.4265  0.2536
10362TIP3   OH252500   0.061   3.475  12.715 -0.4822  0.0039 -0.3287
10362TIP3    H152501   0.128   3.501  12.652 -0.6151  4.9392  1.1583
10362TIP3    H252502  -0.022   3.489  12.670 -0.5606 -0.3724 -0.3062
10363TIP3   OH252503   1.565   6.256   0.286 -0.3489 -0.0079  0.5748
10363TIP3    H152504   1.640   6.315   0.287 -1.5392  1.5807  0.3080
10363TIP3    H252505   1.603   6.168   0.286  1.4986  0.7535  0.1334
10364TIP3   OH252506   3.838   0.109  13.857 -0.4565  0.0435 -0.0430
10364TIP3    H152507   3.917   0.150  13.821  0.4941 -1.6803  0.0251
10364TIP3    H252508   3.843   0.125  13.951 -0.1222 -0.1671 -0.0241
10365TIP3   OH252509   4.270   2.293  12.590  0.0460 -0.1842 -0.0632
10365TIP3    H152510   4.259   2.320  12.681  0.7669  2.4545 -0.6694
10365TIP3    H252511   4.364   2.301  12.574 -0.3297  1.6274 -1.6373
10366TIP3   OH252512   6.562   2.795   5.928 -0.3825  0.0580  0.0759
10366TIP3    H152513   6.485   2.796   5.985  0.0374 -0.9276  0.6926
10366TIP3    H252514   6.533   2.751   5.849 -0.8152  0.9273 -0.2624
10367TIP3   OH252515   1.974   3.486   4.729  0.3178 -0.4212 -0.0856
10367TIP3    H152516   1.971   3.391   4.722 -0.3267 -0.5269  1.3098
10367TIP3    H252517   1.964   3.504   4.823 -4.3776  1.1353 -0.6159
10368TIP3   OH252518   6.380   3.509   3.865  0.2097  0.0220  0.0852
10368TIP3    H152519   6.369   3.506   3.960  0.8640 -1.2199  0.1397
10368TIP3    H252520   6.300   3.550   3.832  0.5209  1.6688  1.2564
10369TIP3   OH252521   3.353   2.156   2.342  0.1149 -0.2295  0.3112
10369TIP3    H152522   3.350   2.140   2.437 -0.4882  1.1263  0.5367
10369TIP3    H252523   3.278   2.109   2.307 -0.4513  0.3715  0.6957
10370TIP3   OH252524   5.694   1.934  11.219 -0.5406 -0.3468 -0.1692
10370TIP3    H152525   5.663   1.847  11.195 -1.5201 -0.4917  1.4328
10370TIP3    H252526   5.613   1.984  11.236  0.0290  0.0219  1.6558
10371TIP3   OH252527   1.202   1.993   1.719  0.5836 -0.4588  0.1635
10371TIP3    H152528   1.167   2.048   1.649  1.5961 -0.9273 -0.7559
10371TIP3    H252529   1.147   2.012   1.795  0.4966  1.3239 -0.2993
10372TIP3   OH252530   1.647   5.793   1.771 -0.1558  0.1680 -0.2075
10372TIP3    H152531   1.603   5.878   1.784  0.3775  0.6874 -1.6426
10372TIP3    H252532   1.685   5.773   1.857 -2.4023  0.1203  0.8569
10373TIP3   OH252533   5.096   3.118  15.860  0.2317 -0.0973  0.3669
10373TIP3    H152534   5.039   3.144  15.789 -0.2638 -0.8362  0.4790
10373TIP3    H252535   5.066   3.169  15.935 -1.4631 -1.7032  0.8672
10374TIP3   OH252536   0.831   3.314  12.567 -0.2511 -0.0514 -0.1520
10374TIP3    H152537   0.747   3.333  12.525  0.6835 -0.9055 -2.5740
10374TIP3    H252538   0.862   3.399  12.597 -1.9486  0.2771  0.7833
10375TIP3   OH252539   4.947   6.551   5.556 -0.4332  0.5067 -0.1012
10375TIP3    H152540   4.900   6.613   5.612 -0.6002  1.1003 -0.8937
10375TIP3    H252541   4.896   6.546   5.476 -1.2619 -1.8345  0.4836
10376TIP3   OH252542   4.433   2.352   0.655  0.5418  0.0259  0.0708
10376TIP3    H152543   4.389   2.310   0.581 -2.3438  0.7178  1.2484
10376TIP3    H252544   4.391   2.314   0.732  1.6815  1.1523  1.2953
10377TIP3   OH252545   4.998   1.490   3.818 -0.3284 -1.1271 -0.6008
10377TIP3    H152546   5.092   1.481   3.803  0.2797  2.0363  0.5391
10377TIP3    H252547   4.990   1.502   3.913 -1.1253  3.9537 -1.0544
10378TIP3   OH252548   0.791   3.874   4.366 -0.4484 -0.2843 -0.2070
10378TIP3    H152549   0.717   3.918   4.407 -0.3557  0.5934 -0.9513
10378TIP3    H252550   0.860   3.940   4.363  0.0531 -0.8007 -0.3905
10379TIP3   OH252551   2.353   4.248  12.652 -0.3123  0.7145 -0.1971
10379TIP3    H152552   2.429   4.303  12.632  0.6636 -0.9174 -1.1783
10379TIP3    H252553   2.289   4.308  12.691  1.2447  2.2366  0.0891
10380TIP3   OH252554   2.189   4.185   4.346  0.9406  0.5341 -0.2229
10380TIP3    H152555   2.266   4.222   4.388  0.3123  0.6177  0.9201
10380TIP3    H252556   2.130   4.163   4.419 -0.0969  0.4389 -1.0566
10381TIP3   OH252557   0.104   4.184  16.480  0.0672 -0.3271 -0.0314
10381TIP3    H152558   0.181   4.235  16.453  0.2057 -0.4915  0.0463
10381TIP3    H252559   0.077   4.224  16.563  1.7055 -1.9281  1.3710
10382TIP3   OH252560   4.374   5.258   4.339  0.0965 -0.8675  0.6905
10382TIP3    H152561   4.317   5.193   4.379 -0.1887  0.1803  2.0742
10382TIP3    H252562   4.352   5.340   4.383  0.4427  0.1888 -1.0034
10383TIP3   OH252563   0.463   0.550   3.088  0.3730  0.0263  0.5146
10383TIP3    H152564   0.379   0.579   3.053  0.2002 -1.3973 -0.3190
10383TIP3    H252565   0.528   0.581   3.025  0.2203 -1.0332 -0.1890
10384TIP3   OH252566   6.703   4.604   4.725 -0.2681 -0.1122 -0.2882
10384TIP3    H152567   6.720   4.530   4.667  0.6038  1.0765 -1.6422
10384TIP3    H252568   6.627   4.647   4.686 -0.5567 -0.0938  0.2887
10385TIP3   OH252569   2.951   6.130  10.392 -0.0058  0.5248 -0.5801
10385TIP3    H152570   2.999   6.104  10.314 -0.1668 -0.1562 -0.4604
10385TIP3    H252571   3.013   6.181  10.444 -0.2226  1.9185 -1.6454
10386TIP3   OH252572   0.033   2.874  12.395 -0.7075  0.1795 -0.0448
10386TIP3    H152573   0.085   2.813  12.446  1.1098  0.8993 -0.9379
10386TIP3    H252574   0.021   2.950  12.452 -3.7848 -1.2241  1.4320
10387TIP3   OH252575   5.425   4.954  12.297 -0.0753  0.2267  0.4915
10387TIP3    H152576   5.418   4.863  12.326 -1.0520  0.0269 -0.3353
10387TIP3    H252577   5.361   4.963  12.227 -1.9177  2.2508  2.2688
10388TIP3   OH252578   2.380   6.095   5.451 -0.6183 -0.3257  0.6690
10388TIP3    H152579   2.320   6.065   5.383 -0.6147  0.9902  0.0545
10388TIP3    H252580   2.324   6.117   5.525 -0.6962 -0.9477  0.8058
10389TIP3   OH252581   2.091   5.290  10.893  0.1482  0.3114 -0.0337
10389TIP3    H152582   2.031   5.347  10.941  0.1218  1.2826 -1.1679
10389TIP3    H252583   2.071   5.305  10.801  1.5186 -0.0122 -0.4171
10390TIP3   OH252584   5.600   5.082   0.069  0.5808  0.0284 -0.8286
10390TIP3    H152585   5.575   5.146   0.003 -0.2627 -0.9040 -1.4396
10390TIP3    H252586   5.519   5.062   0.115  0.7275 -0.9590 -0.9768
10391TIP3   OH252587   0.953   5.338  12.391 -0.1487 -0.0610  0.0334
10391TIP3    H152588   0.870   5.360  12.350 -0.4979  0.2782  0.8996
10391TIP3    H252589   0.948   5.244  12.408 -0.8906  0.1792  1.2330
10392TIP3   OH252590   0.206   5.133   2.206  0.1289 -0.6376  0.1372
10392TIP3    H152591   0.141   5.173   2.148  1.0369 -0.8482 -1.0490
10392TIP3    H252592   0.289   5.173   2.181  0.4948 -0.4768  1.5446
10393TIP3   OH252593   5.331   1.096  13.200  0.3065  0.0566 -0.0614
10393TIP3    H152594   5.348   1.140  13.283  3.2247 -0.7738 -0.1035
10393TIP3    H252595   5.401   1.126  13.142 -0.8082 -0.5152 -1.7817
10394TIP3   OH252596   0.310   4.818  15.311  0.4699 -0.6230 -0.1875
10394TIP3    H152597   0.383   4.860  15.267  1.2976 -1.0186  0.7551
10394TIP3    H252598   0.236   4.827  15.251  0.9937  0.8419 -0.6367
10395TIP3   OH252599   3.046   2.754   5.751  0.0644 -0.6198  0.2395
10395TIP3    H152600   2.990   2.794   5.684  1.5037 -2.2554 -2.1179
10395TIP3    H252601   2.999   2.767   5.833 -3.1465 -0.7606 -1.4081
10396TIP3   OH252602   5.923   4.439   5.304 -0.3602 -0.0595  1.0889
10396TIP3    H152603   5.851   4.385   5.271  0.5799  0.0764 -1.4167
10396TIP3    H252604   6.000   4.382   5.299  0.3331  0.9143  0.1428
10397TIP3   OH252605   6.685   4.490   3.513  0.2935 -0.0934  0.1944
10397TIP3    H152606   6.637   4.567   3.544 -0.6522 -0.2248 -0.9057
10397TIP3    H252607   6.773   4.501   3.551  0.1888  1.5369  0.0498
10398TIP3   OH252608   5.069   5.090   0.556  0.0469  0.5334  0.4874
10398TIP3    H152609   5.139   5.038   0.595  1.0145 -0.2700 -2.1350
10398TIP3    H252610   5.069   5.065   0.464 -2.1879  2.2292 -0.0508
10399TIP3   OH252611   5.798   6.195   0.434  0.0105  0.2192  0.0652
10399TIP3    H152612   5.881   6.195   0.480  0.5531 -2.6222 -0.7116
10399TIP3    H252613   5.821   6.178   0.342 -1.3752 -1.0163 -0.1035
10400TIP3   OH252614   0.469   5.964   3.688 -0.0068  0.4081 -0.0003
10400TIP3    H152615   0.507   5.958   3.776  0.6433  2.3293 -0.1003
10400TIP3    H252616   0.411   6.041   3.692 -1.8316 -0.8597 -0.6251
10401TIP3   OH252617   1.496   6.001   1.558 -0.0783 -0.3986 -0.3293
10401TIP3    H152618   1.451   5.930   1.513  0.2464 -0.1992 -0.9725
10401TIP3    H252619   1.428   6.064   1.578 -0.5941 -1.4096  1.3173
10402TIP3   OH252620   1.809   2.822   4.605 -0.1449  0.0145  0.3466
10402TIP3    H152621   1.833   2.754   4.543 -1.3659 -0.8239  0.7527
10402TIP3    H252622   1.799   2.776   4.689 -0.5427  0.7692  0.7271
10403TIP3   OH252623   0.821   1.656   2.485  0.5791  0.4139  0.3380
10403TIP3    H152624   0.907   1.697   2.492  0.1786  1.3626 -0.1231
10403TIP3    H252625   0.765   1.707   2.543  0.1038  0.4313 -0.1325
10404TIP3   OH252626   4.372   5.997  14.696  0.0637  0.6736 -0.2651
10404TIP3    H152627   4.322   6.025  14.619  0.6064  1.0680 -0.4785
10404TIP3    H252628   4.402   6.079  14.737 -0.2243  0.4696  0.3703
10405TIP3   OH252629   0.669   1.833  15.761 -0.3692  0.0435  0.4678
10405TIP3    H152630   0.602   1.898  15.781  0.6168  0.7504  1.6219
10405TIP3    H252631   0.737   1.883  15.715 -0.8745 -0.7934 -1.2760
10406TIP3   OH252632   6.265   3.566   4.953 -0.0374 -0.4109  0.2809
10406TIP3    H152633   6.206   3.614   5.011  1.6483 -0.2393  1.9440
10406TIP3    H252634   6.353   3.591   4.982  0.8810 -2.1368 -0.8330
10407TIP3   OH252635   6.415   3.662  14.530 -0.4675  0.4254  0.2718
10407TIP3    H152636   6.321   3.665  14.512 -0.5850 -0.7709  0.6028
10407TIP3    H252637   6.442   3.576  14.499  0.5611  0.8289  0.0201
10408TIP3   OH252638   2.245   2.214  10.686  0.0869  0.3366 -0.4935
10408TIP3    H152639   2.305   2.284  10.713 -1.1669  1.5537 -0.7706
10408TIP3    H252640   2.215   2.241  10.599 -0.9701 -0.1659 -0.2971
10409TIP3   OH252641   5.330   3.891  14.259  0.0053 -0.3475 -0.0583
10409TIP3    H152642   5.274   3.939  14.197  0.8701 -0.8762 -1.2783
10409TIP3    H252643   5.280   3.812  14.280 -0.5210  0.0823  0.3599
10410TIP3   OH252644   2.023   4.598  14.194  0.3387  0.5096  0.2329
10410TIP3    H152645   1.980   4.523  14.153 -0.3445  0.2017  1.4646
10410TIP3    H252646   2.010   4.670  14.132 -0.7911  0.0930 -0.0318
10411TIP3   OH252647   2.448   5.955  16.654  0.0902  0.8543  0.5832
10411TIP3    H152648   2.432   5.997  16.569  0.6774 -0.5026 -0.2270
10411TIP3    H252649   2.418   6.019  16.718 -1.2064  1.5567 -0.6682
10412TIP3   OH252650   2.793   0.185   0.759  0.2173  0.1263  0.0496
10412TIP3    H152651   2.709   0.203   0.716 -0.8770 -1.5237  1.3374
10412TIP3    H252652   2.772   0.119   0.825  2.3783  0.3804  1.0791
10413TIP3   OH252653   5.857   4.990   1.390  0.1777  0.1470 -0.0241
10413TIP3    H152654   5.939   4.941   1.388  0.8365  1.2227 -2.6641
10413TIP3    H252655   5.789   4.924   1.372  0.4384 -0.6269  1.5549
10414TIP3   OH252656   2.279   2.928  15.838  0.1422 -0.0059  0.3591
10414TIP3    H152657   2.257   2.928  15.931 -0.0893  0.5293  0.3095
10414TIP3    H252658   2.320   2.843  15.823  3.6810  1.3023  1.7392
10415TIP3   OH252659   1.682   6.070   3.964  0.0292  0.5307 -0.1083
10415TIP3    H152660   1.687   6.108   3.876  0.2900  0.1951 -0.2420
10415TIP3    H252661   1.771   6.080   3.999 -0.0575  0.6021  0.0892
10416TIP3   OH252662   3.039   4.836  13.020 -0.1055  0.0526  0.3291
10416TIP3    H152663   3.090   4.909  12.984  0.3427 -0.0664  0.7137
10416TIP3    H252664   2.960   4.833  12.966 -1.1218  2.1449  1.6240
10417TIP3   OH252665   5.440   0.567  13.197 -0.4348  0.5092 -0.1252
10417TIP3    H152666   5.354   0.573  13.239 -1.4968 -1.6844 -1.7619
10417TIP3    H252667   5.502   0.557  13.269 -1.7642  0.3606  1.0341
10418TIP3   OH252668   5.498   2.863  11.602 -0.3128  0.1641 -0.2673
10418TIP3    H152669   5.549   2.814  11.538 -0.8765 -0.3032 -0.3698
10418TIP3    H252670   5.498   2.809  11.680 -0.0954  0.4755 -0.0481
10419TIP3   OH252671   6.386   4.207  15.979 -0.0460 -0.5522 -0.1916
10419TIP3    H152672   6.333   4.275  15.936  2.3634  0.8655 -1.0780
10419TIP3    H252673   6.395   4.237  16.069 -0.9611 -0.9736  0.0572
10420TIP3   OH252674   6.634   0.682   4.588 -0.1073 -0.3303  0.0685
10420TIP3    H152675   6.694   0.754   4.606  0.5274  0.1546 -3.2564
10420TIP3    H252676   6.686   0.603   4.605  1.9574  0.0668 -3.3917
10421TIP3   OH252677   5.780   5.281   1.679  0.4742  0.0437 -0.1306
10421TIP3    H152678   5.796   5.353   1.618  2.4903  0.5102  0.8626
10421TIP3    H252679   5.856   5.224   1.668  0.7735  0.0283  1.7239
10422TIP3   OH252680   5.932   4.339  10.755  0.2370 -0.0711  0.1989
10422TIP3    H152681   5.949   4.245  10.748 -0.6283 -0.4488  2.3712
10422TIP3    H252682   5.949   4.360  10.847 -0.5683  1.6923 -0.0153
10423TIP3   OH252683   3.713   6.432   0.359  0.1774 -0.2558 -0.0832
10423TIP3    H152684   3.757   6.432   0.274 -0.0498  1.5998 -0.2357
10423TIP3    H252685   3.737   6.348   0.398  1.9934 -0.2619 -1.0997
10424TIP3   OH252686   6.867   1.577   0.759 -0.2406 -0.1599 -0.5532
10424TIP3    H152687   6.954   1.609   0.734  1.1466 -2.5547  0.8235
10424TIP3    H252688   6.855   1.497   0.709 -1.3322 -0.2704 -0.1406
10425TIP3   OH252689   3.256   5.942  15.953  0.1298 -0.2871  0.2031
10425TIP3    H152690   3.274   5.977  15.866 -0.3748  1.6209  0.8368
10425TIP3    H252691   3.342   5.940  15.996  0.2310 -0.3233  0.0020
10426TIP3   OH252692   6.219   5.177  10.967 -0.0046 -0.0681  0.1682
10426TIP3    H152693   6.298   5.228  10.947  0.0198 -0.9354 -2.2348
10426TIP3    H252694   6.147   5.237  10.951  0.0429 -0.5595 -2.1157
10427TIP3   OH252695   3.063   1.714  13.361 -0.1302 -0.1776 -0.0145
10427TIP3    H152696   3.012   1.761  13.426 -0.5594 -0.3991 -0.1831
10427TIP3    H252697   3.153   1.738  13.378 -0.3647  0.9326 -0.2818
10428TIP3   OH252698   3.113   4.752  14.219  0.3803 -0.6592  0.4544
10428TIP3    H152699   3.106   4.847  14.223 -0.2260 -0.6452 -0.5066
10428TIP3    H252700   3.207   4.735  14.207  0.6513 -0.2573  1.8754
10429TIP3   OH252701   5.808   0.493   3.870  0.5542 -0.2303 -0.1529
10429TIP3    H152702   5.810   0.519   3.962  0.2262  0.9476 -0.4567
10429TIP3    H252703   5.832   0.573   3.822  1.0508 -0.9167 -1.0707
10430TIP3   OH252704   3.922   4.564  14.017  0.2055 -0.8841 -0.4696
10430TIP3    H152705   3.929   4.641  13.960 -0.0910 -1.9269 -1.9920
10430TIP3    H252706   3.837   4.573  14.059  0.7535  0.2956  0.4532
10431TIP3   OH252707   4.659   2.726  15.734  0.4158 -0.5925  0.5120
10431TIP3    H152708   4.665   2.822  15.739  2.3412 -0.6056 -0.4863
10431TIP3    H252709   4.590   2.709  15.671  0.5597  0.1599  0.1411
10432TIP3   OH252710   2.763   0.773   5.152  0.0383  0.1070  0.0328
10432TIP3    H152711   2.772   0.736   5.240  1.4738 -2.1606 -0.9539
10432TIP3    H252712   2.670   0.762   5.131 -0.4161  1.1276  1.4116
10433TIP3   OH252713   4.557   6.350  14.186  0.0608  0.3004 -0.2127
10433TIP3    H152714   4.545   6.261  14.151  1.3603 -0.1708  0.4860
10433TIP3    H252715   4.468   6.380  14.205 -0.3836 -0.9536 -0.2148
10434TIP3   OH252716   2.884   2.188   1.253  0.1708 -0.2201  0.4934
10434TIP3    H152717   2.947   2.134   1.301  0.2849 -2.5719 -2.0485
10434TIP3    H252718   2.924   2.200   1.167 -1.8705  0.1098 -0.4629
10435TIP3   OH252719   1.403   2.009  14.736  0.3308  0.6674 -0.3007
10435TIP3    H152720   1.476   2.008  14.674 -0.9946  1.7743 -1.9482
10435TIP3    H252721   1.411   1.926  14.783  0.7478 -0.7589 -2.7119
10436TIP3   OH252722   0.889   2.059   5.304 -0.4450 -0.6626  0.5040
10436TIP3    H152723   0.925   1.971   5.321  0.5440 -0.2141  0.7864
10436TIP3    H252724   0.912   2.110   5.381 -0.7096 -0.0561  0.1878
10437TIP3   OH252725   2.066   5.161  13.874 -0.3067 -0.0814  0.3297
10437TIP3    H152726   1.990   5.107  13.849  0.3774 -0.5573 -0.8223
10437TIP3    H252727   2.142   5.110  13.846  0.4969  0.0640  2.1151
10438TIP3   OH252728   4.285   2.909   4.644 -0.3278  0.0075 -0.3219
10438TIP3    H152729   4.309   2.997   4.613 -1.3561 -0.2392 -1.9107
10438TIP3    H252730   4.197   2.920   4.681 -1.8660 -0.8417 -3.3789
10439TIP3   OH252731   6.181   1.592  15.996 -0.4611 -0.6355 -0.2003
10439TIP3    H152732   6.155   1.544  16.075  1.1856 -0.6862  0.3469
10439TIP3    H252733   6.213   1.676  16.028  2.0879 -1.3689 -0.5181
10440TIP3   OH252734   3.513   1.192   5.743 -0.2111  0.1724  0.5970
10440TIP3    H152735   3.449   1.245   5.790 -0.0528  1.4634 -0.5908
10440TIP3    H252736   3.594   1.203   5.793  0.0230  1.7603 -0.0785
10441TIP3   OH252737   4.335   0.933   4.980  0.5047 -0.0658 -0.2183
10441TIP3    H152738   4.243   0.949   5.002  0.6784 -0.4556  0.7983
10441TIP3    H252739   4.373   1.021   4.970  0.1638  0.0967 -0.0895
10442TIP3   OH252740   4.195   3.448   0.290 -0.3017  0.2935 -0.4192
10442TIP3    H152741   4.275   3.488   0.255 -0.5756  0.5261 -0.7895
10442TIP3    H252742   4.163   3.512   0.354  0.9663 -0.7603  1.3523
10443TIP3   OH252743   5.483   4.420  15.389 -0.2427  0.5406  0.4128
10443TIP3    H152744   5.522   4.358  15.328 -1.7017 -0.8003  0.7806
10443TIP3    H252745   5.389   4.405  15.382 -0.4669  0.2284  3.0518
10444TIP3   OH252746   3.199   6.507   3.669 -0.1795  0.0943 -0.2356
10444TIP3    H152747   3.107   6.522   3.694  0.0721  0.9292  0.2189
10444TIP3    H252748   3.249   6.557   3.733  0.6148 -0.6877 -0.2368
10445TIP3   OH252749   5.080   4.859   0.391  0.0210  0.4090 -0.1852
10445TIP3    H152750   5.167   4.853   0.431  1.3303 -1.8898 -2.8887
10445TIP3    H252751   5.040   4.774   0.409  0.8414 -0.9242 -3.6325
10446TIP3   OH252752   2.054   5.049  12.360  0.6112  0.3333  0.2494
10446TIP3    H152753   1.988   4.996  12.403  0.0500  1.7171  1.1584
10446TIP3    H252754   2.096   4.989  12.297 -0.5005 -0.9456  0.6800
10447TIP3   OH252755   3.876   1.239   3.325 -0.3297  0.0227 -0.4077
10447TIP3    H152756   3.822   1.303   3.278  1.5726  1.0063 -1.4090
10447TIP3    H252757   3.813   1.183   3.370 -2.1356  1.5583 -0.8647
10448TIP3   OH252758   5.450   4.464   2.682 -0.0470 -0.3519 -0.1178
10448TIP3    H152759   5.534   4.418   2.674  0.8702  0.7999  2.0535
10448TIP3    H252760   5.410   4.428   2.761 -0.8638  0.2417 -0.2446
10449TIP3   OH252761   1.721   5.104   0.936  0.0222  0.3444 -0.0296
10449TIP3    H152762   1.752   5.043   1.003 -0.7818 -1.4545 -1.1969
10449TIP3    H252763   1.665   5.165   0.984  1.9799  1.0959  1.4088
10450TIP3   OH252764   0.060   6.333  11.515  0.2178 -0.1713 -0.0319
10450TIP3    H152765   0.131   6.305  11.573 -1.3151 -2.9301  0.6880
10450TIP3    H252766   0.081   6.293  11.430  1.2988  2.0035 -0.8562
10451TIP3   OH252767   5.077   5.181   1.795  0.5013 -0.4188 -0.0945
10451TIP3    H152768   5.146   5.129   1.753  1.9309  0.6205  0.8881
10451TIP3    H252769   5.111   5.270   1.795 -1.2299  0.2797 -0.3279
10452TIP3   OH252770   1.589   2.216   3.926 -0.4489  0.4823 -0.0938
10452TIP3    H152771   1.559   2.307   3.931  0.5756  0.8393 -0.1929
10452TIP3    H252772   1.662   2.218   3.864 -0.9120 -0.5598 -0.7124
10453TIP3   OH252773   5.848   1.997  16.272 -0.0764  0.1721 -0.5910
10453TIP3    H152774   5.924   1.961  16.318  0.5967  1.0902 -0.9675
10453TIP3    H252775   5.885   2.057  16.207 -1.1555  1.4826 -0.0429
10454TIP3   OH252776   3.097   6.246  12.225  0.7496  0.1169 -0.0391
10454TIP3    H152777   3.017   6.215  12.184  0.9122 -0.8986  0.3862
10454TIP3    H252778   3.161   6.177  12.210  0.6440 -0.6314  2.4341
10455TIP3   OH252779   0.534   3.126   5.497  0.3054  0.2746  0.0343
10455TIP3    H152780   0.533   3.208   5.548 -1.3165 -1.1190  2.4466
10455TIP3    H252781   0.442   3.102   5.490  0.7076 -1.0205 -1.2666
10456TIP3   OH252782   0.073   0.302  12.205  1.0876 -0.0086  0.3926
10456TIP3    H152783   0.105   0.260  12.286  1.0656 -0.5048  0.1496
10456TIP3    H252784   0.103   0.244  12.135 -1.8129 -1.5282  0.2221
10457TIP3   OH252785   3.396   1.727   2.127  0.0804  0.3008 -0.0683
10457TIP3    H152786   3.386   1.748   2.220  1.2716  1.1618 -0.1155
10457TIP3    H252787   3.364   1.804   2.081  1.9313  0.9887 -0.2927
10458TIP3   OH252788   3.779   6.076  15.625  0.0268 -0.4377  0.6304
10458TIP3    H152789   3.787   6.154  15.570  2.4313 -0.1785  1.2593
10458TIP3    H252790   3.701   6.092  15.678  0.9892  1.9920  1.4221
10459TIP3   OH252791   0.824   6.757   2.916 -0.3274  0.0033 -0.2126
10459TIP3    H152792   0.830   6.772   3.011 -0.2108 -0.0223 -0.2154
10459TIP3    H252793   0.737   6.721   2.903  0.5633 -2.4974  0.2244
10460TIP3   OH252794   0.364   2.758   5.499 -0.0725 -0.3838 -0.0196
10460TIP3    H152795   0.317   2.680   5.470 -1.2811  0.6217 -0.9168
10460TIP3    H252796   0.296   2.826   5.502  0.8634  0.5373  1.1387
10461TIP3   OH252797   0.407   5.509   4.290  0.0565  0.8404  0.1991
10461TIP3    H152798   0.344   5.477   4.354  1.6899 -1.4299  0.8359
10461TIP3    H252799   0.364   5.583   4.248 -2.9201 -0.4298  0.7265
10462TIP3   OH252800   4.969   0.819  12.717  0.6897  0.1677  0.1420
10462TIP3    H152801   5.033   0.748  12.711  0.5625  0.1142 -0.6485
10462TIP3    H252802   4.959   0.835  12.811 -1.2042 -2.6143  0.5212
10463TIP3   OH252803   5.527   2.139   2.397 -0.1279 -0.3196 -0.3814
10463TIP3    H152804   5.512   2.137   2.302 -0.5598  0.4224 -0.3418
10463TIP3    H252805   5.443   2.168   2.434 -1.2881 -4.2951  0.5963
10464TIP3   OH252806   4.744   1.265  14.775  0.2828  0.1562  0.3110
10464TIP3    H152807   4.682   1.274  14.702  0.7374  0.3243 -0.0559
10464TIP3    H252808   4.694   1.218  14.842  0.1011 -0.6956 -0.3922
10465TIP3   OH252809   6.858   1.883  15.948 -0.3331  0.1531  0.1183
10465TIP3    H152810   6.772   1.873  15.989 -0.5319  0.3494 -0.2451
10465TIP3    H252811   6.869   1.804  15.895  0.1084 -0.3039  0.8658
10466TIP3   OH252812   2.843   2.622  12.135  0.5108 -0.0764  0.2208
10466TIP3    H152813   2.908   2.690  12.120 -0.4326  0.4396 -1.7497
10466TIP3    H252814   2.895   2.545  12.159  1.8521  0.3885 -1.0612
10467TIP3   OH252815   2.432   1.310   1.551  0.5287 -0.1196 -0.6539
10467TIP3    H152816   2.369   1.295   1.481  1.1840 -0.6833 -1.1359
10467TIP3    H252817   2.425   1.233   1.607 -1.9218  1.4990  1.4607
10468TIP3   OH252818   6.185   4.672  11.464 -0.2448 -0.0181 -0.0512
10468TIP3    H152819   6.244   4.685  11.390 -0.0110  0.1856  0.1693
10468TIP3    H252820   6.237   4.625  11.529 -0.8233 -1.3244 -0.4962
10469TIP3   OH252821   6.823   4.371   2.501 -0.0371 -0.4170 -0.0619
10469TIP3    H152822   6.843   4.463   2.480  3.5419 -0.9941  0.1857
10469TIP3    H252823   6.832   4.325   2.418 -0.8947 -0.6917 -0.0078
10470TIP3   OH252824   5.924   5.370  12.588  0.3250 -1.5703 -0.7961
10470TIP3    H152825   5.848   5.321  12.557 -0.3754 -1.6498  0.9402
10470TIP3    H252826   5.962   5.314  12.656  0.5607 -0.5040 -0.0291
10471TIP3   OH252827   6.689   3.704   1.495 -0.6886  0.2686  0.7212
10471TIP3    H152828   6.757   3.733   1.555 -0.8416 -0.5010  1.2769
10471TIP3    H252829   6.659   3.621   1.531 -0.5326 -0.3935 -0.6056
10472TIP3   OH252830   0.642   0.990  12.975  0.0146  0.2167 -0.3107
10472TIP3    H152831   0.643   0.993  13.070 -3.3474 -1.6563 -0.0725
10472TIP3    H252832   0.659   0.899  12.953 -0.5785  0.3532 -1.4129
10473TIP3   OH252833   6.736   1.794  14.551 -0.5478  0.0658  0.2211
10473TIP3    H152834   6.762   1.718  14.603 -0.6675  0.4754  0.8928
10473TIP3    H252835   6.641   1.785  14.541 -0.4787 -0.2022 -0.2488
10474TIP3   OH252836   2.543   3.505  13.429 -0.3647  0.5586 -0.5425
10474TIP3    H152837   2.572   3.564  13.359  0.6160 -0.0386 -0.6680
10474TIP3    H252838   2.456   3.476  13.401 -0.9421  2.0492 -0.3916
10475TIP3   OH252839   4.195   3.899  12.818  0.4648  0.0276  0.1494
10475TIP3    H152840   4.107   3.926  12.791  0.1796 -0.3810  0.6577
10475TIP3    H252841   4.180   3.839  12.891  1.1898  0.3207  0.5440
10476TIP3   OH252842   0.465   5.620  14.321  0.1546 -0.7324  0.3195
10476TIP3    H152843   0.459   5.693  14.382 -0.3301 -0.2143 -0.3324
10476TIP3    H252844   0.385   5.626  14.268 -1.0523 -3.0726  1.7247
10477TIP3   OH252845   1.043   3.313  11.868  0.1740  0.1006 -0.2821
10477TIP3    H152846   1.088   3.265  11.937  0.7287  0.0143 -0.6966
10477TIP3    H252847   0.962   3.263  11.854  1.1773 -1.3061 -1.3682
10478TIP3   OH252848   3.325   3.725   4.721  0.4744 -0.3305 -0.9657
10478TIP3    H152849   3.264   3.652   4.710 -0.2546  0.2598 -0.8850
10478TIP3    H252850   3.357   3.715   4.811  2.0494 -1.7959 -1.6191
10479TIP3   OH252851   3.678   6.005  15.912  0.0364 -0.1449  0.2427
10479TIP3    H152852   3.742   6.044  15.971 -1.4014  3.0440 -0.0900
10479TIP3    H252853   3.598   5.999  15.964 -0.1820 -1.3056 -0.1976
10480TIP3   OH252854   3.318   5.547  14.017  0.0479 -0.3864  0.0568
10480TIP3    H152855   3.223   5.532  14.008 -0.0895 -0.1653  1.0418
10480TIP3    H252856   3.353   5.460  14.036  0.3890 -0.9317 -2.5996
10481TIP3   OH252857   1.634   1.237  15.936 -0.2818  0.2130  0.0269
10481TIP3    H152858   1.652   1.315  15.988 -1.2177 -0.6740  1.7640
10481TIP3    H252859   1.693   1.171  15.971 -1.4711 -0.6112  0.5340
10482TIP3   OH252860   1.296   4.046   4.525  0.4271 -0.9295  0.1709
10482TIP3    H152861   1.326   3.979   4.464  1.0698 -1.0526  0.6104
10482TIP3    H252862   1.266   3.997   4.602  0.9084 -0.7201  0.4972
10483TIP3   OH252863   4.012   5.415  14.586  0.0254  0.2248 -0.2712
10483TIP3    H152864   4.090   5.467  14.568  0.4731 -0.6511 -0.9545
10483TIP3    H252865   4.046   5.330  14.615 -0.6427 -0.3990 -1.2446
10484TIP3   OH252866   5.056   0.658  11.199 -0.2973  0.0489  0.4881
10484TIP3    H152867   5.129   0.599  11.180  1.1931  1.9618  0.0229
10484TIP3    H252868   5.097   0.736  11.237 -2.2728  0.5495  1.7419
10485TIP3   OH252869   3.597   5.053   1.608 -0.4652 -0.3557  0.3366
10485TIP3    H152870   3.559   4.974   1.570 -1.8248 -0.1847  1.2850
10485TIP3    H252871   3.555   5.125   1.561 -0.4420 -0.1680  0.6033
10486TIP3   OH252872   4.533   6.240  10.927 -0.0799 -1.1571 -0.6487
10486TIP3    H152873   4.551   6.332  10.946  1.4498 -1.6678  0.5844
10486TIP3    H252874   4.567   6.227  10.839  0.2017 -0.6737 -0.6180
10487TIP3   OH252875   6.305   2.559  13.722 -0.3951  0.3424 -0.2526
10487TIP3    H152876   6.399   2.569  13.735 -0.4045  1.5851 -1.0027
10487TIP3    H252877   6.268   2.645  13.742 -1.4542 -0.2774  0.5983
10488TIP3   OH252878   2.312   0.018   0.087  0.4108 -0.2370  0.1276
10488TIP3    H152879   2.331   0.030   0.180 -0.7984  0.5839  0.2963
10488TIP3    H252880   2.256   0.092   0.064  1.9602  0.4744 -1.6593
10489TIP3   OH252881   6.176   4.254  11.046 -0.1883 -0.1911  0.3723
10489TIP3    H152882   6.269   4.274  11.033 -0.4235  0.7129 -0.0107
10489TIP3    H252883   6.135   4.339  11.062 -0.7740 -0.6974  1.7646
10490TIP3   OH252884   1.693   5.079  12.636  0.0914 -0.0163  0.0218
10490TIP3    H152885   1.719   5.170  12.620  0.0101 -0.1396 -0.8337
10490TIP3    H252886   1.740   5.055  12.716  1.5532  0.1997 -0.7433
10491TIP3   OH252887   2.417   6.489   3.848 -0.0311  0.1742  0.1016
10491TIP3    H152888   2.499   6.534   3.833 -1.0594  3.3388  2.7144
10491TIP3    H252889   2.434   6.433   3.925 -0.0718  0.0680  0.0339
10492TIP3   OH252890   3.708   1.286  12.355  0.1422 -0.3117  0.5659
10492TIP3    H152891   3.763   1.247  12.287  1.1060 -0.5165  1.4358
10492TIP3    H252892   3.753   1.366  12.380 -1.4807  1.0794 -0.7242
10493TIP3   OH252893   2.307   0.643   0.298  0.5946 -0.4435  0.0717
10493TIP3    H152894   2.353   0.577   0.246 -0.9581 -0.0967 -1.8348
10493TIP3    H252895   2.224   0.601   0.322  0.1143  0.3754 -0.1246
10494TIP3   OH252896   5.488   1.984   0.501  0.3216 -0.4595  0.8502
10494TIP3    H152897   5.449   2.064   0.536 -0.5387  0.9898 -2.9268
10494TIP3    H252898   5.582   2.001   0.499  0.0538  1.2497 -1.3296
10495TIP3   OH252899   3.095   5.230  10.617  0.4809  0.2784  0.6454
10495TIP3    H152900   3.063   5.318  10.599 -0.4066  0.1199  1.3455
10495TIP3    H252901   3.134   5.201  10.535 -1.8765  0.1955 -0.5168
10496TIP3   OH252902   6.422   1.218   1.749  0.0747  0.7530  0.0351
10496TIP3    H152903   6.340   1.239   1.703 -0.2973  1.8461  1.1366
10496TIP3    H252904   6.397   1.151   1.813  0.3294  0.1437 -0.4907
10497TIP3   OH252905   3.257   1.944   1.720  0.0869 -0.3901  0.5501
10497TIP3    H152906   3.279   1.969   1.810  2.6726  0.1654 -0.1500
10497TIP3    H252907   3.277   1.850   1.716 -0.3808 -0.4976  0.6253
10498TIP3   OH252908   1.729   4.164  14.519 -0.2945 -0.1044 -0.7628
10498TIP3    H152909   1.726   4.226  14.445 -0.6513  1.2621  0.3572
10498TIP3    H252910   1.782   4.209  14.585 -0.1384 -1.2344 -0.1135
10499TIP3   OH252911   5.100   0.583   5.278  0.7200 -0.2363 -0.3464
10499TIP3    H152912   5.192   0.581   5.253  0.6826 -1.9881 -0.5178
10499TIP3    H252913   5.057   0.631   5.207  1.6744  2.0104  0.5344
10500TIP3   OH252914   1.169   3.065   3.735  0.0913  0.4740  0.1626
10500TIP3    H152915   1.229   3.139   3.733  0.0939  0.4801  0.4181
10500TIP3    H252916   1.220   2.993   3.773 -0.2085  0.6126  0.8346
10501TIP3   OH252917   2.818   6.450   2.635  0.2546  0.0350  0.2573
10501TIP3    H152918   2.842   6.485   2.721 -1.6919  1.2068  0.3866
10501TIP3    H252919   2.822   6.355   2.646 -1.2615  0.1049  2.1173
10502TIP3   OH252920   6.262   0.012  14.258 -0.5368  0.0834  0.1942
10502TIP3    H152921   6.197   0.002  14.327 -0.3979 -0.8956  0.1865
10502TIP3    H252922   6.334   0.060  14.299 -0.3997 -0.6064  0.7599
10503TIP3   OH252923   5.407   2.240  13.644  0.0728  0.1775  0.1382
10503TIP3    H152924   5.415   2.159  13.694  0.2878  0.1060 -0.0069
10503TIP3    H252925   5.483   2.240  13.586 -0.0952  0.3302 -0.0862
10504TIP3   OH252926   5.091   1.015   4.226 -0.1347  0.1850 -0.0901
10504TIP3    H152927   5.020   1.072   4.254 -0.9044  0.7179 -2.9015
10504TIP3    H252928   5.160   1.075   4.198 -0.3498 -0.2456 -1.6096
10505TIP3   OH252929   2.491   1.941   1.303 -0.0918  0.1245  0.1503
10505TIP3    H152930   2.451   1.990   1.375 -0.3453 -1.2840  1.0104
10505TIP3    H252931   2.484   1.849   1.330  0.0852 -0.4197 -1.5356
10506TIP3   OH252932   2.365   0.007  15.050 -0.0531  0.3656  0.1964
10506TIP3    H152933   2.330   0.010  15.139 -0.7057 -0.8001 -0.0021
10506TIP3    H252934   2.287   0.010  14.993  0.2661 -0.2650 -0.2918
10507TIP3   OH252935   4.323   2.289   1.549  0.5359 -0.0159 -0.1445
10507TIP3    H152936   4.236   2.299   1.509  0.8845  1.2399 -0.6429
10507TIP3    H252937   4.384   2.299   1.476  1.1404  0.6341  0.4332
10508TIP3   OH252938   1.958   1.112   0.799  0.2512 -0.0214  0.2353
10508TIP3    H152939   2.013   1.051   0.750  0.2439  0.8000 -0.8126
10508TIP3    H252940   1.943   1.068   0.883 -1.2505 -2.2967 -1.1158
10509TIP3   OH252941   2.993   0.920  11.727  0.7630 -0.2787 -0.2030
10509TIP3    H152942   2.921   0.967  11.768  0.0537 -0.6294 -1.0259
10509TIP3    H252943   2.969   0.828  11.734  1.9525 -0.5347  1.0280
10510TIP3   OH252944   4.162   6.476   5.116  0.1993  0.6291  0.1554
10510TIP3    H152945   4.177   6.381   5.119 -0.0304  0.6180  1.5445
10510TIP3    H252946   4.068   6.485   5.129  0.3731  1.0855  1.1467
10511TIP3   OH252947   4.231   1.906   1.761 -0.3001 -0.2519 -0.7071
10511TIP3    H152948   4.141   1.924   1.737 -0.5887  0.4261  0.7496
10511TIP3    H252949   4.268   1.992   1.782  0.0472 -0.7171  0.7265
10512TIP3   OH252950   6.451   5.916  15.433 -0.1798  0.5288 -0.5157
10512TIP3    H152951   6.400   5.978  15.486 -0.5017 -0.8686  0.8694
10512TIP3    H252952   6.533   5.905  15.482 -0.0982 -0.0840 -0.7812
10513TIP3   OH252953   0.959   6.488   2.466 -0.1692 -0.7221 -0.0001
10513TIP3    H152954   0.867   6.476   2.442 -0.1882  1.3695 -1.2588
10513TIP3    H252955   0.966   6.581   2.487  2.0292 -0.3559 -1.9164
10514TIP3   OH252956   5.352   5.434   4.396  0.0971 -0.3109 -0.3180
10514TIP3    H152957   5.330   5.389   4.478  1.0954  0.9517  0.6895
10514TIP3    H252958   5.393   5.516   4.424  0.8851 -0.0548 -2.0989
10515TIP3   OH252959   6.250   3.608  13.814  0.3241  0.0465  0.3980
10515TIP3    H152960   6.300   3.638  13.738  0.0404 -0.7447 -0.1128
10515TIP3    H252961   6.159   3.614  13.787  0.1623  0.8083  1.0783
10516TIP3   OH252962   2.410   2.117  13.696  0.0609 -0.2959  0.4443
10516TIP3    H152963   2.499   2.145  13.676 -0.6950  2.2468  0.3752
10516TIP3    H252964   2.355   2.166  13.636 -1.3955 -2.5178 -0.1806
10517TIP3   OH252965   2.746   0.417  11.233  0.1381 -0.0104  0.0541
10517TIP3    H152966   2.669   0.436  11.180  1.3942 -1.2194 -2.3494
10517TIP3    H252967   2.722   0.338  11.282 -0.1892 -0.3437 -0.6292
10518TIP3   OH252968   0.621   3.485  12.075 -0.1756  0.3712  0.2592
10518TIP3    H152969   0.626   3.580  12.090  0.0351  0.5513 -0.8577
10518TIP3    H252970   0.679   3.447  12.141 -0.7491  0.9675  1.1298
10519TIP3   OH252971   4.659   4.901   1.595 -0.8886 -0.4277 -0.1444
10519TIP3    H152972   4.604   4.943   1.529 -1.3622  0.9332  1.0538
10519TIP3    H252973   4.747   4.936   1.579 -1.4763  2.1644  1.5909
10520TIP3   OH252974   2.247   6.325   4.154  0.5820  0.0811  0.2149
10520TIP3    H152975   2.282   6.293   4.237 -0.4029 -1.7559 -0.0054
10520TIP3    H252976   2.323   6.336   4.098  1.0524 -1.6882  0.4255
10521TIP3   OH252977   2.215   0.014  10.668  0.7978 -0.5231  0.2717
10521TIP3    H152978   2.223  -0.030  10.753  0.0976 -0.7297  0.2368
10521TIP3    H252979   2.266  -0.040  10.608 -1.4065 -2.3227 -0.1348
10522TIP3   OH252980   6.448   2.940  13.510 -0.0270 -0.5875  0.4236
10522TIP3    H152981   6.466   3.001  13.582  0.4704  1.1695 -1.1290
10522TIP3    H252982   6.530   2.935  13.461 -1.3646  1.4264 -2.2778
10523TIP3   OH252983   4.838   0.834  11.118  0.0910 -0.1826  0.0800
10523TIP3    H152984   4.898   0.761  11.129 -0.2543 -0.4229  0.3647
10523TIP3    H252985   4.890   0.911  11.142  0.6654 -0.2523 -0.8962
10524TIP3   OH252986   0.694   2.851  12.447  0.5711 -0.0895 -0.4124
10524TIP3    H152987   0.763   2.846  12.514 -0.1039  0.2846  0.3228
10524TIP3    H252988   0.614   2.825  12.492  0.3885 -1.6944 -1.5582
10525TIP3   OH252989   3.580   6.876  16.245  0.7189  0.2920 -0.5989
10525TIP3    H152990   3.590   6.782  16.228 -0.4725 -0.6527  2.9301
10525TIP3    H252991   3.670   6.908  16.253  1.1441 -0.5426 -1.6848
10526TIP3   OH252992   4.404   6.258   0.544 -0.2762  0.1707 -0.4574
10526TIP3    H152993   4.471   6.232   0.608 -0.1804 -0.7005 -0.9000
10526TIP3    H252994   4.450   6.319   0.486  0.5530 -1.4236 -1.5546
10527TIP3   OH252995   2.976   2.574   0.659  0.2761  0.0550  0.0605
10527TIP3    H152996   3.031   2.620   0.595 -2.6617  1.2338 -1.8655
10527TIP3    H252997   2.909   2.530   0.606 -1.5353 -0.0334  2.2567
10528TIP3   OH252998   0.073   6.048  16.627  0.4681 -0.2310 -0.5683
10528TIP3    H152999  -0.009   6.082  16.663  0.9868 -0.5690  0.9877
10528TIP3    H253000   0.080   5.959  16.662  1.2565 -0.3850 -1.0992
10529TIP3   OH253001   6.617   1.657  12.186 -0.3342 -0.0830  0.2900
10529TIP3    H153002   6.529   1.656  12.224 -0.3182  0.1794  0.3420
10529TIP3    H253003   6.666   1.592  12.236 -0.9396 -1.4405 -0.8462
10530TIP3   OH253004   1.798   5.164  14.682 -0.0891  0.0017 -0.0158
10530TIP3    H153005   1.878   5.187  14.635  1.8208 -1.0669  2.4937
10530TIP3    H253006   1.729   5.169  14.616  1.9283  1.5051 -2.1589
10531TIP3   OH253007   4.699   4.000  12.052 -0.1066  0.1488 -0.0802
10531TIP3    H153008   4.615   4.038  12.077 -0.8106 -1.6794  0.5145
10531TIP3    H253009   4.762   4.042  12.112 -1.4794 -2.6662  3.7576
10532TIP3   OH253010   5.814   3.275   2.145  0.0994 -0.0297  0.1982
10532TIP3    H153011   5.854   3.200   2.188  0.8073  1.7012  2.8011
10532TIP3    H253012   5.720   3.261   2.157  0.0570 -1.7228 -1.6676
10533TIP3   OH253013   0.682   5.356   3.165 -0.0556 -0.5116  0.0591
10533TIP3    H153014   0.739   5.426   3.134  0.7851 -1.0292  0.3745
10533TIP3    H253015   0.739   5.302   3.220 -0.6052 -1.6046 -0.4124
10534TIP3   OH253016   3.707   0.222   0.127  0.3000  0.2479 -0.5886
10534TIP3    H153017   3.709   0.256   0.216  2.6332 -0.1160 -0.4345
10534TIP3    H253018   3.686   0.298   0.073  1.5803  1.1163  0.0776
10535TIP3   OH253019   5.820   2.554   4.496  0.1640  0.0470 -0.3423
10535TIP3    H153020   5.877   2.630   4.486  0.9248 -0.0947  2.1255
10535TIP3    H253021   5.738   2.590   4.531 -0.0862 -0.0888 -0.7864
10536TIP3   OH253022   3.888   4.575   3.734 -0.0507  0.2828 -0.3108
10536TIP3    H153023   3.793   4.581   3.746 -0.2484 -2.2009 -0.0365
10536TIP3    H253024   3.904   4.617   3.650 -1.7267 -0.9614 -1.3323
10537TIP3   OH253025   6.084   4.880   5.069 -0.5775  0.1423  0.1896
10537TIP3    H153026   6.116   4.805   5.119  0.2385  0.2220 -0.1997
10537TIP3    H253027   5.995   4.894   5.101 -0.3089 -0.2368  1.1210
10538TIP3   OH253028   5.577   3.538   2.957  0.3502 -0.2982 -0.0154
10538TIP3    H153029   5.562   3.619   3.005 -0.8300 -0.9584  0.7612
10538TIP3    H253030   5.561   3.561   2.865  1.6031  0.7155  0.0014
10539TIP3   OH253031   5.796   5.425  14.827  0.2959 -0.0194  0.7410
10539TIP3    H153032   5.760   5.337  14.819  0.4715  0.0168 -0.5272
10539TIP3    H253033   5.797   5.441  14.922 -0.4797 -1.0601  0.9492
10540TIP3   OH253034   0.335   2.167   6.046 -0.0639  0.2191 -0.7159
10540TIP3    H153035   0.302   2.077   6.045  0.6050 -0.0386 -1.4107
10540TIP3    H253036   0.314   2.200   5.958  0.3959  0.4640 -0.7346
10541TIP3   OH253037   4.034   5.122  13.490  0.0223 -0.3247  0.1619
10541TIP3    H153038   3.994   5.083  13.412  1.3794 -0.2291 -0.6120
10541TIP3    H253039   3.978   5.094  13.563 -1.2235 -0.4793 -0.8281
10542TIP3   OH253040   0.596   4.156  10.824  0.1090 -0.0278  0.0216
10542TIP3    H153041   0.575   4.196  10.740 -2.5029  0.0888  0.6586
10542TIP3    H253042   0.668   4.209  10.858  0.0994  0.9562 -1.3905
10543TIP3   OH253043   6.451   0.372  11.203 -0.2493 -0.0326 -0.2003
10543TIP3    H153044   6.545   0.352  11.197 -0.3653 -0.4639 -0.5775
10543TIP3    H253045   6.447   0.467  11.192  0.0343 -0.1593 -1.5598
10544TIP3   OH253046   0.817   2.236  16.317  0.1901 -0.3612  0.6877
10544TIP3    H153047   0.786   2.152  16.281  0.2499  0.0196 -0.2889
10544TIP3    H253048   0.744   2.269  16.368  0.6867 -1.7294  2.4103
10545TIP3   OH253049   3.821   2.198   3.471 -0.4202 -0.0888 -0.0744
10545TIP3    H153050   3.907   2.156   3.468 -1.1369 -1.6634  0.0349
10545TIP3    H253051   3.799   2.200   3.565 -0.1204  1.1581 -0.0210
10546TIP3   OH253052   3.508   3.742   5.452  0.1224  0.2001 -0.0989
10546TIP3    H153053   3.451   3.802   5.500 -0.1318  1.2742 -1.6759
10546TIP3    H253054   3.594   3.784   5.453  0.3310 -0.2164  0.1599
10547TIP3   OH253055   0.963   4.344   4.470  0.7680 -0.0957 -0.3615
10547TIP3    H153056   0.966   4.364   4.563  1.7926  0.4422 -0.4917
10547TIP3    H253057   0.913   4.417   4.432 -0.4517 -0.7911 -0.1348
10548TIP3   OH253058   3.717   3.322   4.128  0.0223 -0.0376 -0.1061
10548TIP3    H153059   3.682   3.339   4.215  0.4813 -0.0635  0.0833
10548TIP3    H253060   3.735   3.408   4.092  0.8592 -0.0623  0.2459
10549TIP3   OH253061   2.568   3.406   6.294  0.1364  0.3975  0.1855
10549TIP3    H153062   2.609   3.490   6.316 -1.6728  2.0800 -2.3295
10549TIP3    H253063   2.474   3.421   6.308 -0.2935 -0.9278 -1.0373
10550TIP3   OH253064   0.590   6.390  16.327 -0.4640  0.0183 -0.4558
10550TIP3    H153065   0.636   6.400  16.243 -0.4466  1.8221 -0.2672
10550TIP3    H253066   0.512   6.445  16.318 -0.7822 -0.2653  0.4964
10551TIP3   OH253067   1.547   0.586  10.562  0.2387 -0.0157  0.4653
10551TIP3    H153068   1.457   0.568  10.591  0.1850 -2.2568 -0.8903
10551TIP3    H253069   1.580   0.648  10.627 -2.5798  1.6842  0.4780
10552TIP3   OH253070   5.372   4.176   4.252  0.0062 -0.0403  0.0493
10552TIP3    H153071   5.285   4.138   4.236 -1.6471  3.4134 -0.2425
10552TIP3    H253072   5.411   4.182   4.165 -0.5718  0.6519 -0.1770
10553TIP3   OH253073   1.583   4.629  15.458  0.1141  0.8839  0.0594
10553TIP3    H153074   1.637   4.702  15.486  1.0094  0.8911 -1.5385
10553TIP3    H253075   1.643   4.555  15.452 -0.1926  0.6990 -0.9596
10554TIP3   OH253076   6.862   5.304   3.552 -0.6659 -0.0117 -0.1469
10554TIP3    H153077   6.884   5.314   3.645  2.0326  1.8330 -0.8695
10554TIP3    H253078   6.826   5.389   3.526 -0.5647 -0.2168 -0.9908
10555TIP3   OH253079   3.961   0.139  11.609  0.1879  0.1732 -0.0706
10555TIP3    H153080   4.025   0.192  11.562  0.6661 -2.0036 -2.1062
10555TIP3    H253081   4.008   0.058  11.631 -1.1717 -0.4724  0.6237
10556TIP3   OH253082   1.093   4.040   3.147  0.0555  0.2239 -0.7508
10556TIP3    H153083   1.046   3.960   3.172 -0.2303  0.2239 -1.2636
10556TIP3    H253084   1.041   4.111   3.183  1.6092  0.1661  1.9163
10557TIP3   OH253085   3.491   6.464   0.515 -0.4399 -0.4842 -0.5452
10557TIP3    H153086   3.569   6.469   0.460 -0.4148  1.9663 -0.3749
10557TIP3    H253087   3.419   6.454   0.453 -0.3943  2.0796 -1.1224
10558TIP3   OH253088   3.449   0.175  16.095  0.3151  0.0812 -0.1995
10558TIP3    H153089   3.475   0.168  16.187 -0.5976  1.0900  0.1580
10558TIP3    H253090   3.498   0.106  16.051 -1.0892 -2.1286  1.4569
10559TIP3   OH253091   0.760   3.954   3.392 -0.0735  0.1653 -0.6087
10559TIP3    H153092   0.802   3.940   3.477 -0.9700  1.4435  0.0749
10559TIP3    H253093   0.698   3.882   3.383 -0.2883  0.2712  0.0181
10560TIP3   OH253094   4.518   3.128   2.606 -0.0356  0.4062  0.3437
10560TIP3    H153095   4.581   3.167   2.545  1.1493  0.7771  1.7276
10560TIP3    H253096   4.455   3.083   2.550  1.8779 -0.6448 -1.0980
10561TIP3   OH253097   4.958   1.615   2.599 -0.0382  0.0478 -0.0988
10561TIP3    H153098   4.882   1.597   2.544 -1.1699 -0.9613  1.7242
10561TIP3    H253099   4.994   1.529   2.619  0.5813  0.4183  0.4289
10562TIP3   OH253100   0.864   3.161   0.718 -0.4669  0.4177 -0.5924
10562TIP3    H153101   0.928   3.124   0.779 -0.5779  2.2618  0.7202
10562TIP3    H253102   0.917   3.196   0.646 -0.3161 -1.5022 -1.4772
10563TIP3   OH253103   3.148   3.259   3.363 -0.0624 -0.3625  0.0375
10563TIP3    H153104   3.184   3.319   3.429  0.7940 -0.5388 -0.2575
10563TIP3    H253105   3.061   3.238   3.396 -0.3638  0.9987  0.1665
10564TIP3   OH253106   3.239   3.066  13.059  0.0583 -0.3458  0.1160
10564TIP3    H153107   3.277   3.107  13.137  0.3942  0.9337 -0.7001
10564TIP3    H253108   3.295   2.990  13.042 -0.0529 -0.6778  1.1317
10565TIP3   OH253109   3.199   2.356  14.953  0.5565  0.1625 -0.0806
10565TIP3    H153110   3.272   2.418  14.944  0.7057 -0.1834 -1.6379
10565TIP3    H253111   3.138   2.382  14.884 -0.0169 -0.5882  0.1375
10566TIP3   OH253112   4.578   4.586  13.117  0.3120 -0.1901 -0.3542
10566TIP3    H153113   4.510   4.631  13.167  2.1422  0.9202  1.3037
10566TIP3    H253114   4.574   4.495  13.146 -1.0026 -0.3418 -0.9481
10567TIP3   OH253115   3.294   3.381   6.105  0.1500 -0.4428  0.3056
10567TIP3    H153116   3.314   3.395   6.013 -1.2627 -0.5327 -0.0385
10567TIP3    H253117   3.335   3.297   6.126 -0.3211 -0.8888 -0.5067
10568TIP3   OH253118   5.811   1.904  12.023 -0.1491 -0.5055  0.5858
10568TIP3    H153119   5.746   1.837  12.045 -0.4736 -0.4913 -0.2956
10568TIP3    H253120   5.828   1.891  11.930  2.2179 -1.4694  1.0785
10569TIP3   OH253121   1.266   5.658  15.059  0.2955  0.1348 -0.2029
10569TIP3    H153122   1.194   5.715  15.086 -0.5464 -0.6877 -0.6095
10569TIP3    H253123   1.320   5.648  15.137 -0.7264 -0.2207  0.4865
10570TIP3   OH253124   0.169   1.616   4.296 -0.1700 -0.5087 -0.0897
10570TIP3    H153125   0.197   1.708   4.296  1.6406 -0.9742  1.7589
10570TIP3    H253126   0.076   1.619   4.318  0.0601  0.8744  0.8442
10571TIP3   OH253127   4.254   1.111  10.415  0.5745 -0.4459 -0.1768
10571TIP3    H153128   4.338   1.107  10.460  1.8708 -0.0172 -2.4235
10571TIP3    H253129   4.217   1.023  10.426  1.5099 -0.7740  0.4881
10572TIP3   OH253130   2.344   1.133   2.456  0.1259  0.0474 -0.0106
10572TIP3    H153131   2.322   1.071   2.385  0.4885  0.1405 -0.2072
10572TIP3    H253132   2.439   1.145   2.448  0.2026 -0.0944  0.6179
10573TIP3   OH253133   2.268   1.412  14.217  0.1995  0.6777  0.6778
10573TIP3    H153134   2.260   1.317  14.225  0.0699  0.5641 -0.6563
10573TIP3    H253135   2.186   1.440  14.176  0.6502  1.2419  0.1441
10574TIP3   OH253136   2.417   4.978   3.979  0.2041  0.1432  0.1275
10574TIP3    H153137   2.425   4.933   3.895 -1.6311 -0.8071  0.4042
10574TIP3    H253138   2.474   4.930   4.039 -0.1503 -0.5536 -0.0810
10575TIP3   OH253139   6.356   1.139   5.467 -0.3290  0.1779  0.1628
10575TIP3    H153140   6.342   1.230   5.439  0.0016 -0.0627 -0.8230
10575TIP3    H253141   6.366   1.145   5.562  0.4211  1.2697  0.0420
10576TIP3   OH253142   0.111   4.714   3.013  0.5365 -0.2788 -0.1221
10576TIP3    H153143   0.197   4.755   3.021  0.4026 -0.2794  1.8770
10576TIP3    H253144   0.129   4.622   2.993  0.9482 -0.0377 -0.8773
10577TIP3   OH253145   3.846   1.663  16.588  0.0251  0.0103 -0.3164
10577TIP3    H153146   3.887   1.742  16.552  3.0691 -0.5039  1.6678
10577TIP3    H253147   3.837   1.604  16.513  2.1089  0.5475 -1.0580
10578TIP3   OH253148   5.800   5.839   0.583  0.0185 -0.4927 -0.4457
10578TIP3    H153149   5.732   5.890   0.627  0.7570 -0.7743  1.0665
10578TIP3    H253150   5.882   5.868   0.623  0.6702 -1.1542 -1.2564
10579TIP3   OH253151   4.559   0.031  14.832  0.4330 -0.1468  1.0608
10579TIP3    H153152   4.595  -0.027  14.899  0.6591 -2.9929 -1.3345
10579TIP3    H253153   4.632   0.048  14.773  0.3761  2.7461  1.6803
10580TIP3   OH253154   2.390   3.584  14.127 -0.7129 -0.2000 -0.0704
10580TIP3    H153155   2.397   3.522  14.200 -0.0462  0.0935  0.1132
10580TIP3    H253156   2.297   3.582  14.104 -0.8837 -0.4967  0.6087
10581TIP3   OH253157   4.065   3.154   5.928 -0.4295  0.4788 -0.5312
10581TIP3    H153158   4.131   3.213   5.890  1.1290  0.3457  1.7864
10581TIP3    H253159   4.116   3.086   5.972 -2.1490 -0.1017  0.6463
10582TIP3   OH253160   5.936   3.877   2.812  0.0459  0.3032 -0.0586
10582TIP3    H153161   5.917   3.795   2.856 -0.2569  0.4123  0.0200
10582TIP3    H253162   6.031   3.880   2.805  0.0011 -1.3928 -2.6150
10583TIP3   OH253163   4.913   1.900   1.057  0.3319 -0.0987  0.1784
10583TIP3    H153164   4.918   1.808   1.084 -0.6370 -0.0273  0.6723
10583TIP3    H253165   4.979   1.909   0.989  0.8316 -1.0220  0.5227
10584TIP3   OH253166   4.503   2.808  15.304 -0.1074  0.4151  0.4221
10584TIP3    H153167   4.578   2.856  15.268  0.4434  0.5580  1.6739
10584TIP3    H253168   4.512   2.719  15.270  1.2818  0.1431  1.3917
10585TIP3   OH253169   5.059   6.131   3.981  0.0452 -0.3141  0.2525
10585TIP3    H153170   5.001   6.180   3.924  0.4103 -0.2910 -0.1029
10585TIP3    H253171   5.139   6.182   3.984 -0.3000  0.1841  1.5687
10586TIP3   OH253172   2.710   5.351  15.578 -0.2903 -0.2899  0.2758
10586TIP3    H153173   2.780   5.349  15.513  1.7794  1.1985  2.2748
10586TIP3    H253174   2.668   5.436  15.566  0.6349  0.3497  1.3011
10587TIP3   OH253175   3.264   6.119   0.501 -0.8569 -0.4029  0.5808
10587TIP3    H153176   3.226   6.185   0.558 -0.2293  0.2341  0.2842
10587TIP3    H253177   3.225   6.135   0.415 -2.3523 -1.8202  0.9453
10588TIP3   OH253178   4.213   0.047  10.232 -0.0176  0.1008  0.5548
10588TIP3    H153179   4.174   0.116  10.287  0.1585 -0.8254  1.8848
10588TIP3    H253180   4.287   0.015  10.284  0.1987 -0.7587 -0.2743
10589TIP3   OH253181   1.869   0.410   2.193  0.0196  0.2861  0.0083
10589TIP3    H153182   1.790   0.362   2.216 -1.2680  1.0099 -2.4840
10589TIP3    H253183   1.937   0.342   2.187 -0.3556 -0.3419  2.2026
10590TIP3   OH253184   4.206   1.386  13.557 -0.5206  0.4890  0.2572
10590TIP3    H153185   4.139   1.319  13.564  0.5657 -0.5616  1.0741
10590TIP3    H253186   4.272   1.361  13.623  1.0905  0.9783 -1.0950
10591TIP3   OH253187   2.928   0.156   4.389  0.1756  0.5600 -0.2640
10591TIP3    H153188   2.833   0.143   4.393  0.0457 -0.1468 -3.3876
10591TIP3    H253189   2.940   0.251   4.395 -0.8914  0.7889 -1.3936
10592TIP3   OH253190   0.532   0.524   3.509 -0.6934 -0.2039  0.4411
10592TIP3    H153191   0.600   0.538   3.575  0.1178 -0.6823 -0.2610
10592TIP3    H253192   0.514   0.612   3.474  0.7616 -0.2400 -0.4898
10593TIP3   OH253193   3.825   5.580  15.082  0.6471 -0.0377 -0.1524
10593TIP3    H153194   3.865   5.501  15.118  0.8885 -0.6023 -1.5546
10593TIP3    H253195   3.897   5.625  15.037  0.5041  0.9885  0.6031
10594TIP3   OH253196   3.675   0.279  15.526 -0.4637 -0.0607  0.1409
10594TIP3    H153197   3.581   0.289  15.508 -0.5893  1.8938  1.6328
10594TIP3    H253198   3.681   0.281  15.621  1.0774 -0.6305  0.0786
10595TIP3   OH253199   5.508   0.496   3.136 -0.2909  0.2274 -0.2605
10595TIP3    H153200   5.462   0.486   3.219  0.7205 -0.3739  0.2509
10595TIP3    H253201   5.599   0.473   3.156  0.8105  3.6872 -0.6647
10596TIP3   OH253202   6.212   0.383   3.010  0.3011  0.0011 -0.4054
10596TIP3    H153203   6.122   0.359   2.988  0.0319  0.5818  0.0333
10596TIP3    H253204   6.245   0.427   2.931 -0.8199  2.4933  0.3972
10597TIP3   OH253205   0.560   1.507   1.298 -0.0381  0.2002 -0.0067
10597TIP3    H153206   0.599   1.490   1.384  0.6719 -1.3064 -0.5762
10597TIP3    H253207   0.470   1.474   1.306  1.0177 -3.3683 -0.7758
10598TIP3   OH253208   2.545   5.763  15.928  0.1662 -0.7116 -0.1967
10598TIP3    H153209   2.603   5.800  15.861 -1.6611  0.5437 -1.1574
10598TIP3    H253210   2.599   5.697  15.972  2.5939  0.9894 -0.4366
10599TIP3   OH253211   3.612   4.123   5.342 -0.2485  0.3293 -0.4188
10599TIP3    H153212   3.596   4.124   5.437 -2.0824  0.1988 -0.6922
10599TIP3    H253213   3.693   4.072   5.333 -1.0133 -1.2703  0.9820
10600TIP3   OH253214   4.700   4.647  15.578  0.0170 -0.3509  0.6146
10600TIP3    H153215   4.747   4.708  15.521  0.4529  1.4000  2.7224
10600TIP3    H253216   4.608   4.673  15.570 -0.0457 -0.7051  0.0744
10601TIP3   OH253217   5.599   1.411   0.596  0.0638  0.5197  0.1327
10601TIP3    H153218   5.553   1.462   0.529 -2.4037 -1.4511  0.1352
10601TIP3    H253219   5.599   1.467   0.673 -2.8940  0.5462  0.2494
10602TIP3   OH253220   0.420   4.862  13.126 -0.0753  0.4134 -0.2930
10602TIP3    H153221   0.426   4.795  13.193 -0.9291 -0.8320 -1.4039
10602TIP3    H253222   0.327   4.884  13.122 -0.4738 -1.2556 -2.5918
10603TIP3   OH253223   4.296   5.076   2.777  0.5068  0.3549  1.0044
10603TIP3    H153224   4.336   5.043   2.696  1.3219 -0.6985  1.8010
10603TIP3    H253225   4.367   5.123   2.821 -0.1494  1.6084  0.7622
10604TIP3   OH253226   6.058   5.586  12.484 -0.1440  0.4941  0.1897
10604TIP3    H153227   6.130   5.588  12.547  1.5268 -4.2918 -1.0974
10604TIP3    H253228   5.984   5.550  12.533 -0.2959  1.1211  0.4339
10605TIP3   OH253229   3.504   5.073   0.483  1.0486 -0.1343  0.5118
10605TIP3    H153230   3.540   5.121   0.558  0.3418  1.6679 -0.2423
10605TIP3    H253231   3.570   5.083   0.415  0.1337  1.3318 -0.1990
10606TIP3   OH253232   1.545   5.335  12.982 -0.4974  0.2700  0.0215
10606TIP3    H153233   1.493   5.339  13.062 -1.9376  1.9130 -0.9398
10606TIP3    H253234   1.588   5.249  12.986  0.0785  0.5750  2.8682
10607TIP3   OH253235   0.832   5.584   3.101 -0.6458  0.4649 -0.0593
10607TIP3    H153236   0.798   5.611   3.186 -0.8167  0.1772 -0.0335
10607TIP3    H253237   0.781   5.634   3.038 -2.6575 -1.4942 -0.1198
10608TIP3   OH253238   2.602   6.716   6.269 -0.8425  0.3422 -0.4688
10608TIP3    H153239   2.516   6.675   6.270 -0.6114 -0.2411 -1.9492
10608TIP3    H253240   2.606   6.762   6.185 -0.2373  1.5326  0.1904
10609TIP3   OH253241   4.730   0.856   0.195 -0.1564  0.1665  0.0446
10609TIP3    H153242   4.778   0.774   0.177 -0.5133  0.0853 -0.5797
10609TIP3    H253243   4.763   0.917   0.129  0.6923  0.7811  1.0088
10610TIP3   OH253244   6.421   3.028   1.338 -0.0486 -0.9554  0.3330
10610TIP3    H153245   6.420   3.069   1.251 -2.0935 -0.9642  0.3048
10610TIP3    H253246   6.422   2.934   1.320 -1.4463 -0.9704  0.2868
10611TIP3   OH253247   0.307   3.602  16.363  0.2712  0.3772 -0.3180
10611TIP3    H153248   0.346   3.617  16.277  3.1709 -0.0529  0.8112
10611TIP3    H253249   0.289   3.690  16.397 -1.6607  0.5295 -1.6298
10612TIP3   OH253250   4.793   2.349  12.210  0.2325 -0.2372  0.2674
10612TIP3    H153251   4.833   2.262  12.206  2.0390  0.6004 -0.7579
10612TIP3    H253252   4.770   2.370  12.120 -0.9005  0.0650  0.6051
10613TIP3   OH253253   0.328   2.307   3.193 -0.2775 -0.8103 -0.3941
10613TIP3    H153254   0.337   2.237   3.258 -0.6379 -0.7288 -0.2541
10613TIP3    H253255   0.327   2.387   3.244  0.7731 -0.6581 -0.6033
10614TIP3   OH253256   2.465   4.461  15.075 -0.1052  0.6325 -0.7285
10614TIP3    H153257   2.460   4.548  15.035 -1.4314  1.2122  0.6213
10614TIP3    H253258   2.398   4.462  15.143 -0.1361 -1.4594 -0.6767
10615TIP3   OH253259   4.180   5.138  15.865  0.2563  0.1606 -0.3945
10615TIP3    H153260   4.161   5.140  15.771  0.0371  1.1575 -0.3473
10615TIP3    H253261   4.234   5.216  15.879 -1.7244  1.4096  0.6877
10616TIP3   OH253262   1.609   5.061   5.689 -0.0814 -0.1364  0.5486
10616TIP3    H153263   1.534   5.059   5.748  0.4934 -0.9694  1.2713
10616TIP3    H253264   1.681   5.024   5.740  0.7434  0.3373 -0.2450
10617TIP3   OH253265   2.606   3.925   4.359  0.1567 -0.0439  0.3490
10617TIP3    H153266   2.692   3.965   4.360 -0.8202  2.2429  1.2772
10617TIP3    H253267   2.575   3.935   4.269 -0.1802  1.6992  0.6166
10618TIP3   OH253268   0.851   2.079  13.366 -0.4567  0.2751 -0.1135
10618TIP3    H153269   0.764   2.090  13.328 -1.4265 -0.5523  1.7335
10618TIP3    H253270   0.839   2.014  13.436  1.8481 -0.6530 -0.4678
10619TIP3   OH253271   2.077   0.696  11.668 -0.1633  0.1336 -0.0991
10619TIP3    H153272   2.068   0.786  11.637  1.2687  0.4007  0.1627
10619TIP3    H253273   1.988   0.662  11.672 -0.7706  1.7044  0.2651
10620TIP3   OH253274   4.613   2.709   2.755  0.3506  0.1084 -0.1318
10620TIP3    H153275   4.590   2.633   2.808  1.8534 -0.1030  0.2712
10620TIP3    H253276   4.589   2.784   2.809 -0.8239 -0.0611 -0.3903
10621TIP3   OH253277   1.706   6.577  15.673 -0.4506 -0.1607  0.1123
10621TIP3    H153278   1.756   6.552  15.596  0.0931  0.2024  0.3387
10621TIP3    H253279   1.641   6.640  15.642 -1.3503 -1.2754 -0.3333
10622TIP3   OH253280   4.167   5.182  12.148 -0.3738 -0.7156 -0.2739
10622TIP3    H153281   4.234   5.190  12.216 -1.8410  0.7861  1.0896
10622TIP3    H253282   4.191   5.248  12.083 -1.9528  1.8971  1.6025
10623TIP3   OH253283   2.051   4.627  14.657 -0.4710  0.2925  0.2494
10623TIP3    H153284   2.137   4.618  14.698  0.6148  0.8416 -1.7852
10623TIP3    H253285   2.018   4.711  14.690 -1.3282 -0.9514  2.8344
10624TIP3   OH253286   4.649   2.318   5.628  0.0016 -0.0487 -0.0547
10624TIP3    H153287   4.646   2.248   5.693 -0.4947 -0.3578 -0.4007
10624TIP3    H253288   4.583   2.381   5.658  0.5577  0.3523  0.3416
10625TIP3   OH253289   5.989   5.990   0.177  0.0872  0.0089  0.5588
10625TIP3    H153290   6.041   5.932   0.123 -1.4967 -0.5872 -0.4019
10625TIP3    H253291   5.949   6.052   0.115  0.0602  0.7763  1.3178
10626TIP3   OH253292   1.989   2.178  12.555 -0.4919  0.2709  0.0911
10626TIP3    H153293   1.894   2.193  12.551 -0.5919 -0.4271 -0.4048
10626TIP3    H253294   2.026   2.249  12.502 -0.8106 -0.0434 -0.5596
10627TIP3   OH253295   6.608   5.228   3.343  0.2458  0.3815  1.0976
10627TIP3    H153296   6.607   5.181   3.426  0.1921 -1.3512  0.1570
10627TIP3    H253297   6.673   5.183   3.289 -0.6524  0.6281 -0.2589
10628TIP3   OH253298   4.740   3.193   2.973 -0.5355 -0.2299 -0.1319
10628TIP3    H153299   4.771   3.105   2.954 -3.0999 -1.2644  0.1087
10628TIP3    H253300   4.646   3.183   2.989 -0.8990  2.5375  0.0031
10629TIP3   OH253301   5.552   6.619   3.789  0.1379  0.2056  0.2529
10629TIP3    H153302   5.458   6.613   3.801 -0.1933 -0.0305 -2.1021
10629TIP3    H253303   5.580   6.686   3.852 -1.6307  0.5584  0.7177
10630TIP3   OH253304   5.659   5.737  16.582  0.2448 -0.5270 -0.9129
10630TIP3    H153305   5.745   5.710  16.551  0.7150 -0.7166  0.4794
10630TIP3    H253306   5.667   5.831  16.598  0.7691 -0.8249  0.8551
10631TIP3   OH253307   2.338   5.034   3.104  0.5226 -0.2529 -0.0849
10631TIP3    H153308   2.297   4.958   3.145  0.4414  0.5340  1.3605
10631TIP3    H253309   2.265   5.093   3.084  0.6583 -0.2019 -0.4337
10632TIP3   OH253310   3.580   3.013  11.651 -0.0134  0.5145 -0.3997
10632TIP3    H153311   3.501   2.959  11.662 -0.7056  1.6602  0.5316
10632TIP3    H253312   3.623   2.977  11.574 -1.7134  0.1744 -1.2314
10633TIP3   OH253313   0.035   3.500  13.299 -0.0138 -0.5072 -1.0204
10633TIP3    H153314  -0.020   3.431  13.337  0.7057 -1.3459 -1.4403
10633TIP3    H253315   0.012   3.499  13.206  0.5487 -0.7195 -1.1602
10634TIP3   OH253316   6.071   2.288  14.444 -0.1761 -0.3653  0.3303
10634TIP3    H153317   6.141   2.347  14.470 -0.2264 -0.6957  1.2656
10634TIP3    H253318   6.115   2.209  14.412 -0.1198 -0.2847  0.2089
10635TIP3   OH253319   5.833   6.855  14.543 -0.1398  0.5471 -0.2838
10635TIP3    H153320   5.770   6.925  14.526 -1.2629 -0.1667  0.8029
10635TIP3    H253321   5.820   6.832  14.635  0.1339 -1.1442 -0.6297
10636TIP3   OH253322   1.024   0.850   5.335 -0.5804 -0.7947 -0.2013
10636TIP3    H153323   1.040   0.766   5.378 -1.3520 -1.5523 -1.3449
10636TIP3    H253324   0.956   0.832   5.271 -0.8603  0.7472 -0.3858
10637TIP3   OH253325   4.824   4.290   6.179 -0.3100  0.0644 -0.3426
10637TIP3    H153326   4.742   4.251   6.209 -0.3757 -0.2740 -0.9552
10637TIP3    H253327   4.798   4.372   6.138 -0.3279  0.0119 -0.4350
10638TIP3   OH253328   1.648   5.866  13.406 -0.3007 -0.2560 -0.1086
10638TIP3    H153329   1.583   5.935  13.420 -0.0379 -0.0430  0.0592
10638TIP3    H253330   1.719   5.908  13.358 -0.9448 -0.8470 -1.6539
10639TIP3   OH253331   1.081   3.400   2.955  0.1067  0.1078 -0.1504
10639TIP3    H153332   1.019   3.451   2.903 -2.2295 -2.2968  0.0243
10639TIP3    H253333   1.135   3.465   3.001 -0.0753  2.3079 -2.8113
10640TIP3   OH253334   2.188   3.893   4.710 -0.1627 -0.5383 -0.4249
10640TIP3    H153335   2.256   3.934   4.657  0.4850  0.1531  0.9223
10640TIP3    H253336   2.147   3.965   4.757 -0.9821 -1.1077 -0.2478
10641TIP3   OH253337   3.864   3.324  16.163  0.0590 -0.2858 -0.1242
10641TIP3    H153338   3.829   3.237  16.180 -0.3609 -0.3908 -1.4317
10641TIP3    H253339   3.937   3.332  16.225  0.9276 -2.0858 -0.8119
10642TIP3   OH253340   0.558   5.602  16.283 -0.3000 -0.3314  0.5851
10642TIP3    H153341   0.598   5.592  16.370  2.5196  0.2487 -0.5205
10642TIP3    H253342   0.546   5.512  16.252  0.2512 -0.5362  0.9441
10643TIP3   OH253343   5.700   2.283   0.745 -0.4337  0.1444  0.6913
10643TIP3    H153344   5.735   2.342   0.812  0.0704  0.0967  0.4709
10643TIP3    H253345   5.748   2.202   0.757 -0.4664  0.0799  0.3827
10644TIP3   OH253346   1.591   6.730  15.495 -0.1802  0.4844 -0.3549
10644TIP3    H153347   1.623   6.739  15.405  0.5226 -1.7724 -0.3850
10644TIP3    H253348   1.521   6.666  15.489  1.6461 -1.8021  0.9887
10645TIP3   OH253349   6.639   2.026  14.719  0.0068 -0.1500 -0.5167
10645TIP3    H153350   6.721   2.068  14.694 -0.0059 -0.9002 -1.9291
10645TIP3    H253351   6.639   1.943  14.673 -0.5983 -1.1183  1.1528
10646TIP3   OH253352   5.054   2.246  12.890  0.8564  0.1076 -0.1981
10646TIP3    H153353   5.046   2.339  12.870  0.5099  0.7275  2.3948
10646TIP3    H253354   5.027   2.201  12.811 -1.4422  2.2116 -0.7101
10647TIP3   OH253355   4.024   5.264   0.275 -0.5163  0.5705  0.1288
10647TIP3    H153356   4.067   5.343   0.307 -1.1243  1.0821 -0.2940
10647TIP3    H253357   3.995   5.287   0.187 -1.3590  0.1295  0.2839
10648TIP3   OH253358   4.204   1.142   4.421  0.0460 -0.1516  0.0637
10648TIP3    H153359   4.286   1.105   4.389  1.5250  1.6368  1.5927
10648TIP3    H253360   4.187   1.218   4.365 -0.1347 -0.0476  0.2536
10649TIP3   OH253361   4.522   1.489  13.721 -0.6001 -0.5464 -0.0593
10649TIP3    H153362   4.509   1.548  13.647 -0.0397 -1.1608 -0.6629
10649TIP3    H253363   4.484   1.406  13.692  0.8970 -1.1973 -0.2381
10650TIP3   OH253364   2.309   3.897  14.034  0.4167 -0.3194 -0.5002
10650TIP3    H153365   2.287   3.804  14.035 -2.0257  0.2070  0.8219
10650TIP3    H253366   2.295   3.925  13.943  2.7436 -1.5053 -1.3000
10651TIP3   OH253367   0.194   3.494   0.837 -0.1680 -0.0772  0.5725
10651TIP3    H153368   0.146   3.545   0.772  0.3735 -1.8439 -1.3010
10651TIP3    H253369   0.142   3.415   0.848  0.8445 -0.7409  0.6637
10652TIP3   OH253370   3.096   6.502  11.376 -0.3641  0.0980 -0.5655
10652TIP3    H153371   3.012   6.510  11.330 -0.6056 -0.3177 -0.2076
10652TIP3    H253372   3.088   6.422  11.427  0.6360 -0.4845 -1.2972
10653TIP3   OH253373   5.689   2.003   3.407 -0.5766  0.2313 -0.0637
10653TIP3    H153374   5.703   1.916   3.442  0.4055 -0.2549 -1.5357
10653TIP3    H253375   5.598   2.023   3.426 -0.7037 -0.9435  0.6423
10654TIP3   OH253376   3.332   0.154   4.795  0.1766 -0.4266 -0.0488
10654TIP3    H153377   3.321   0.237   4.748 -0.4726 -0.7444 -0.4772
10654TIP3    H253378   3.325   0.178   4.887 -0.2158 -0.0279 -0.1769
10655TIP3   OH253379   3.416   3.785  12.607  0.1135 -0.2445 -0.2461
10655TIP3    H153380   3.391   3.695  12.628  3.2717 -1.7137 -2.0316
10655TIP3    H253381   3.354   3.812  12.539 -1.1134 -0.9031  0.5818
10656TIP3   OH253382   3.003   5.169   5.145  0.0222 -0.3447 -0.3831
10656TIP3    H153383   3.085   5.126   5.120  0.0825 -0.6673  0.3466
10656TIP3    H253384   3.030   5.238   5.205 -0.3269 -1.2293  0.8331
10657TIP3   OH253385   5.169   6.840  12.143  0.0335 -0.3964 -0.7178
10657TIP3    H153386   5.231   6.805  12.079 -0.5670  0.0803 -1.5884
10657TIP3    H253387   5.222   6.857  12.221  0.8132 -0.8561 -1.1347
10658TIP3   OH253388   3.276   5.356   0.456  0.2660 -0.0962 -0.3598
10658TIP3    H153389   3.296   5.419   0.387  0.4684 -1.6350 -1.7915
10658TIP3    H253390   3.269   5.272   0.410  0.4564 -1.2006  1.5141
10659TIP3   OH253391   0.737   1.196   1.940 -0.4768 -0.0386 -0.6362
10659TIP3    H153392   0.771   1.285   1.951 -0.8018 -0.0179  0.2276
10659TIP3    H253393   0.757   1.152   2.023 -1.1632 -0.4890 -0.7021
10660TIP3   OH253394   1.799   4.935  14.459 -0.5662  0.8401  0.4330
10660TIP3    H153395   1.887   4.906  14.436 -2.0502 -1.7023 -2.8245
10660TIP3    H253396   1.797   4.934  14.555  2.4838 -0.3867  0.5915
10661TIP3   OH253397   6.349   2.345   1.000 -0.4441 -0.5346 -0.4788
10661TIP3    H153398   6.374   2.426   0.956 -0.4313 -0.2649  0.0128
10661TIP3    H253399   6.425   2.324   1.056 -0.5659 -0.7261 -0.3844
10662TIP3   OH253400   5.791   0.053  16.271 -0.5305 -0.5588 -0.2601
10662TIP3    H153401   5.879   0.020  16.253 -2.0232 -4.3559 -1.7030
10662TIP3    H253402   5.768   0.106  16.195  0.1776 -0.2787 -0.2844
10663TIP3   OH253403   1.893   3.008   0.304 -0.1537 -0.2215  0.0099
10663TIP3    H153404   1.805   3.012   0.339  0.3748 -1.4137  1.5983
10663TIP3    H253405   1.914   2.914   0.301 -0.2167 -0.2715 -3.8187
10664TIP3   OH253406   0.024   0.809   1.306 -0.0520  0.0748  0.1451
10664TIP3    H153407   0.100   0.868   1.302 -0.1931  0.2527  0.1014
10664TIP3    H253408   0.005   0.800   1.399  0.7172 -0.8581  0.2294
10665TIP3   OH253409   3.162   4.958   0.138 -0.3039 -0.1228 -0.5177
10665TIP3    H153410   3.198   4.870   0.128 -1.1141 -0.4494 -0.6394
10665TIP3    H253411   3.190   4.985   0.225  0.6851 -0.1402 -0.8075
10666TIP3   OH253412   1.597   5.653   0.376  0.2273 -0.2959  0.0193
10666TIP3    H153413   1.515   5.624   0.417 -0.5776  0.9858 -0.6430
10666TIP3    H253414   1.573   5.732   0.328  1.5455 -0.7451 -1.4371
10667TIP3   OH253415   4.439   6.172  12.984 -0.7924  0.3781 -0.3279
10667TIP3    H153416   4.501   6.207  12.921 -0.5651  1.0958  0.2803
10667TIP3    H253417   4.435   6.238  13.053 -1.2347 -0.2695  0.2795
10668TIP3   OH253418   3.258   4.212  10.864 -0.5846 -0.2812  0.1698
10668TIP3    H153419   3.285   4.158  10.939  0.2539 -0.8876 -0.5455
10668TIP3    H253420   3.224   4.149  10.801  0.0516  0.0675 -0.5251
10669TIP3   OH253421   1.505   1.218   0.601 -0.7214 -0.3610 -0.1544
10669TIP3    H153422   1.541   1.165   0.672  0.2839  0.6684  0.1382
10669TIP3    H253423   1.502   1.159   0.526  2.0719 -0.4264 -0.3368
10670TIP3   OH253424   0.233   1.399  13.769  0.0327 -0.0910 -0.1680
10670TIP3    H153425   0.138   1.393  13.772  0.0128  0.4519  2.1746
10670TIP3    H253426   0.255   1.467  13.832  2.0515 -1.4052  0.6673
10671TIP3   OH253427   0.942   3.157  10.454  0.0220  0.2706  0.4255
10671TIP3    H153428   0.931   3.238  10.404  0.8866  0.2023  0.1122
10671TIP3    H253429   1.028   3.125  10.429 -0.9489 -1.5868 -0.6684
10672TIP3   OH253430   2.303   4.851  10.604  0.0528 -0.3087  0.0290
10672TIP3    H153431   2.282   4.858  10.511  1.0215  0.6210 -0.1319
10672TIP3    H253432   2.256   4.923  10.645  0.9226  0.2761  0.0185
10673TIP3   OH253433   1.899   6.220   2.385 -0.0884  0.0734 -0.1978
10673TIP3    H153434   1.985   6.260   2.399 -0.2492  0.1991  0.4581
10673TIP3    H253435   1.840   6.293   2.369 -0.3257  0.0908  0.7045
10674TIP3   OH253436   2.291   0.621   5.628 -0.2160 -0.7890 -0.7596
10674TIP3    H153437   2.213   0.619   5.684  0.0979  1.6281 -0.1377
10674TIP3    H253438   2.256   0.629   5.539 -0.7446  1.0408 -0.4309
10675TIP3   OH253439   2.239   6.741   3.463  0.8017 -0.5412 -0.4339
10675TIP3    H153440   2.287   6.715   3.385  0.7303 -1.8932 -0.0509
10675TIP3    H253441   2.306   6.779   3.520  0.6991  1.3300 -1.4816
10676TIP3   OH253442   4.425   1.163   3.056  0.0992  0.2185 -0.3225
10676TIP3    H153443   4.397   1.115   2.979  0.5648 -1.5396  0.5383
10676TIP3    H253444   4.425   1.254   3.029  2.3343 -0.4611 -3.0930
10677TIP3   OH253445   2.623   4.225  15.067  0.1856 -0.5588 -0.3372
10677TIP3    H153446   2.673   4.210  14.988  0.1591 -0.3840 -0.3877
10677TIP3    H253447   2.583   4.311  15.054  0.5358 -0.3328  0.0497
10678TIP3   OH253448   4.440   0.045   5.872  0.3858  0.0162  1.1169
10678TIP3    H153449   4.380   0.015   5.939  0.2418  0.2533  1.0926
10678TIP3    H253450   4.449   0.139   5.887  1.7571 -0.2149  1.9308
10679TIP3   OH253451   3.949   2.544   5.040  0.7635 -0.7859  0.2836
10679TIP3    H153452   3.866   2.519   5.080  1.3513 -1.2212  1.2802
10679TIP3    H253453   3.964   2.634   5.070 -0.2810  0.0454 -1.5132
10680TIP3   OH253454   4.179   6.041  15.584 -0.2596 -0.1727 -0.4163
10680TIP3    H153455   4.226   6.096  15.646  0.4263 -0.5603 -0.5800
10680TIP3    H253456   4.171   6.095  15.506 -2.2249  0.7799  0.3888
10681TIP3   OH253457   5.217   1.234   3.704  0.4291 -0.2794  0.4189
10681TIP3    H153458   5.186   1.325   3.702  2.3166  0.4382  0.7947
10681TIP3    H253459   5.272   1.226   3.626  2.6978 -0.0978  1.8977
10682TIP3   OH253460   3.497   6.156  11.986 -0.1132 -0.1615 -1.2364
10682TIP3    H153461   3.478   6.072  11.944 -0.0168 -0.2496 -1.1002
10682TIP3    H253462   3.429   6.166  12.053  0.7798 -0.8440 -0.2104
10683TIP3   OH253463   0.366   2.461  15.329 -0.4000  0.1295  0.0241
10683TIP3    H153464   0.274   2.447  15.307 -0.9323  2.3684  0.6056
10683TIP3    H253465   0.383   2.400  15.401 -2.1605  1.3198  1.5396
10684TIP3   OH253466   1.358   6.252   1.988 -0.1832  0.1453 -0.2762
10684TIP3    H153467   1.315   6.196   2.053  2.1698 -1.3506  0.1390
10684TIP3    H253468   1.399   6.321   2.040 -1.0367  0.8467 -0.5305
10685TIP3   OH253469   6.215   3.584  15.780 -0.1140 -0.3252  1.0709
10685TIP3    H153470   6.127   3.576  15.816  0.1185 -0.9389  1.5089
10685TIP3    H253471   6.254   3.498  15.792  0.1548 -0.3968 -0.1856
10686TIP3   OH253472   0.422   1.093   2.075 -0.7012 -0.6230  0.1778
10686TIP3    H153473   0.480   1.113   2.148 -0.0545  0.8798 -0.7243
10686TIP3    H253474   0.352   1.159   2.081  0.1505  0.4883 -1.3944
10687TIP3   OH253475   6.000   3.503   2.363 -0.5489 -0.4604  0.1078
10687TIP3    H153476   6.023   3.419   2.403 -0.0595  0.4496  1.8409
10687TIP3    H253477   6.035   3.568   2.424 -0.6436  1.0077 -1.3557
10688TIP3   OH253478   4.271   2.328  11.149 -0.5921 -0.4567 -0.9253
10688TIP3    H153479   4.278   2.236  11.175  0.2893 -0.3332 -0.6786
10688TIP3    H253480   4.241   2.373  11.228 -0.5855 -0.4696 -0.9152
10689TIP3   OH253481   2.449   4.679   0.848  0.1365 -0.0420  0.2626
10689TIP3    H153482   2.356   4.659   0.840  0.2067 -1.4977  2.1168
10689TIP3    H253483   2.455   4.732   0.928  0.8876  0.1805  0.0678
10690TIP3   OH253484   5.848   0.019   4.059  0.0466 -0.2393  0.1043
10690TIP3    H153485   5.887   0.107   4.053 -1.0604  0.3760  1.3540
10690TIP3    H253486   5.830  -0.006   3.969  2.1383 -0.0181 -0.4248
10691TIP3   OH253487   1.238   5.109   4.318  0.1606 -0.6803 -0.1572
10691TIP3    H153488   1.202   5.030   4.277 -0.0720 -0.5854 -0.1381
10691TIP3    H253489   1.321   5.081   4.355 -0.8790 -1.4474  1.7294
10692TIP3   OH253490   4.628   4.594   4.823 -0.0709  0.0679 -0.0612
10692TIP3    H153491   4.665   4.593   4.735 -0.4544  0.3249 -0.2301
10692TIP3    H253492   4.580   4.512   4.829  0.1734 -0.0705  0.0037
10693TIP3   OH253493   2.313   1.928   0.811  0.9840  0.0102 -0.2620
10693TIP3    H153494   2.397   1.928   0.858  1.3863  1.6574 -0.9074
10693TIP3    H253495   2.282   2.018   0.818  0.6807  0.1233 -2.4590
10694TIP3   OH253496   4.073   1.617  11.205  0.0266  0.5209 -0.0158
10694TIP3    H153497   4.104   1.687  11.263  2.9130  0.6452 -1.5471
10694TIP3    H253498   4.022   1.559  11.263  0.1815  2.2259  1.9507
10695TIP3   OH253499   5.401   2.768  11.236  0.1904 -0.0875  0.6304
10695TIP3    H153500   5.339   2.791  11.305 -0.8169 -1.1784  0.1258
10695TIP3    H253501   5.364   2.690  11.195  1.4647 -0.2660 -0.2589
10696TIP3   OH253502   5.756   5.365   1.931  0.5387 -0.3468  0.3653
10696TIP3    H153503   5.664   5.392   1.931  0.2871 -1.0810  2.2135
10696TIP3    H253504   5.766   5.316   1.849 -1.6669 -3.1393  1.6019
10697TIP3   OH253505   1.535   1.258  15.493 -0.8647  0.0613 -0.5634
10697TIP3    H153506   1.592   1.259  15.417  0.1006 -2.0390  0.0610
10697TIP3    H253507   1.550   1.342  15.536  0.6372  0.1470 -1.2168
10698TIP3   OH253508   2.850   5.096  14.680 -0.4139 -0.0715  0.7494
10698TIP3    H153509   2.900   5.136  14.751 -0.8338  0.1553  0.9191
10698TIP3    H253510   2.873   5.003  14.684 -0.1030  0.0105  0.9039
10699TIP3   OH253511   4.503   3.066   3.129 -0.4950  0.0083 -0.2256
10699TIP3    H153512   4.588   3.027   3.148 -0.0338 -0.3629 -2.6592
10699TIP3    H253513   4.440   3.014   3.179  0.5421 -0.8075  0.2721
10700TIP3   OH253514   4.480   6.414  14.971 -0.0460  0.2506 -0.0296
10700TIP3    H153515   4.480   6.349  15.042  0.3554  1.0150  0.6838
10700TIP3    H253516   4.573   6.433  14.956 -0.1549  0.5402 -0.3587
10701TIP3   OH253517   2.735   0.634  15.818  0.7093 -0.0710 -0.3888
10701TIP3    H153518   2.642   0.659  15.816  0.3968 -0.0610  4.0532
10701TIP3    H253519   2.734   0.545  15.855  2.4808 -0.1471 -0.4762
10702TIP3   OH253520   5.741   6.585   0.841 -0.0213 -0.3444 -0.0264
10702TIP3    H153521   5.695   6.612   0.762 -0.7437  1.4784  0.9733
10702TIP3    H253522   5.675   6.539   0.893 -0.2549  0.6962  0.6176
10703TIP3   OH253523   3.941   1.481  14.444 -0.1696  0.0157 -0.0676
10703TIP3    H153524   3.921   1.440  14.528  0.1530 -1.4484 -0.6816
10703TIP3    H253525   3.857   1.517  14.415 -0.1890  0.9442  1.0778
10704TIP3   OH253526   4.725   6.276  11.327 -0.2768  0.3714 -0.6319
10704TIP3    H153527   4.798   6.315  11.278  1.1078 -1.4774 -0.1444
10704TIP3    H253528   4.761   6.262  11.415 -1.4460 -0.0052 -0.2010
10705TIP3   OH253529   1.038   1.717   5.870  0.1114  0.9533 -0.0547
10705TIP3    H153530   1.133   1.716   5.863  0.1744 -0.1823  0.7763
10705TIP3    H253531   1.020   1.751   5.957 -0.2545  1.2978 -0.2585
10706TIP3   OH253532   1.411   0.415   1.962 -0.6018  0.2859  0.5807
10706TIP3    H153533   1.471   0.482   1.928  0.9437 -0.0709  2.4440
10706TIP3    H253534   1.458   0.333   1.949 -1.8357 -0.3248 -0.2770
10707TIP3   OH253535   4.205   2.711  16.397  0.1098 -0.0193 -0.1765
10707TIP3    H153536   4.115   2.687  16.373  0.7803 -3.2498  0.0834
10707TIP3    H253537   4.200   2.732  16.490 -0.3438 -0.4264 -0.1028
10708TIP3   OH253538   3.467   2.960  13.279  0.3135 -0.3456  0.3384
10708TIP3    H153539   3.469   3.055  13.269  2.5606  0.2236  4.1614
10708TIP3    H253540   3.556   2.932  13.257 -0.8765 -2.0651 -2.9738
10709TIP3   OH253541   6.395   6.206   2.334  0.4892  0.4531  0.4136
10709TIP3    H153542   6.452   6.187   2.260  2.2935  0.6402  1.6753
10709TIP3    H253543   6.381   6.121   2.376 -1.3132  0.1935 -0.6185
10710TIP3   OH253544   1.043   1.735  14.297 -0.2144  0.5316  0.1604
10710TIP3    H153545   1.012   1.806  14.242  0.4267  0.5340 -0.2117
10710TIP3    H253546   1.047   1.659  14.238 -0.5141  0.2773  0.4576
10711TIP3   OH253547   1.323   3.212  11.091  0.3665  0.1819  0.5855
10711TIP3    H153548   1.300   3.243  11.004 -1.8485  0.7245  1.2994
10711TIP3    H253549   1.240   3.210  11.139  1.6300  0.8621  2.9909
10712TIP3   OH253550   6.127   3.193  13.698 -0.7694 -0.3993 -0.0555
10712TIP3    H153551   6.146   3.249  13.623 -1.0637  0.5209  0.5344
10712TIP3    H253552   6.210   3.151  13.719 -0.1575  0.9913  0.4183
10713TIP3   OH253553   4.905   5.763  15.783  0.3995 -0.3584  0.2640
10713TIP3    H153554   4.831   5.822  15.770  1.5081  0.9102 -0.6214
10713TIP3    H253555   4.938   5.785  15.870 -1.6291 -2.5931  1.7071
10714TIP3   OH253556   6.654   3.110  13.095  0.1374  0.0780  0.1781
10714TIP3    H153557   6.737   3.133  13.137 -1.3849 -0.9705  4.2001
10714TIP3    H253558   6.628   3.028  13.136 -3.4858  0.9837  0.0268
10715TIP3   OH253559   2.252   1.101   1.885 -0.2070  0.0296  0.1646
10715TIP3    H153560   2.303   1.087   1.965 -0.9975 -0.5667  0.5867
10715TIP3    H253561   2.161   1.087   1.913 -0.5210  0.1822 -0.7636
10716TIP3   OH253562   6.547   3.189  12.847 -0.2921  0.1785 -0.0654
10716TIP3    H153563   6.458   3.153  12.847 -0.2204 -0.0062 -0.6597
10716TIP3    H253564   6.588   3.152  12.926  0.6260 -3.2152 -1.9217
10717TIP3   OH253565   3.528   0.884   0.088  0.0614  0.0577 -0.3007
10717TIP3    H153566   3.550   0.972   0.121 -0.5636  0.1969 -0.2401
10717TIP3    H253567   3.607   0.832   0.104  1.1329  1.0516 -2.0482
10718TIP3   OH253568   2.874   0.156  14.924  0.1534 -0.6890  0.2671
10718TIP3    H153569   2.850   0.158  14.831  0.0948  0.8091  0.2943
10718TIP3    H253570   2.810   0.097  14.963 -0.1716 -0.8930 -0.5374
10719TIP3   OH253571   5.017   2.227   2.477  0.5420  0.1151 -0.6557
10719TIP3    H153572   4.933   2.238   2.432  0.5832  1.1705 -0.5141
10719TIP3    H253573   5.008   2.145   2.525 -0.9007  0.8184  0.3643
10720TIP3   OH253574   4.790   2.463   0.475  0.3114 -0.3885  0.3245
10720TIP3    H153575   4.790   2.456   0.380 -1.1310 -1.2041  0.3553
10720TIP3    H253576   4.773   2.555   0.493  1.6007 -0.0303 -0.1828
10721TIP3   OH253577   6.483   5.485   2.526 -0.3612 -0.2636  0.1416
10721TIP3    H153578   6.531   5.555   2.571 -1.1153  0.0781  0.4350
10721TIP3    H253579   6.501   5.406   2.576 -0.4802 -0.0474  0.5314
10722TIP3   OH253580   2.416   2.514   2.348  0.0603  0.0434 -0.4026
10722TIP3    H153581   2.341   2.517   2.408  2.0855 -1.5734  2.5059
10722TIP3    H253582   2.471   2.588   2.375  0.4592 -0.0133 -1.0461
10723TIP3   OH253583   0.218   3.281  15.556  0.1492 -0.1579  0.1482
10723TIP3    H153584   0.175   3.306  15.475 -0.1002 -0.0809  0.3030
10723TIP3    H253585   0.310   3.270  15.532  0.0117 -0.4996 -0.2180
10724TIP3   OH253586   4.051   4.089  11.998  0.3201  0.1907 -0.4078
10724TIP3    H153587   4.108   4.164  11.982  2.3698 -0.7903  1.6957
10724TIP3    H253588   4.074   4.027  11.930  0.1321  0.6567 -0.9027
10725TIP3   OH253589   2.021   1.054   3.837 -0.8449 -0.4126  0.1543
10725TIP3    H153590   2.017   1.146   3.864  0.9119 -0.7079  1.6399
10725TIP3    H253591   2.035   1.006   3.919  1.6765 -1.6730 -0.9117
10726TIP3   OH253592   1.153   5.417  10.517  0.2457 -0.5715  0.2682
10726TIP3    H153593   1.144   5.335  10.469 -1.3670 -0.2064 -0.1094
10726TIP3    H253594   1.248   5.432  10.521  0.4772 -1.1490 -1.8818
10727TIP3   OH253595   4.360   0.148  15.852  0.0639 -0.3043  0.1506
10727TIP3    H153596   4.388   0.217  15.914  0.7371 -0.4897  0.0649
10727TIP3    H253597   4.283   0.109  15.893  0.1913 -0.0740  0.6201
10728TIP3   OH253598   2.518   1.412  13.398  0.3720 -0.3252  0.4719
10728TIP3    H153599   2.569   1.490  13.419 -0.0560  0.7035 -2.0212
10728TIP3    H253600   2.438   1.421  13.449  1.2795 -0.3423  1.9591
10729TIP3   OH253601   2.365   3.226   1.099 -0.2628  0.0011  0.1115
10729TIP3    H153602   2.389   3.218   1.007  0.5302 -2.0250  0.4449
10729TIP3    H253603   2.374   3.320   1.119  1.8007  0.1515 -1.2812
10730TIP3   OH253604   5.989   2.319   1.513 -0.4390 -0.5081  0.0799
10730TIP3    H153605   6.068   2.328   1.568 -0.9308  0.1575  0.6949
10730TIP3    H253606   5.996   2.231   1.476  0.9999 -0.1620 -0.5231
10731TIP3   OH253607   0.453   6.122   0.921 -0.1279 -0.5857  0.5581
10731TIP3    H153608   0.418   6.114   1.010  1.5124  0.3022  1.3247
10731TIP3    H253609   0.546   6.106   0.930  0.3466  1.0775 -0.7211
10732TIP3   OH253610   3.673   4.461  14.849 -0.0136 -0.3933 -0.0014
10732TIP3    H153611   3.761   4.483  14.879  0.4191  0.0307 -1.5014
10732TIP3    H253612   3.635   4.544  14.821 -0.1251 -0.8447 -1.2522
10733TIP3   OH253613   2.835   3.609   4.556 -0.1632  0.2517  0.0645
10733TIP3    H153614   2.839   3.611   4.461 -0.9826 -1.7557 -0.0679
10733TIP3    H253615   2.743   3.624   4.577  0.0149  0.7014  0.5513
10734TIP3   OH253616   1.055   6.019   1.977 -0.0121 -0.3674 -0.1957
10734TIP3    H153617   1.134   5.978   1.943  0.8815  0.8546  0.3352
10734TIP3    H253618   1.047   5.987   2.066 -1.4855 -2.3393 -0.9428
10735TIP3   OH253619   3.942   3.797   3.925 -0.2674  0.2494 -0.1913
10735TIP3    H153620   3.973   3.888   3.925 -0.2161  0.2326  0.3351
10735TIP3    H253621   3.852   3.802   3.957  0.5776 -0.1518  2.5156
10736TIP3   OH253622   3.936   2.771  11.729  0.1764  0.5050 -0.0123
10736TIP3    H153623   3.892   2.717  11.663  0.3384 -0.9411  1.0073
10736TIP3    H253624   3.885   2.758  11.809 -0.6441  3.0812 -0.0563
10737TIP3   OH253625   3.546   1.344  12.047  0.5200 -0.0251 -0.2736
10737TIP3    H153626   3.585   1.311  11.966 -0.0430  0.1700 -0.6266
10737TIP3    H253627   3.605   1.414  12.075  1.5335 -1.0666  0.2913
10738TIP3   OH253628   3.631   3.948   4.264  0.6015  0.0959  0.8095
10738TIP3    H153629   3.661   4.038   4.271  0.3221  0.3062 -0.3981
10738TIP3    H253630   3.652   3.909   4.348  0.0189  1.4965  1.6287
10739TIP3   OH253631   3.370   4.926   1.201 -0.3278 -0.3402  0.4300
10739TIP3    H153632   3.304   4.857   1.197 -1.0086  0.3794 -1.1636
10739TIP3    H253633   3.444   4.892   1.151 -1.4582  0.8586 -2.2079
10740TIP3   OH253634   0.479   2.473   3.859 -0.0285  0.1286  0.3773
10740TIP3    H153635   0.524   2.492   3.777  0.5307  0.4896  0.7618
10740TIP3    H253636   0.498   2.380   3.875 -0.1057  0.0670  0.1229
10741TIP3   OH253637   4.425   4.492   2.345 -0.2713 -0.0586  0.0954
10741TIP3    H153638   4.343   4.537   2.327  0.6638  0.9851 -1.8894
10741TIP3    H253639   4.404   4.399   2.340 -1.1414  0.1915 -1.5217
10742TIP3   OH253640   1.460   2.267  13.480 -0.6245  0.0894 -0.0211
10742TIP3    H153641   1.451   2.198  13.415 -3.1611 -0.5549  0.9328
10742TIP3    H253642   1.474   2.221  13.563 -1.5707  0.7206  0.5077
10743TIP3   OH253643   5.577   2.953  15.919 -0.1894  0.1299 -0.0630
10743TIP3    H153644   5.551   2.914  15.835 -0.9803  0.2078  0.1439
10743TIP3    H253645   5.540   3.041  15.917  2.0076  1.1085 -0.7405
10744TIP3   OH253646   1.494   0.578  14.658 -0.1518 -0.0882  0.1463
10744TIP3    H153647   1.465   0.609  14.744 -2.6160  0.9417 -0.9284
10744TIP3    H253648   1.509   0.485  14.669  1.8245  0.3954  2.1797
10745TIP3   OH253649   1.329   6.141   2.614  0.5354 -0.1901 -0.1719
10745TIP3    H153650   1.399   6.165   2.554  0.7759  1.2976  0.6664
10745TIP3    H253651   1.264   6.210   2.605 -0.4636 -1.1141 -0.3193
10746TIP3   OH253652   0.446   5.031  13.444  0.3543  0.1211  0.5117
10746TIP3    H153653   0.428   5.103  13.383 -1.2088 -0.8917 -0.2747
10746TIP3    H253654   0.443   5.072  13.530  1.8919  1.4424 -0.0045
10747TIP3   OH253655   6.840   3.855  11.996 -0.1126 -0.4913 -0.2104
10747TIP3    H153656   6.790   3.890  12.070  2.6312  1.3632  0.9432
10747TIP3    H253657   6.864   3.766  12.023 -0.5063 -0.4097  0.4263
10748TIP3   OH253658   5.942   4.038  16.340 -0.0792 -0.2103  0.5651
10748TIP3    H153659   5.907   4.049  16.429  0.8001  1.4643  0.7431
10748TIP3    H253660   5.940   4.125  16.302  0.6817 -0.6893 -0.6421
10749TIP3   OH253661   1.795   2.231   2.208  0.2234  0.2606 -0.0453
10749TIP3    H153662   1.756   2.168   2.268  0.8488  0.8406  0.9981
10749TIP3    H253663   1.794   2.314   2.256 -0.3989  1.0108 -1.3135
10750TIP3   OH253664   4.553   3.032  10.608 -0.5438 -0.5160  0.4078
10750TIP3    H153665   4.467   3.040  10.567 -0.3136 -0.0560 -0.0051
10750TIP3    H253666   4.578   2.941  10.595 -1.3402 -0.8687  1.2945
10751TIP3   OH253667   1.575   5.770  13.814  0.5354  0.3002 -0.0049
10751TIP3    H153668   1.644   5.760  13.879  0.3474  0.5624  0.2385
10751TIP3    H253669   1.601   5.713  13.742  2.0252  1.9089 -0.7925
10752TIP3   OH253670   5.145   5.310   0.778 -0.5165  0.5875 -0.0844
10752TIP3    H153671   5.184   5.349   0.699 -0.3932  0.7825  0.0710
10752TIP3    H253672   5.095   5.235   0.745  1.6790 -0.9636 -0.0822
10753TIP3   OH253673   1.131   6.425   1.619  0.4435 -0.3673  0.5024
10753TIP3    H153674   1.115   6.437   1.525  0.6528 -1.7472  0.2626
10753TIP3    H253675   1.086   6.498   1.661 -0.9812 -0.5925 -0.5710
10754TIP3   OH253676   1.641   4.538  16.260  0.2223 -0.6777  0.1133
10754TIP3    H153677   1.699   4.614  16.253 -0.7458  0.1118  0.4790
10754TIP3    H253678   1.562   4.563  16.212 -0.1681 -1.3796  0.3774
10755TIP3   OH253679   6.833   2.750  13.810  0.5959  0.5148  0.5020
10755TIP3    H153680   6.782   2.795  13.877  1.2449  2.0179  0.0282
10755TIP3    H253681   6.858   2.819  13.749 -0.6869 -0.9150 -1.7799
10756TIP3   OH253682   3.152   6.152  14.603 -0.4004  0.2075 -0.0580
10756TIP3    H153683   3.162   6.217  14.673 -0.8163  0.6709 -0.4256
10756TIP3    H253684   3.066   6.114  14.618 -0.2160 -0.1682  0.0731
10757TIP3   OH253685   1.768   3.811   1.496  0.3558  0.6944 -0.0737
10757TIP3    H153686   1.673   3.823   1.488  0.4011  0.7944 -0.4539
10757TIP3    H253687   1.798   3.799   1.407  0.4222 -1.4227  0.1896
10758TIP3   OH253688   5.334   6.775   0.830  0.3174  0.2911 -0.1824
10758TIP3    H153689   5.389   6.700   0.811 -0.1298 -0.2979  0.7907
10758TIP3    H253690   5.296   6.800   0.745  1.4778  0.2458 -0.7271
10759TIP3   OH253691   2.057   1.630  15.571 -0.2280 -0.1981 -0.0302
10759TIP3    H153692   1.964   1.618  15.554 -0.5191  1.8526 -0.1922
10759TIP3    H253693   2.090   1.672  15.491  0.5442  0.2932  0.5391
10760TIP3   OH253694   3.468   0.488   0.680  0.0106 -0.2943  0.2102
10760TIP3    H153695   3.527   0.506   0.607  0.6786  2.1405  1.2281
10760TIP3    H253696   3.397   0.551   0.669 -0.9304 -1.2661  0.5756
10761TIP3   OH253697   6.781   5.111  12.388  0.0175  0.7901 -0.5182
10761TIP3    H153698   6.713   5.050  12.358 -0.9071  1.7419 -0.3960
10761TIP3    H253699   6.861   5.058  12.388 -1.0664 -1.0920  1.5756
10762TIP3   OH253700   4.965   6.783   5.088  0.3061  0.9307 -0.2371
10762TIP3    H153701   4.872   6.803   5.094 -0.1789 -0.9677 -0.5731
10762TIP3    H253702   5.008   6.868   5.086 -1.4357  1.8621 -0.4509
10763TIP3   OH253703   1.263   6.701  10.689  0.0050  0.1591  0.0558
10763TIP3    H153704   1.236   6.781  10.735 -2.8738 -0.7041  0.1122
10763TIP3    H253705   1.291   6.642  10.759 -0.0591  0.3640  0.2564
10764TIP3   OH253706   0.324   5.561   1.629  0.8450 -0.8700  0.1849
10764TIP3    H153707   0.258   5.605   1.576  0.4055  0.1449  1.5044
10764TIP3    H253708   0.405   5.567   1.579  0.3014 -0.6027 -0.6782
10765TIP3   OH253709   4.697   5.968  12.956 -0.1041  0.6183  0.0113
10765TIP3    H153710   4.741   5.935  13.035 -0.1910  0.6191  0.0608
10765TIP3    H253711   4.703   6.063  12.962  0.4750  0.6031 -0.3204
10766TIP3   OH253712   4.433   2.766  15.567  0.3107  0.3643  0.5572
10766TIP3    H153713   4.459   2.800  15.482 -0.4358 -1.3890 -0.4260
10766TIP3    H253714   4.368   2.828  15.599  0.2929  0.8239 -0.3390
10767TIP3   OH253715   3.984   5.309   3.189  0.0169 -0.0232  0.0228
10767TIP3    H153716   4.044   5.253   3.141 -1.1621 -0.3921 -1.0641
10767TIP3    H253717   3.949   5.369   3.124  0.3948  1.2635  0.9505
10768TIP3   OH253718   5.648   6.324   1.176  0.1697  0.1813  0.4620
10768TIP3    H153719   5.643   6.231   1.197 -0.1113  0.3907  1.3584
10768TIP3    H253720   5.684   6.365   1.255  0.5947  0.7959 -0.0387
10769TIP3   OH253721   5.864   3.191   3.250  0.0502 -0.6431  0.1551
10769TIP3    H153722   5.802   3.211   3.321 -0.2221 -0.7309 -0.0549
10769TIP3    H253723   5.808   3.171   3.175  0.3428  0.9154 -0.5109
10770TIP3   OH253724   6.419   4.624   1.076 -0.1260 -0.2223 -0.0961
10770TIP3    H153725   6.378   4.652   1.158  1.4847 -0.8260  0.9515
10770TIP3    H253726   6.457   4.705   1.040 -0.0008 -0.1279  0.2469
10771TIP3   OH253727   5.101   5.304   1.055 -0.3020  0.0409 -0.0699
10771TIP3    H153728   5.109   5.323   0.962  0.0968  1.0127  0.1549
10771TIP3    H253729   5.069   5.385   1.094 -0.9123 -0.4994  0.5811
10772TIP3   OH253730   1.363   2.125  16.350 -0.4036 -0.0983  0.3011
10772TIP3    H153731   1.453   2.135  16.319 -0.5586  0.8593  0.1253
10772TIP3    H253732   1.351   2.198  16.412 -1.4498  0.5574 -0.6341
10773TIP3   OH253733   6.590   6.789  16.083  0.1720  0.3534 -0.1891
10773TIP3    H153734   6.553   6.849  16.018 -0.8488  0.1347  0.1895
10773TIP3    H253735   6.632   6.847  16.147  1.9289  0.5512 -1.4443
10774TIP3   OH253736   0.415   0.434  15.536 -0.4377 -0.1609  0.3247
10774TIP3    H153737   0.332   0.461  15.497 -1.0023 -2.1313  0.0590
10774TIP3    H253738   0.397   0.426  15.630 -0.3326  0.1585  0.3724
10775TIP3   OH253739   4.819   0.735   2.672  0.7974  0.3425 -0.2987
10775TIP3    H153740   4.870   0.765   2.748  1.5839  0.0521 -0.7002
10775TIP3    H253741   4.883   0.690   2.617 -0.2572 -1.8244  0.1343
10776TIP3   OH253742   2.038   2.696   1.365 -0.4982 -0.1589 -0.5149
10776TIP3    H153743   2.033   2.787   1.395  1.3805  0.4081 -1.7818
10776TIP3    H253744   1.963   2.687   1.306 -2.8923 -0.6181  2.3429
10777TIP3   OH253745   1.629   2.643   5.260  0.6032  0.2309  0.2133
10777TIP3    H153746   1.580   2.722   5.283  2.0640  1.3574 -0.4184
10777TIP3    H253747   1.639   2.647   5.165  1.6163 -0.1359  0.2894
10778TIP3   OH253748   3.236   1.682  11.004 -0.7692  0.4328 -0.2892
10778TIP3    H153749   3.157   1.645  11.042 -0.7309  1.4493  0.8491
10778TIP3    H253750   3.239   1.648  10.915 -1.4717 -1.1200  0.2522
10779TIP3   OH253751   0.335   6.712  13.482 -0.4340  0.0067  0.2222
10779TIP3    H153752   0.345   6.686  13.391  1.5182  0.7389  0.1940
10779TIP3    H253753   0.349   6.806  13.483 -1.5909  0.1995  1.1405
10780TIP3   OH253754   5.100   1.141  15.527 -0.0753  0.2283  0.4716
10780TIP3    H153755   5.143   1.226  15.532  3.1431 -1.2892  0.9275
10780TIP3    H253756   5.053   1.133  15.611  2.0387  0.4018  1.7289
10781TIP3   OH253757   3.994   2.545  11.921 -0.6289 -0.2046  0.0741
10781TIP3    H153758   4.046   2.546  12.001 -1.3279  0.7827  0.5345
10781TIP3    H253759   3.932   2.617  11.931 -2.2422 -1.4555 -0.3405
10782TIP3   OH253760   2.050   2.021  14.797  0.0291  0.7197  0.1783
10782TIP3    H153761   2.077   1.929  14.802 -2.1139 -0.0334 -1.0649
10782TIP3    H253762   1.992   2.033  14.873 -0.9085  0.5828 -0.5003
10783TIP3   OH253763   2.463   4.758   6.084 -0.2080  0.0471  0.0827
10783TIP3    H153764   2.417   4.699   6.143 -0.8180 -0.5582 -0.9649
10783TIP3    H253765   2.398   4.824   6.059 -0.2889 -0.3487 -0.7784
10784TIP3   OH253766   2.360   0.334  15.118  0.2349  0.3462 -0.0315
10784TIP3    H153767   2.305   0.260  15.142 -0.6726  1.1046  0.2930
10784TIP3    H253768   2.406   0.305  15.039  1.9452 -1.5371  1.5330
10785TIP3   OH253769   0.723   6.828  10.929  0.5394  0.0217 -0.7745
10785TIP3    H153770   0.807   6.789  10.907  0.5478  0.8054 -2.3022
10785TIP3    H253771   0.741   6.922  10.934 -0.0678  0.1135 -0.1925
10786TIP3   OH253772   0.259   3.090  10.885  0.3359  0.1598 -0.0295
10786TIP3    H153773   0.179   3.039  10.869 -0.4198  1.3975 -0.3243
10786TIP3    H253774   0.244   3.132  10.970  1.5012 -1.0836  0.8303
10787TIP3   OH253775   3.608   2.296  13.176 -0.4570 -0.2494  0.3749
10787TIP3    H153776   3.641   2.209  13.198 -0.3834 -0.3064  0.0512
10787TIP3    H253777   3.646   2.315  13.090 -0.0484  0.3327  0.6825
10788TIP3   OH253778   5.932   2.256  13.409 -0.0122  0.7811 -0.0074
10788TIP3    H153779   5.867   2.197  13.446  0.7381  0.8463  1.4757
10788TIP3    H253780   5.997   2.267  13.478  2.1017 -0.0319 -1.7184
10789TIP3   OH253781   2.858   6.014  14.724  0.8963  0.0351  0.6975
10789TIP3    H153782   2.856   6.065  14.805 -1.2573 -0.8222  1.2469
10789TIP3    H253783   2.773   5.970  14.721  0.6304  0.5247 -2.3519
10790TIP3   OH253784   1.903   0.813   5.070 -0.0978 -0.8835 -0.3252
10790TIP3    H153785   1.854   0.855   4.999 -1.0800 -3.4621 -1.2973
10790TIP3    H253786   1.837   0.797   5.138  0.3180 -0.5979  0.1491
10791TIP3   OH253787   0.505   6.897  11.242 -0.0997 -0.3689  0.4642
10791TIP3    H153788   0.569   6.963  11.215 -0.6928 -0.5637 -1.6676
10791TIP3    H253789   0.431   6.947  11.275 -1.1681  0.2695 -2.5162
10792TIP3   OH253790   3.666   3.599   4.126 -0.3666  0.0976 -0.0753
10792TIP3    H153791   3.665   3.684   4.080  0.1427 -0.3271 -0.8872
10792TIP3    H253792   3.721   3.614   4.203 -0.1340  0.4538 -0.3071
10793TIP3   OH253793   1.206   1.882  16.133  0.2002 -0.1460  0.1501
10793TIP3    H153794   1.127   1.931  16.158  0.0857 -0.9067  1.3492
10793TIP3    H253795   1.231   1.919  16.048 -0.6623  1.0404  0.3843
10794TIP3   OH253796   2.768   1.935   2.823  0.6013 -0.7346 -0.2036
10794TIP3    H153797   2.819   1.989   2.883 -1.4631  0.1347  0.8532
10794TIP3    H253798   2.766   1.848   2.863 -1.7463  0.1022  1.7651
10795TIP3   OH253799   3.377   5.592   5.044 -0.5958 -0.4187  0.2472
10795TIP3    H153800   3.435   5.641   4.985 -0.6021 -2.0255 -1.1994
10795TIP3    H253801   3.365   5.649   5.119 -0.3043  1.6152 -1.1655
10796TIP3   OH253802   1.548   5.207   1.338 -0.4760  0.0252 -0.1963
10796TIP3    H153803   1.543   5.212   1.434  1.5760 -0.5616 -0.0206
10796TIP3    H253804   1.600   5.129   1.320 -0.4704  0.3615 -1.7927
10797TIP3   OH253805   4.366   4.907  10.940  0.1180 -0.5698 -0.0423
10797TIP3    H153806   4.312   4.942  10.869  0.1187 -1.7517 -0.6641
10797TIP3    H253807   4.448   4.881  10.897 -0.3599 -2.4680  0.1173
10798TIP3   OH253808   5.794   2.283   3.147 -0.0461  0.2366 -0.0279
10798TIP3    H153809   5.722   2.232   3.110  1.3645 -0.7797 -1.5113
10798TIP3    H253810   5.827   2.230   3.219 -1.9535  1.6095  1.9719
10799TIP3   OH253811   1.756   2.663   2.980  1.3995  0.7442 -1.1742
10799TIP3    H153812   1.708   2.746   2.974  0.1145  0.0129 -1.5561
10799TIP3    H253813   1.737   2.618   2.898  0.0332 -0.9391 -0.0312
10800TIP3   OH253814   4.399   3.817   3.768  0.1819 -0.1822  0.4696
10800TIP3    H153815   4.361   3.749   3.713  1.7345 -0.3985 -0.3652
10800TIP3    H253816   4.363   3.800   3.855 -0.1423 -1.5191  0.0916
10801TIP3   OH253817   5.091   3.995  11.890  0.3878 -0.0306 -0.2132
10801TIP3    H153818   5.127   4.083  11.901  0.6480 -0.1558 -0.0352
10801TIP3    H253819   5.029   4.003  11.818 -0.2334  0.4868  0.3682
10802TIP3   OH253820   4.310   3.707   0.128 -0.3550  0.8569  0.2055
10802TIP3    H153821   4.264   3.678   0.050  0.3537  0.3499 -0.0263
10802TIP3    H253822   4.399   3.675   0.118 -0.4633  0.0101  1.6356
10803TIP3   OH253823   6.636   3.984  12.169  0.0095 -0.0733  0.0406
10803TIP3    H153824   6.621   4.070  12.129 -1.2712 -0.0089  0.6124
10803TIP3    H253825   6.664   4.004  12.259  0.2406 -0.2461  0.0074
10804TIP3   OH253826   6.741   6.063  15.835  0.9112 -0.0569  0.4172
10804TIP3    H153827   6.742   6.059  15.930 -0.1481  0.4476  0.4562
10804TIP3    H253828   6.696   6.145  15.814  1.7937  0.2192 -0.5157
10805TIP3   OH253829   1.941   4.800   4.252  0.2096  0.2015  0.3123
10805TIP3    H153830   1.985   4.883   4.267  0.6070 -0.0029  0.2931
10805TIP3    H253831   1.947   4.754   4.336 -0.7078  0.5131  0.5547
10806TIP3   OH253832   4.804   3.751   0.550 -0.2061  0.5697  0.3196
10806TIP3    H153833   4.744   3.794   0.611  0.2345  2.3839 -0.4772
10806TIP3    H253834   4.889   3.755   0.593 -0.3007 -0.3482  0.6281
10807TIP3   OH253835   0.765   2.282  14.503 -0.2104  0.2111 -0.5813
10807TIP3    H153836   0.798   2.209  14.452 -0.1462 -0.8737  0.9467
10807TIP3    H253837   0.837   2.303  14.563 -0.1796  1.6282 -1.0805
10808TIP3   OH253838   3.836   1.608   0.337 -0.3222  0.2248  0.0108
10808TIP3    H153839   3.926   1.584   0.359 -0.2374  0.3048 -0.2477
10808TIP3    H253840   3.785   1.584   0.415 -0.0283  0.4854  0.2836
10809TIP3   OH253841   5.836   2.368  11.709  0.1301  0.8578  0.1726
10809TIP3    H153842   5.825   2.462  11.697 -2.8016  0.3011 -2.7305
10809TIP3    H253843   5.763   2.343  11.766 -0.4963  0.0485 -0.9658
10810TIP3   OH253844   0.113   6.498  16.561 -0.5304  0.4235  0.1631
10810TIP3    H153845   0.093   6.590  16.544  2.6073  1.1283 -0.4169
10810TIP3    H253846   0.109   6.457  16.474 -1.2394  0.1591  0.3175
10811TIP3   OH253847   4.724   4.603   2.347  0.2574 -0.0550 -0.5533
10811TIP3    H153848   4.774   4.525   2.324  0.3411 -0.4537  0.8891
10811TIP3    H253849   4.638   4.589   2.307  0.3999 -0.6798 -0.6520
10812TIP3   OH253850   3.517   3.781  13.381 -0.0687  0.8703 -0.3415
10812TIP3    H153851   3.506   3.687  13.392 -4.1905  1.1459 -0.5108
10812TIP3    H253852   3.542   3.791  13.289 -0.7138 -0.0397 -0.6355
10813TIP3   OH253853   3.201   4.891  11.423 -0.5325  0.0801  0.2073
10813TIP3    H153854   3.214   4.811  11.473 -0.2202 -0.4234 -0.6535
10813TIP3    H253855   3.280   4.943  11.440  0.7511 -1.1382 -1.6400
10814TIP3   OH253856   4.140   4.096   2.102  0.1820 -0.3354  0.0897
10814TIP3    H153857   4.207   4.053   2.049  0.0140 -0.7233  0.1862
10814TIP3    H253858   4.105   4.165   2.045  1.6414  0.8139  0.5416
10815TIP3   OH253859   4.842   0.296  10.717 -0.3908  0.1903  0.4840
10815TIP3    H153860   4.846   0.253  10.803 -0.4173  0.4037  0.5915
10815TIP3    H253861   4.845   0.224  10.654  0.6171  0.0851  0.6433
10816TIP3   OH253862   1.984   3.714   1.700  0.0286 -0.2374 -0.6520
10816TIP3    H153863   1.981   3.701   1.605 -0.8385  1.4203 -0.8821
10816TIP3    H253864   2.009   3.805   1.711  1.7669 -0.8240  0.7844
10817TIP3   OH253865   1.687   3.088  15.879  0.2637 -0.3579 -0.3674
10817TIP3    H153866   1.630   3.019  15.843 -0.2632  0.5343 -1.2988
10817TIP3    H253867   1.679   3.160  15.817 -1.8014  1.8330  2.1994
10818TIP3   OH253868   6.771   4.271   3.246  0.1638 -0.3767 -0.1572
10818TIP3    H153869   6.851   4.291   3.294 -0.6324 -2.1447  2.0701
10818TIP3    H253870   6.708   4.245   3.313 -2.1572  0.4868 -1.8778
10819TIP3   OH253871   0.604   0.145  14.499  0.4141 -0.5458  0.0289
10819TIP3    H153872   0.602   0.069  14.557  0.1176 -1.7453 -1.5045
10819TIP3    H253873   0.692   0.144  14.461  0.2724 -0.3601 -0.3086
10820TIP3   OH253874   6.287   3.925  15.459  0.3033 -0.5313 -0.0868
10820TIP3    H153875   6.277   3.919  15.554  0.5092 -0.4028 -0.0567
10820TIP3    H253876   6.198   3.938  15.427  0.4507  1.9762  0.2885
10821TIP3   OH253877   4.246   6.396   4.569  0.0339  0.3183 -0.1392
10821TIP3    H153878   4.247   6.319   4.511  1.8180  1.3542 -1.6065
10821TIP3    H253879   4.275   6.363   4.654  1.5197 -0.5198 -0.9419
10822TIP3   OH253880   2.888   5.201  13.548 -0.2078  1.1858  0.0993
10822TIP3    H153881   2.850   5.157  13.472 -1.8992  1.1758  0.9026
10822TIP3    H253882   2.893   5.133  13.616  0.3389  1.4347  0.3176
10823TIP3   OH253883   6.137   6.498   5.589 -0.2730 -0.1057  0.3320
10823TIP3    H153884   6.106   6.437   5.522  0.3694 -2.4190  2.0001
10823TIP3    H253885   6.069   6.494   5.657 -1.3478  2.8528 -0.4209
10824TIP3   OH253886   5.557   0.116   2.728  1.0078 -0.1123 -0.1823
10824TIP3    H153887   5.605   0.152   2.803  2.1619 -1.4079 -0.2752
10824TIP3    H253888   5.557   0.021   2.743  1.8440 -0.4646 -2.1570
10825TIP3   OH253889   2.748   2.600   2.619 -0.3665 -0.4575  0.7418
10825TIP3    H153890   2.655   2.625   2.619 -0.4622 -0.7460 -0.5709
10825TIP3    H253891   2.770   2.591   2.526  1.1017  0.0399  1.0181
10826TIP3   OH253892   4.485   5.684   2.262 -0.3973 -0.0170  0.0569
10826TIP3    H153893   4.481   5.654   2.353 -1.7998 -0.0024  0.0278
10826TIP3    H253894   4.471   5.778   2.267  0.3726  0.1156 -0.1245
10827TIP3   OH253895   1.675   1.094  10.248 -0.4836 -0.2049 -0.0177
10827TIP3    H153896   1.595   1.070  10.293  0.1354 -1.4716  0.4480
10827TIP3    H253897   1.648   1.110  10.157 -1.7563  2.4826  0.7427
10828TIP3   OH253898   4.861   0.885   2.919  0.0795  0.1387 -0.0546
10828TIP3    H153899   4.912   0.879   2.999  1.2471  0.0188 -0.7877
10828TIP3    H253900   4.770   0.884   2.948  0.4881  0.1110  1.2605
10829TIP3   OH253901   1.394   3.531  11.581 -0.0117  0.7321  0.0903
10829TIP3    H153902   1.393   3.448  11.534  0.0029  0.7855 -0.0047
10829TIP3    H253903   1.361   3.510  11.669  0.9135  0.4319  0.3843
10830TIP3   OH253904   5.895   1.765  13.158  0.3799  0.4784 -0.4078
10830TIP3    H153905   5.859   1.771  13.247  0.2101  1.4853 -0.5268
10830TIP3    H253906   5.910   1.856  13.133 -1.6699  0.3871 -2.2377
10831TIP3   OH253907   6.347   6.588  14.664 -0.3489  0.0595  0.8525
10831TIP3    H153908   6.350   6.594  14.569 -0.1731 -1.2590  0.7463
10831TIP3    H253909   6.296   6.508  14.681  1.1556 -0.7315  1.8211
10832TIP3   OH253910   5.361   4.320   3.377 -1.0449 -0.2515  0.0873
10832TIP3    H153911   5.425   4.259   3.340 -0.5645 -0.4876  1.2387
10832TIP3    H253912   5.399   4.406   3.363 -2.1360 -0.1007 -2.3333
10833TIP3   OH253913   0.374   0.053  16.101 -0.1382 -0.0394  0.3042
10833TIP3    H153914   0.306   0.001  16.144 -0.2178  0.3964  0.7097
10833TIP3    H253915   0.441   0.067  16.168 -1.1906  2.3654  0.9671
10834TIP3   OH253916   6.582   1.529  11.089  0.3764 -0.1505 -0.2471
10834TIP3    H153917   6.625   1.535  11.174 -0.0479  0.8213 -0.0930
10834TIP3    H253918   6.647   1.560  11.027  0.2895  0.2415 -0.1429
10835TIP3   OH253919   0.938   3.934   5.057  0.3328  0.1732  0.2150
10835TIP3    H153920   0.936   3.899   4.968 -2.0813  1.1962 -0.2089
10835TIP3    H253921   0.888   3.871   5.109 -3.4629  2.3270 -0.4289
10836TIP3   OH253922   2.084   0.771   2.444  0.5772  0.5963  0.0150
10836TIP3    H153923   2.088   0.767   2.540 -0.1410  1.3075  0.0840
10836TIP3    H253924   2.071   0.680   2.417 -0.7735  0.5700  0.6792
10837TIP3   OH253925   2.209   0.740  11.007 -0.1897 -0.1054  0.5676
10837TIP3    H153926   2.246   0.791  10.935 -0.4406 -0.4053  0.2254
10837TIP3    H253927   2.230   0.792  11.086 -1.5891  1.2160  0.1273
10838TIP3   OH253928   2.684   2.117   2.121 -0.2864 -0.0985 -0.3427
10838TIP3    H153929   2.647   2.199   2.153  2.3221  1.2424 -0.4949
10838TIP3    H253930   2.773   2.115   2.156 -0.2404 -2.9168 -0.3271
10839TIP3   OH253931   6.412   2.971  16.501  0.2770 -0.1344 -0.2084
10839TIP3    H153932   6.428   2.894  16.555 -2.1067  0.1031  0.9562
10839TIP3    H253933   6.331   2.950  16.453  0.5727  0.9510 -1.2432
10840TIP3   OH253934   6.164   1.389   4.174 -0.4795 -0.8412  0.4426
10840TIP3    H153935   6.203   1.303   4.189  1.3390 -0.7119 -2.6323
10840TIP3    H253936   6.239   1.448   4.162 -1.6813  1.1662  2.0675
10841TIP3   OH253937   3.030   6.852  16.338 -0.0804  0.3087 -0.3131
10841TIP3    H153938   3.113   6.889  16.368  0.5576 -0.5760 -0.9243
10841TIP3    H253939   3.000   6.798  16.412  0.2208  0.1135 -0.3307
10842TIP3   OH253940   3.050   2.879  13.111  0.4297  0.1683 -0.2398
10842TIP3    H153941   3.098   2.960  13.095  1.5173 -0.2790  0.6593
10842TIP3    H253942   2.998   2.896  13.190  1.1176 -0.2014  0.2959
10843TIP3   OH253943   3.047   6.420   2.447  0.6726 -0.7198  0.8790
10843TIP3    H153944   3.077   6.506   2.417  1.8343 -0.7685  1.8398
10843TIP3    H253945   2.980   6.439   2.513  0.6698 -0.5685  0.8319
10844TIP3   OH253946   3.212   5.185   5.591  0.6568  0.0643 -0.0738
10844TIP3    H153947   3.301   5.203   5.620  1.1949 -1.2324 -0.8406
10844TIP3    H253948   3.157   5.215   5.663  1.7763 -0.2247  0.9224
10845TIP3   OH253949   1.525   5.186   5.045 -0.1051 -0.4338 -0.5028
10845TIP3    H153950   1.562   5.147   4.966  0.9433 -0.1540 -0.1642
10845TIP3    H253951   1.513   5.112   5.105 -0.3669 -0.5658 -0.7184
10846TIP3   OH253952   1.316   5.441   1.476 -0.2538 -0.2365  0.5050
10846TIP3    H153953   1.273   5.478   1.399  1.5332 -0.4655 -0.6582
10846TIP3    H253954   1.249   5.384   1.515 -1.4815  0.5622 -0.3583
10847TIP3   OH253955   5.098   5.382   2.535 -0.0156  0.1380  0.2387
10847TIP3    H153956   5.156   5.324   2.586 -0.2450  1.1878  1.7631
10847TIP3    H253957   5.153   5.457   2.513 -0.3755  0.4458  0.3799
10848TIP3   OH253958   3.398   0.419   5.684  0.6271  0.1233 -0.8592
10848TIP3    H153959   3.484   0.384   5.709  0.0985 -0.1168  0.7339
10848TIP3    H253960   3.345   0.412   5.764 -0.8769  0.2929 -1.8037
10849TIP3   OH253961   4.734   6.237  13.074  0.1536  0.2851 -0.4699
10849TIP3    H153962   4.812   6.218  13.125  0.2304  1.1727 -0.2419
10849TIP3    H253963   4.745   6.328  13.045  0.3634 -0.3443 -2.5183
10850TIP3   OH253964   4.844   4.473  13.865 -0.3864 -0.0844  0.3996
10850TIP3    H153965   4.865   4.383  13.891  0.1498 -0.1292 -0.1641
10850TIP3    H253966   4.861   4.475  13.770 -1.0559  0.4263  0.2790
10851TIP3   OH253967   3.447   4.598   0.258 -0.0810  0.5561  0.0545
10851TIP3    H153968   3.498   4.631   0.332 -0.5865  1.3633  0.0569
10851TIP3    H253969   3.443   4.503   0.271 -0.4677  0.7235  1.2591
10852TIP3   OH253970   0.385   4.074   5.411  0.8715  0.2963  0.2357
10852TIP3    H153971   0.389   3.998   5.470  0.9639  2.2102  2.8932
10852TIP3    H253972   0.476   4.089   5.386  1.1911  0.9039  1.6683
10853TIP3   OH253973   4.279   2.078  13.544 -0.3170 -0.3377  0.6954
10853TIP3    H153974   4.298   2.146  13.480 -0.8172 -2.4504 -1.8565
10853TIP3    H253975   4.364   2.055  13.581  0.1332  0.1220 -0.0433
10854TIP3   OH253976   1.755   2.453  12.542 -0.3899 -0.1973  0.2697
10854TIP3    H153977   1.834   2.450  12.489 -0.2989  2.5565  0.1068
10854TIP3    H253978   1.703   2.377  12.513  0.2798  0.3665 -2.7303
10855TIP3   OH253979   2.905   1.378   0.296 -0.7025 -0.1682  0.4258
10855TIP3    H153980   2.921   1.448   0.232  1.5954 -1.1363 -0.1391
10855TIP3    H253981   2.927   1.418   0.380 -0.2927  0.0455  0.2184
10856TIP3   OH253982   0.673   6.190  12.892  0.5669  0.2793 -0.0440
10856TIP3    H153983   0.712   6.267  12.849  0.1527 -0.5017 -1.8918
10856TIP3    H253984   0.691   6.204  12.985  0.6550  2.5301 -0.3300
10857TIP3   OH253985   5.737   3.634  11.853 -0.3598  0.2075  0.3419
10857TIP3    H153986   5.704   3.603  11.768 -0.6060 -0.4511  0.6721
10857TIP3    H253987   5.681   3.708  11.875  0.6138  1.3172 -0.7463
10858TIP3   OH253988   1.771   6.375   5.407 -0.6667  0.0900 -0.3277
10858TIP3    H153989   1.740   6.348   5.320  0.2700  0.5830 -0.8316
10858TIP3    H253990   1.696   6.362   5.464 -0.5674 -2.6684 -0.7137
10859TIP3   OH253991   0.476   5.026   4.848  1.0611  0.3115  0.2673
10859TIP3    H153992   0.570   5.039   4.864  0.7774  2.7623  0.3947
10859TIP3    H253993   0.442   5.115   4.836 -1.4494 -0.4191  1.3816
10860TIP3   OH253994   0.520   5.153  12.150  0.1309 -0.4535  0.0111
10860TIP3    H153995   0.474   5.088  12.204  0.9714 -0.3393  0.8862
10860TIP3    H253996   0.613   5.133  12.162  0.3510 -0.0259 -0.9128
10861TIP3   OH253997   3.816   2.327   3.085  0.3898 -0.2203  0.2147
10861TIP3    H153998   3.832   2.363   2.998  2.2496 -1.2745  0.0686
10861TIP3    H253999   3.739   2.271   3.074 -0.4148  0.9482 -0.3304
10862TIP3   OH254000   4.448   0.240   2.991 -0.0378 -0.0833 -0.3382
10862TIP3    H154001   4.537   0.262   2.963 -0.8401  0.7235 -2.4797
10862TIP3    H254002   4.408   0.325   3.011 -0.7524 -0.3049 -0.8115
10863TIP3   OH254003   5.242   4.918  12.641  0.0397 -0.6638  0.2988
10863TIP3    H154004   5.160   4.937  12.688 -0.0165 -1.6260  0.6326
10863TIP3    H254005   5.254   4.824  12.654  0.3186 -0.8532 -1.1693
10864TIP3   OH254006   5.008   1.374   2.150 -0.0135 -0.2428 -0.2222
10864TIP3    H154007   5.009   1.290   2.196 -1.1003  0.4468  1.1235
10864TIP3    H254008   5.007   1.439   2.220 -2.3783  0.8446 -1.1850
10865TIP3   OH254009   4.964   1.273  16.402 -1.2551  0.9085 -0.6394
10865TIP3    H154010   4.926   1.360  16.414 -1.0624  0.8911  0.1808
10865TIP3    H254011   4.930   1.222  16.476 -0.6151  0.5518 -0.5860
10866TIP3   OH254012   3.541   3.814   6.074  0.7319 -0.3075  0.2422
10866TIP3    H154013   3.542   3.851   5.986 -2.2714 -1.0326 -0.1990
10866TIP3    H254014   3.465   3.853   6.116  1.9438 -0.1786  2.4897
10867TIP3   OH254015   3.565   3.124  12.771 -0.1469  0.4572 -0.0684
10867TIP3    H154016   3.618   3.155  12.845  1.8820 -0.8479 -0.8662
10867TIP3    H254017   3.622   3.135  12.695 -1.7041  0.5838 -1.2632
10868TIP3   OH254018   0.083   2.421  12.856 -0.2665  0.1380 -0.2690
10868TIP3    H154019   0.093   2.337  12.811 -0.7561  0.8289 -1.7354
10868TIP3    H254020   0.095   2.401  12.949  0.5124 -1.3916 -0.6797
10869TIP3   OH254021   4.064   3.873  13.807  0.2222 -0.0662  0.3673
10869TIP3    H154022   3.999   3.802  13.808  0.4681 -0.3558  3.0157
10869TIP3    H254023   4.078   3.894  13.900  1.8905  1.8769 -0.2510
10870TIP3   OH254024   4.556   5.434   1.072 -0.1233  0.3037 -0.1176
10870TIP3    H154025   4.482   5.419   1.013 -0.2437 -0.5220  0.2426
10870TIP3    H254026   4.631   5.395   1.027  0.3180  2.0193 -0.9574
10871TIP3   OH254027   6.473   4.186   0.813  0.4888  0.3250  0.1203
10871TIP3    H154028   6.475   4.209   0.720 -0.0480  0.9817  0.2649
10871TIP3    H254029   6.471   4.270   0.859 -0.4125  0.0103  0.6908
10872TIP3   OH254030   6.344   2.398  11.623  0.3920  0.3043 -0.1048
10872TIP3    H154031   6.403   2.446  11.681  1.5155 -3.0186  1.7497
10872TIP3    H254032   6.278   2.361  11.681 -1.8001  1.3759 -1.7628
10873TIP3   OH254033   3.879   3.284   2.540  0.0326 -0.1283  0.3066
10873TIP3    H154034   3.937   3.349   2.501 -1.0410  1.1479  0.7392
10873TIP3    H254035   3.870   3.217   2.473 -0.6420  1.3103 -1.1212
10874TIP3   OH254036   6.237   4.870  16.513 -0.2851 -0.1416 -0.0520
10874TIP3    H154037   6.167   4.901  16.570 -0.3135  0.2423 -0.2960
10874TIP3    H254038   6.198   4.795  16.467 -0.5210  0.0315 -0.1410
10875TIP3   OH254039   6.442   2.140  10.792  0.5878  0.0889  0.6332
10875TIP3    H154040   6.459   2.234  10.795 -0.2914  0.2628  0.6522
10875TIP3    H254041   6.510   2.101  10.847  1.2898  0.6566  0.1850
10876TIP3   OH254042   0.156   1.738  14.263 -0.1409 -0.0907  0.2211
10876TIP3    H154043   0.153   1.832  14.244 -2.1320 -0.2034 -0.1992
10876TIP3    H254044   0.228   1.729  14.326  0.2541  1.6705  0.0764
10877TIP3   OH254045   2.306   2.506   4.469 -0.4352 -0.6491  0.4163
10877TIP3    H154046   2.306   2.436   4.403 -2.8538  0.0610 -0.4242
10877TIP3    H254047   2.292   2.586   4.419  1.0414  0.3394  1.5009
10878TIP3   OH254048   3.741   2.639  12.989  0.1062  0.1151 -0.1571
10878TIP3    H154049   3.772   2.722  12.955  2.7308 -1.0169 -0.7653
10878TIP3    H254050   3.749   2.647  13.084  0.2561  0.5736 -0.2071
10879TIP3   OH254051   1.988   5.226   3.452 -0.3599 -0.6721 -0.3740
10879TIP3    H154052   1.951   5.151   3.498 -3.8489  0.4080 -1.1359
10879TIP3    H254053   1.923   5.295   3.461  2.2981  2.0681 -0.4598
10880TIP3   OH254054   1.334   5.939  12.465  0.5160  0.2721  0.0585
10880TIP3    H154055   1.421   5.977  12.454  1.2252 -1.8346 -2.4726
10880TIP3    H254056   1.340   5.891  12.548  1.8308  0.0781 -0.1234
10881TIP3   OH254057   2.766   6.678   0.400 -1.0293  0.4122 -0.5970
10881TIP3    H154058   2.673   6.682   0.377 -1.7050 -1.0931  1.5341
10881TIP3    H254059   2.797   6.768   0.391 -2.3932  0.7571 -2.3829
10882TIP3   OH254060   5.571   6.581   0.627  0.5988  0.4794 -0.2540
10882TIP3    H154061   5.560   6.672   0.601 -0.4666 -0.1923 -2.4527
10882TIP3    H254062   5.561   6.532   0.545  1.0590 -1.6238  0.8808
10883TIP3   OH254063   5.321   6.194   0.505 -0.2416 -0.0857  0.3565
10883TIP3    H154064   5.371   6.115   0.489  1.1533  1.1570 -1.9054
10883TIP3    H254065   5.363   6.235   0.581 -0.3021 -0.9477  0.8632
10884TIP3   OH254066   1.970   0.056   3.365 -0.2565 -0.5076 -0.0971
10884TIP3    H154067   1.917   0.101   3.431 -1.5701 -0.2603 -1.2974
10884TIP3    H254068   2.012  -0.015   3.414 -0.2089  0.4112  1.2684
10885TIP3   OH254069   3.721   0.730   1.832  0.0850 -0.5010 -0.4776
10885TIP3    H154070   3.785   0.780   1.781 -0.0877 -1.9515 -2.2298
10885TIP3    H254071   3.639   0.780   1.824  0.7256  0.8731  1.0011
10886TIP3   OH254072   3.669   0.821  11.858 -0.4240  0.2215  0.2955
10886TIP3    H154073   3.628   0.849  11.939  0.5891 -0.6415  1.1357
10886TIP3    H254074   3.602   0.766  11.815 -0.3956 -0.6808  1.3543
10887TIP3   OH254075   4.243   3.750   3.979  0.2409  0.1141 -0.4322
10887TIP3    H154076   4.152   3.777   3.989  0.2093 -0.1713  0.0646
10887TIP3    H254077   4.244   3.658   4.006  0.5219 -0.1241 -1.2313
10888TIP3   OH254078   0.808   5.165   0.882 -0.3501  0.6918 -0.1697
10888TIP3    H154079   0.725   5.120   0.865  0.3298  0.0620 -2.0491
10888TIP3    H254080   0.806   5.241   0.824  0.2320  0.9039  0.0798
10889TIP3   OH254081   3.442   1.793   3.314  0.3721  0.2510 -0.0141
10889TIP3    H154082   3.352   1.825   3.326  0.5897  0.9765 -0.2685
10889TIP3    H254083   3.475   1.842   3.239  1.2384  0.5508  0.5502
10890TIP3   OH254084   5.424   4.252   4.526 -0.3264 -0.3755  0.1363
10890TIP3    H154085   5.517   4.236   4.539 -0.3588  0.2363  1.1713
10890TIP3    H254086   5.409   4.229   4.434  1.0840  0.7021 -0.3921
10891TIP3   OH254087   5.524   4.128  14.263 -0.1940  1.3020 -0.1491
10891TIP3    H154088   5.608   4.084  14.251  0.3353  2.6249 -1.7460
10891TIP3    H254089   5.459   4.061  14.243  0.5778  1.0854 -2.2562
10892TIP3   OH254090   3.567   5.717   0.547 -0.0004 -0.4276  0.1841
10892TIP3    H154091   3.486   5.768   0.541 -0.1633 -0.5731  1.0405
10892TIP3    H254092   3.618   5.744   0.471 -0.2541  0.7251  0.4053
10893TIP3   OH254093   2.318   2.164   1.268  0.1352 -0.7624  0.0870
10893TIP3    H154094   2.239   2.211   1.293  0.0464 -1.3473  0.9228
10893TIP3    H254095   2.288   2.075   1.247  0.5527 -0.9558  0.2946
10894TIP3   OH254096   4.840   1.280  13.122 -0.1281  0.1099  0.6202
10894TIP3    H154097   4.871   1.363  13.084  0.8224  0.0959  1.3528
10894TIP3    H254098   4.919   1.237  13.154 -0.6550 -0.9550  0.5268
10895TIP3   OH254099   3.327   4.901   5.154 -0.0737  0.4519 -0.0187
10895TIP3    H154100   3.294   4.811   5.158  2.5320 -0.5864  0.7889
10895TIP3    H254101   3.276   4.949   5.219  0.1933 -1.1379  1.4451
10896TIP3   OH254102   0.405   4.067  12.060 -0.1271  0.1367 -0.4860
10896TIP3    H154103   0.423   4.087  11.968 -1.8609  0.6187 -0.7508
10896TIP3    H254104   0.369   3.978  12.059 -0.6904  0.3586 -0.3527
10897TIP3   OH254105   0.453   4.477   5.664 -0.1829  0.3007  0.2887
10897TIP3    H154106   0.541   4.511   5.679 -0.7357  1.9400 -0.0206
10897TIP3    H254107   0.456   4.445   5.573  0.1637  0.1310  0.3586
10898TIP3   OH254108   1.092   1.381  16.138  0.2129  0.2139  0.5111
10898TIP3    H154109   1.109   1.438  16.062  0.2515 -2.2829 -1.5181
10898TIP3    H254110   1.022   1.425  16.186  0.4319  2.0896 -0.7534
10899TIP3   OH254111   2.441   0.014  15.407 -0.3881 -0.1395  0.2922
10899TIP3    H154112   2.500  -0.033  15.347 -0.5022  1.1587 -0.8893
10899TIP3    H254113   2.425  -0.048  15.478  0.7997 -1.2568 -0.3660
10900TIP3   OH254114   3.724   6.330  14.700 -0.3371 -0.0736  0.2360
10900TIP3    H154115   3.781   6.256  14.681  0.1070 -0.1200  1.5973
10900TIP3    H254116   3.646   6.315  14.647 -0.3323 -1.6287  0.6124
10901TIP3   OH254117   6.851   3.943   2.218 -0.5936 -0.1883 -0.0738
10901TIP3    H154118   6.827   3.886   2.145  0.8641 -1.7920  0.6067
10901TIP3    H254119   6.895   3.884   2.280  1.1892  1.7207  0.5778
10902TIP3   OH254120   1.349   6.191  15.134  0.1090 -0.0052 -0.1923
10902TIP3    H154121   1.338   6.204  15.228  1.0470 -0.4211 -0.0245
10902TIP3    H254122   1.365   6.097  15.124  3.3623  0.4626 -0.4048
10903TIP3   OH254123   0.554   2.139  13.385 -0.0429  0.3302  0.7648
10903TIP3    H154124   0.526   2.057  13.425  0.1070 -1.3870 -2.2962
10903TIP3    H254125   0.475   2.174  13.344  0.2014  0.9451  0.8039
10904TIP3   OH254126   1.074   6.215  15.021  0.3861 -0.0573 -0.0401
10904TIP3    H154127   1.153   6.186  15.068  0.4219  0.0926 -0.0093
10904TIP3    H254128   1.017   6.138  15.021  1.0197 -0.5627 -1.1192
10905TIP3   OH254129   5.771   1.747   4.057 -0.2289 -0.4494  0.2973
10905TIP3    H154130   5.765   1.675   3.994  0.0219  1.2300 -1.7337
10905TIP3    H254131   5.864   1.749   4.082 -0.3081 -1.0404  0.6775
10906TIP3   OH254132   6.432   4.941   5.904  0.6868  0.1586  0.1151
10906TIP3    H154133   6.513   4.892   5.893  0.6576  0.3518 -1.0732
10906TIP3    H254134   6.442   5.017   5.847  0.0587  0.6814  0.6874
10907TIP3   OH254135   6.026   5.571  10.546  0.2475 -0.3613  0.1390
10907TIP3    H154136   6.043   5.595  10.638 -1.4050  1.7259 -0.0189
10907TIP3    H254137   6.050   5.649  10.496 -2.2284 -0.1059 -0.7985
10908TIP3   OH254138   4.518   3.444   4.278  0.1640 -0.5368  0.2179
10908TIP3    H154139   4.445   3.388   4.252 -0.3443  0.8731 -1.6888
10908TIP3    H254140   4.549   3.407   4.360 -1.8087 -2.0063  0.3830
10909TIP3   OH254141   6.642   5.464   0.239  0.3748 -0.5650  0.5125
10909TIP3    H154142   6.547   5.473   0.235  0.1831 -1.5169  1.9320
10909TIP3    H254143   6.671   5.542   0.287  0.2442 -0.5245  0.5265
10910TIP3   OH254144   3.564   0.473   0.066  0.1584 -0.0290  0.0949
10910TIP3    H154145   3.508   0.481  -0.012  0.3903 -1.2775 -0.2090
10910TIP3    H254146   3.505   0.493   0.139 -0.4390 -0.3326 -0.2958
10911TIP3   OH254147   2.825   6.593   1.793  0.7332  0.1211 -0.4684
10911TIP3    H154148   2.830   6.620   1.701 -0.6439 -2.1604 -1.3012
10911TIP3    H254149   2.808   6.674   1.841 -1.3476  1.0285 -2.5433
10912TIP3   OH254150   6.878   1.054  12.032 -0.5332 -0.4783 -0.0072
10912TIP3    H154151   6.842   0.990  12.094  0.3617  0.8653  2.0025
10912TIP3    H254152   6.849   1.139  12.066  0.5193  0.3471 -1.0920
10913TIP3   OH254153   1.853   6.536   1.955  0.3683  0.3335 -0.0430
10913TIP3    H154154   1.824   6.610   1.902  0.9066  0.6993  0.1677
10913TIP3    H254155   1.903   6.575   2.026 -1.1719 -0.0868  1.3165
10914TIP3   OH254156   5.713   0.660   2.090  0.1214 -0.1033  0.1096
10914TIP3    H154157   5.681   0.716   2.019 -0.2998 -0.7743 -0.2529
10914TIP3    H254158   5.706   0.571   2.054 -1.8385 -0.6391  1.6066
10915TIP3   OH254159   4.612   0.842  14.139 -0.5085 -0.1524 -0.1861
10915TIP3    H154160   4.630   0.932  14.167 -2.1025  0.6011 -1.3577
10915TIP3    H254161   4.679   0.789  14.182  0.8077  1.6543  0.1195
10916TIP3   OH254162   3.513   5.877  12.304 -0.1865  0.2657 -0.0836
10916TIP3    H154163   3.587   5.866  12.364  0.0369  1.3489 -0.1457
10916TIP3    H254164   3.479   5.788  12.292  0.9991 -0.2322  0.0766
10917TIP3   OH254165   1.065   3.729  13.177  0.3773  0.4154 -0.0340
10917TIP3    H154166   1.144   3.744  13.229 -1.1875 -0.3441  2.7958
10917TIP3    H254167   1.058   3.634  13.170  0.6231  0.4967 -1.8884
10918TIP3   OH254168   0.257   1.989  15.924 -0.1239 -0.4207  0.3898
10918TIP3    H154169   0.313   1.922  15.886  2.6660  2.1126 -0.3485
10918TIP3    H254170   0.168   1.956  15.911  0.9566 -2.6279 -2.5522
10919TIP3   OH254171   1.619   1.494  14.990  0.3497  0.0312 -0.4206
10919TIP3    H154172   1.558   1.539  14.932  1.0211 -0.9524 -1.9231
10919TIP3    H254173   1.564   1.435  15.041  0.1131 -1.7119 -2.5733
10920TIP3   OH254174   1.583   3.940   4.375 -0.2679 -0.0797  0.0780
10920TIP3    H154175   1.621   4.028   4.369  0.9468 -0.6448 -0.8967
10920TIP3    H254176   1.658   3.884   4.396 -0.9475 -0.9545  0.1826
10921TIP3   OH254177   4.217   0.711   1.944  0.1426  0.5693 -0.2724
10921TIP3    H154178   4.301   0.738   1.908  0.0897  0.5490 -0.4127
10921TIP3    H254179   4.164   0.691   1.868 -0.4191  1.8313 -0.2338
10922TIP3   OH254180   5.239   3.626   3.999  0.1322 -0.0989 -0.0117
10922TIP3    H154181   5.251   3.555   4.062  1.5618  0.0268 -0.1073
10922TIP3    H254182   5.189   3.587   3.928  1.5951 -1.2893 -0.4468
10923TIP3   OH254183   5.505   5.923  11.420  0.3991  0.5385  0.6717
10923TIP3    H154184   5.520   5.839  11.377  1.7106  0.9005  0.3846
10923TIP3    H254185   5.505   5.902  11.514  2.0375  0.3862  0.6609
10924TIP3   OH254186   3.570   0.914   4.229 -0.1419 -0.4966  0.0171
10924TIP3    H154187   3.566   0.819   4.221 -0.2567 -0.4610 -0.3579
10924TIP3    H254188   3.499   0.946   4.173  1.3453 -0.1142 -1.7637
10925TIP3   OH254189   2.085   5.926  12.875 -0.0916 -0.6539 -0.0888
10925TIP3    H154190   2.160   5.870  12.856  0.7127  0.1603  0.5475
10925TIP3    H254191   2.077   5.924  12.970 -1.5043 -1.4835 -0.2028
10926TIP3   OH254192   1.832   6.386   0.292  0.2350 -0.0075  0.1959
10926TIP3    H154193   1.921   6.377   0.258  0.5782  1.8134  0.5210
10926TIP3    H254194   1.843   6.426   0.378 -0.8415 -1.1107  0.8772
10927TIP3   OH254195   5.840   6.510  15.068 -0.1443  0.0087 -0.0744
10927TIP3    H154196   5.900   6.494  15.140 -0.7273 -1.4746  0.1147
10927TIP3    H254197   5.756   6.530  15.111 -0.2627  0.0802 -0.3348
10928TIP3   OH254198   2.241   1.557   0.555 -0.4227  0.8070 -1.0313
10928TIP3    H154199   2.273   1.501   0.484  1.7602  0.8073 -0.1140
10928TIP3    H254200   2.199   1.496   0.616 -1.9421  0.7595 -2.0657
10929TIP3   OH254201   6.655   0.386  10.952 -0.3135  0.0910 -0.3498
10929TIP3    H154202   6.595   0.447  10.996 -0.5158 -0.1337 -0.3136
10929TIP3    H254203   6.686   0.434  10.875  0.3648  0.6435  0.2569
10930TIP3   OH254204   3.157   4.305   3.225 -0.2655 -0.0601  0.0700
10930TIP3    H154205   3.188   4.230   3.174 -1.3161 -1.2949  1.1805
10930TIP3    H254206   3.209   4.379   3.192  2.6210 -1.6699  0.6163
10931TIP3   OH254207   1.091   5.477  11.386  0.4998  0.1123 -0.1131
10931TIP3    H154208   1.005   5.468  11.344 -0.3136  2.3605  0.9254
10931TIP3    H254209   1.081   5.430  11.469  0.3994  0.0922 -0.1357
10932TIP3   OH254210   6.232   0.767   2.956  0.1089  0.7348  0.2914
10932TIP3    H154211   6.136   0.763   2.954  0.0447  1.6581  1.0407
10932TIP3    H254212   6.256   0.726   3.039  0.3389  0.8953  0.3058
10933TIP3   OH254213   4.411   4.707  11.699 -0.1502 -0.2449 -0.4599
10933TIP3    H154214   4.472   4.635  11.716  0.0622 -0.1383 -0.7536
10933TIP3    H254215   4.451   4.783  11.741 -0.7719 -0.4624  0.5375
10934TIP3   OH254216   5.059   0.448  15.566  0.2048 -0.6117  0.3982
10934TIP3    H154217   5.108   0.516  15.519  0.4062 -1.3494 -0.4862
10934TIP3    H254218   4.984   0.429  15.510 -2.1040  1.6518  2.4711
10935TIP3   OH254219   3.850   5.220   5.567 -0.4865  0.4024 -0.1027
10935TIP3    H154220   3.921   5.277   5.596 -0.6518  0.9470 -0.7700
10935TIP3    H254221   3.890   5.133   5.564  0.3662  0.8133 -1.2062
10936TIP3   OH254222   5.753   5.983  15.737  0.7348 -0.0787  0.6090
10936TIP3    H154223   5.733   5.930  15.660 -0.6155 -0.9289  1.4947
10936TIP3    H254224   5.797   6.061  15.702  1.1326 -0.9336 -0.8965
10937TIP3   OH254225   4.204   3.559  16.603  0.5250 -0.4062 -0.0851
10937TIP3    H154226   4.273   3.496  16.625  1.2899  0.5069  0.2244
10937TIP3    H254227   4.206   3.563  16.507 -0.8642 -2.2637 -0.2483
10938TIP3   OH254228   5.443   1.586   2.258 -0.3000 -0.1758  0.1490
10938TIP3    H154229   5.507   1.515   2.260  0.7135  0.6965 -0.0840
10938TIP3    H254230   5.407   1.582   2.169  0.3895  0.1171 -0.1588
10939TIP3   OH254231   1.865   3.962  13.989 -0.3056 -0.2852  0.0646
10939TIP3    H154232   1.894   3.873  13.970  2.3769  0.4974  0.1135
10939TIP3    H254233   1.909   4.016  13.923 -0.1407  1.2178  1.3417
10940TIP3   OH254234   5.745   4.095  15.409  0.0315 -0.0624 -0.1155
10940TIP3    H154235   5.757   4.081  15.315 -1.5116  1.4267 -0.5847
10940TIP3    H254236   5.657   4.064  15.427  1.1129 -2.6234  1.4128
10941TIP3   OH254237   2.722   3.222  16.683 -0.0338  0.1441  0.1383
10941TIP3    H154238   2.778   3.177  16.620 -0.3714  0.3924 -0.3547
10941TIP3    H254239   2.725   3.168  16.762 -0.2773 -0.6334 -0.3735
10942TIP3   OH254240   0.798   3.706  16.361 -0.0997  0.1063  1.2223
10942TIP3    H154241   0.821   3.687  16.270 -1.6952 -1.4969  1.0963
10942TIP3    H254242   0.736   3.779  16.355 -0.6808 -0.3917  0.9308
10943TIP3   OH254243   6.040   5.333  11.511  0.4745 -0.0620 -0.4043
10943TIP3    H154244   6.116   5.343  11.568 -0.9165  0.1395  1.4683
10943TIP3    H254245   6.040   5.240  11.488  1.0978 -0.1247 -0.1709
10944TIP3   OH254246   1.282   0.436  11.406 -0.0257  0.4770 -0.4174
10944TIP3    H154247   1.257   0.345  11.393 -1.1505  0.8909 -1.3800
10944TIP3    H254248   1.299   0.469  11.318 -1.3846  1.6556 -0.2684
10945TIP3   OH254249   0.461   4.135  16.484  0.2178 -0.3512  0.2116
10945TIP3    H154250   0.557   4.135  16.489  0.1945 -1.4074  1.1324
10945TIP3    H254251   0.437   4.228  16.479  1.3254 -0.1093 -1.3197
10946TIP3   OH254252   3.085   0.346   1.326 -0.3118  0.0151 -0.0723
10946TIP3    H154253   3.144   0.355   1.252 -1.1178 -1.8733 -1.0010
10946TIP3    H254254   3.141   0.316   1.398  0.4948  1.9658  0.1695
10947TIP3   OH254255   2.439   1.501   5.468 -0.1340  0.1786 -0.0015
10947TIP3    H154256   2.531   1.477   5.476  0.3707  2.5215  3.9255
10947TIP3    H254257   2.391   1.420   5.489  1.0460 -0.6346 -0.3641
10948TIP3   OH254258   0.164   2.915   0.869 -0.5972 -0.1251  0.1253
10948TIP3    H154259   0.090   2.937   0.925 -0.9482  1.9122 -1.0378
10948TIP3    H254260   0.131   2.845   0.812 -1.3154  0.1025  0.2480
10949TIP3   OH254261   6.037   6.445   0.046  0.1346 -0.4437  0.2378
10949TIP3    H154262   6.124   6.464   0.011  0.4629 -0.0193  1.2369
10949TIP3    H254263   5.981   6.515   0.012  0.3272 -0.3406  0.1343
10950TIP3   OH254264   2.103   3.822  11.676  0.4753 -0.7030 -0.0361
10950TIP3    H154265   2.158   3.894  11.644  1.6387 -1.8411 -0.6995
10950TIP3    H254266   2.119   3.820  11.770  2.6149 -1.7914 -0.3604
10951TIP3   OH254267   3.492   2.570  16.107 -0.6104 -0.3031  0.0701
10951TIP3    H154268   3.410   2.617  16.124 -1.0842 -0.8277 -0.6853
10951TIP3    H254269   3.561   2.629  16.139 -1.0545  1.7508 -2.4682
10952TIP3   OH254270   4.925   3.256  10.392 -0.1822  0.7258  0.2511
10952TIP3    H154271   4.933   3.182  10.331 -0.3152 -0.4038  1.5598
10952TIP3    H254272   4.979   3.325  10.353 -1.8959  0.8070 -2.2079
10953TIP3   OH254273   1.176   2.525  15.476 -0.3158  0.6116  0.3218
10953TIP3    H154274   1.105   2.556  15.532 -1.9044 -0.9698 -0.7281
10953TIP3    H254275   1.136   2.458  15.421  2.3603 -1.6215  0.8457
10954TIP3   OH254276   2.870   5.755  14.325 -0.1402  0.1127 -0.5230
10954TIP3    H154277   2.854   5.820  14.257  0.4018  0.0879 -0.6866
10954TIP3    H254278   2.902   5.805  14.400  0.4952  0.0238 -0.7250
10955TIP3   OH254279   2.046   1.954  13.219  0.0427 -0.5735 -0.3904
10955TIP3    H154280   2.040   1.994  13.306  0.2021  0.6640 -0.9381
10955TIP3    H254281   2.026   2.025  13.158  1.5047 -1.0290 -1.4382
10956TIP3   OH254282   3.729   4.084  14.432 -0.0754  1.1145  0.5527
10956TIP3    H154283   3.734   4.163  14.377  0.8760  1.0234  0.4856
10956TIP3    H254284   3.682   4.021  14.378  1.1362  0.9175 -0.3332
10957TIP3   OH254285   1.304   0.259  15.902  0.3502  0.6670 -0.2242
10957TIP3    H154286   1.280   0.346  15.933  0.2463  0.4562  0.3124
10957TIP3    H254287   1.390   0.270  15.863  1.5472  0.5694  2.1699
10958TIP3   OH254288   1.390   2.876  14.835 -0.4585 -0.3826 -0.6373
10958TIP3    H154289   1.327   2.880  14.764  0.1291  1.6704 -1.1257
10958TIP3    H254290   1.471   2.844  14.794 -0.5047 -0.5812 -0.5737
10959TIP3   OH254291   0.953   2.525  12.882  0.3421 -0.1957  0.0419
10959TIP3    H154292   1.023   2.576  12.923 -0.0589 -0.8725  1.6594
10959TIP3    H254293   0.898   2.497  12.955 -1.2675 -0.2308 -1.1113
10960TIP3   OH254294   2.334   3.496   1.155 -0.7740 -0.2289  0.2093
10960TIP3    H154295   2.328   3.546   1.237  1.9973 -1.3893  1.2215
10960TIP3    H254296   2.343   3.562   1.087 -0.6427  0.7143  1.1206
10961TIP3   OH254297   0.946   3.973  11.661  0.0697 -0.6941  0.3503
10961TIP3    H154298   0.955   4.018  11.577 -0.8693 -1.9901 -0.4985
10961TIP3    H254299   0.903   4.036  11.718 -0.7860 -0.3273 -0.6626
10962TIP3   OH254300   3.673   1.356  16.624 -0.3909  0.2457  0.6479
10962TIP3    H154301   3.763   1.339  16.597 -0.3607  0.9358  0.2694
10962TIP3    H254302   3.681   1.421  16.694 -0.6680  2.2088 -1.0454
10963TIP3   OH254303   2.729   0.677  15.358  0.0567  0.3421 -0.5175
10963TIP3    H154304   2.818   0.660  15.327  0.1080 -0.2611 -0.0486
10963TIP3    H254305   2.741   0.722  15.441 -0.0827  1.5767 -1.1476
10964TIP3   OH254306   3.713   2.033  13.231 -0.1075  0.0839 -0.3876
10964TIP3    H154307   3.792   2.029  13.178 -0.1931  0.9856 -0.6047
10964TIP3    H254308   3.732   1.978  13.308  0.4493 -0.2838 -0.7824
10965TIP3   OH254309   4.836   2.832   2.074 -0.6255 -0.5211 -0.0545
10965TIP3    H154310   4.874   2.895   2.014 -0.5631 -1.7799 -1.4055
10965TIP3    H254311   4.901   2.822   2.143 -1.4202  2.2061  1.2299
10966TIP3   OH254312   6.424   2.033  15.652 -0.2504 -0.0355  0.3389
10966TIP3    H154313   6.349   2.092  15.665 -1.0449 -1.1255  0.8194
10966TIP3    H254314   6.424   2.014  15.559  0.0200  0.7075  0.1750
10967TIP3   OH254315   5.145   6.496   2.189  0.3428  0.0381  0.1780
10967TIP3    H154316   5.062   6.523   2.149  1.9414  2.3880 -1.9028
10967TIP3    H254317   5.199   6.467   2.116  2.3941  1.6117  0.9634
10968TIP3   OH254318   1.988   4.341  16.156 -0.2329 -0.4402  0.0727
10968TIP3    H154319   2.064   4.385  16.194  0.6541 -0.8767 -1.1073
10968TIP3    H254320   1.921   4.344  16.224  0.3370  1.2702  0.6182
10969TIP3   OH254321   3.707   0.470   3.580  0.1156 -0.7168  0.1090
10969TIP3    H154322   3.727   0.559   3.609 -1.2559  0.1070 -1.3614
10969TIP3    H254323   3.637   0.441   3.639 -1.8348  0.5179 -1.4450
10970TIP3   OH254324   6.286   0.957  12.991  0.5334 -0.4828  0.3394
10970TIP3    H154325   6.348   0.970  12.920  0.8939 -0.0242  0.7335
10970TIP3    H254326   6.322   0.885  13.042  0.5034 -0.5204  0.3076
10971TIP3   OH254327   6.287   2.230   2.455  0.2173  0.1180 -0.7000
10971TIP3    H154328   6.216   2.209   2.515 -0.5958  0.2835 -1.5865
10971TIP3    H254329   6.256   2.307   2.407  1.7683  1.3709  0.1860
10972TIP3   OH254330   1.990   6.865   4.289  0.2368 -0.8597  0.0062
10972TIP3    H154331   2.077   6.871   4.328 -0.2873 -2.6745  1.6196
10972TIP3    H254332   1.976   6.771   4.276 -0.9926 -0.5221 -1.4169
10973TIP3   OH254333   3.390   4.812   3.847 -0.0753  0.0568 -0.0088
10973TIP3    H154334   3.406   4.728   3.890  0.5453  0.5651  0.7812
10973TIP3    H254335   3.416   4.799   3.756 -0.4515 -0.7471 -0.0014
10974TIP3   OH254336   1.987   4.085  13.527  0.1281  0.1799 -0.0249
10974TIP3    H154337   1.900   4.088  13.568 -0.8123 -0.5109 -1.8706
10974TIP3    H254338   2.011   4.178  13.518  2.1133  0.5725  5.2715
10975TIP3   OH254339   4.484   6.725   3.370 -0.1213  0.4255 -0.0636
10975TIP3    H154340   4.503   6.766   3.286  1.8278 -0.2434  0.0117
10975TIP3    H254341   4.506   6.792   3.435  2.9751 -0.5448  0.0550
10976TIP3   OH254342   2.318   3.569   0.588  0.0086  0.4306 -0.0226
10976TIP3    H154343   2.295   3.505   0.655  1.9008 -0.0738  0.2175
10976TIP3    H254344   2.406   3.598   0.613  0.2581  1.1257 -1.6180
10977TIP3   OH254345   2.716   1.041   4.001 -0.0426  0.0177 -0.2028
10977TIP3    H154346   2.665   1.053   4.081 -1.2230 -0.1854 -0.8973
10977TIP3    H254347   2.773   1.117   3.996 -0.6117  0.4925  0.3730
10978TIP3   OH254348   4.105   2.699   1.672  0.3487  0.1679 -0.2659
10978TIP3    H154349   4.094   2.744   1.589 -0.2943  1.0148  0.2681
10978TIP3    H254350   4.083   2.764   1.738  1.6216 -0.2523  0.6035
10979TIP3   OH254351   2.021   6.339   0.892 -0.1942 -0.7180  0.4947
10979TIP3    H154352   2.108   6.375   0.910 -0.4693 -0.5980  1.7157
10979TIP3    H254353   2.039   6.250   0.861  0.3618 -1.1321  1.8868
10980TIP3   OH254354   2.374   5.362   2.332  0.4171  0.3913  0.0388
10980TIP3    H154355   2.362   5.451   2.298  0.1713 -0.0805 -1.1848
10980TIP3    H254356   2.390   5.309   2.254  1.1191 -0.5580  0.7980
10981TIP3   OH254357   1.650   4.364   5.281  0.2618 -0.3133 -0.2385
10981TIP3    H154358   1.739   4.336   5.259  0.3238 -0.9519  0.7655
10981TIP3    H254359   1.658   4.403   5.368 -0.7961 -2.5878  0.9673
10982TIP3   OH254360   2.337   5.465  12.808 -1.0303 -0.1139 -0.2585
10982TIP3    H154361   2.389   5.526  12.756 -1.1559  0.3772  0.1835
10982TIP3    H254362   2.282   5.521  12.862 -0.3374 -0.5990  0.9828
10983TIP3   OH254363   1.364   2.404  13.950  0.4964 -0.0696 -0.5154
10983TIP3    H154364   1.330   2.447  13.872  0.6729 -0.1548 -0.6399
10983TIP3    H254365   1.309   2.326  13.960 -1.4184  1.3933  1.0913
10984TIP3   OH254366   6.442   6.597  12.302 -0.1074  0.3520  0.2000
10984TIP3    H154367   6.523   6.648  12.305 -0.7008  1.2749  0.5878
10984TIP3    H254368   6.436   6.568  12.211  0.6818  0.2172  0.1781
10985TIP3   OH254369   2.451   5.211   2.551  0.0723 -0.3191  0.0706
10985TIP3    H154370   2.541   5.191   2.527 -0.1843  0.2737 -1.4579
10985TIP3    H254371   2.413   5.252   2.473 -1.1685  0.5469  1.0810
10986TIP3   OH254372   4.798   2.233   2.325  0.5249  0.6825  0.5084
10986TIP3    H154373   4.732   2.178   2.368  0.2947 -0.2355 -0.9709
10986TIP3    H254374   4.757   2.319   2.319 -1.8917 -0.4924 -3.0231
10987TIP3   OH254375   4.382   0.843  11.086  0.1755 -0.4337 -0.0036
10987TIP3    H154376   4.361   0.759  11.046  1.4391 -0.4553 -0.6560
10987TIP3    H254377   4.318   0.904  11.049 -0.1236 -0.9124 -0.2814
10988TIP3   OH254378   3.579   2.756  10.714 -0.5668 -0.3147 -0.6042
10988TIP3    H154379   3.534   2.840  10.724  1.9132  1.0774 -0.1783
10988TIP3    H254380   3.608   2.755  10.623  1.3810  0.4564 -0.0532
10989TIP3   OH254381   1.959   3.346  11.504  1.1848 -0.0868 -0.0572
10989TIP3    H154382   1.971   3.367  11.411 -0.1278 -2.3120 -0.8083
10989TIP3    H254383   2.043   3.368  11.545  2.1144  0.0843 -1.9376
10990TIP3   OH254384   5.956   3.408   6.033 -0.0019 -0.4639 -0.2297
10990TIP3    H154385   5.874   3.390   5.987  0.9295 -2.6539 -1.1765
10990TIP3    H254386   5.957   3.346   6.106 -0.0417  0.9036  0.9974
10991TIP3   OH254387   3.966   1.635  11.621  0.4895 -0.0341 -0.7198
10991TIP3    H154388   3.962   1.730  11.607  1.5256  0.2595  0.8070
10991TIP3    H254389   3.874   1.609  11.633  0.2279  0.8329 -0.7551
10992TIP3   OH254390   6.519   6.132  14.185 -0.3663 -0.0219 -0.0006
10992TIP3    H154391   6.537   6.069  14.116  1.1313  1.8456 -1.4019
10992TIP3    H254392   6.600   6.135  14.236 -0.4166  0.7757  0.0365
10993TIP3   OH254393   5.733   0.531   4.155 -0.3686  0.2624  0.0891
10993TIP3    H154394   5.648   0.569   4.178 -0.1450  0.6588  0.2763
10993TIP3    H254395   5.762   0.488   4.236  0.8060  2.3764  0.8697
10994TIP3   OH254396   6.349   6.894   2.266 -0.1623  0.4122  0.3928
10994TIP3    H154397   6.422   6.915   2.324  0.2799  0.0092 -0.0127
10994TIP3    H254398   6.368   6.807   2.233 -0.9487  0.1994  0.4627
10995TIP3   OH254399   4.887   5.461   3.760  0.2977 -0.1523  0.2305
10995TIP3    H154400   4.930   5.406   3.826  0.8275  0.0814  0.0867
10995TIP3    H254401   4.803   5.419   3.744  1.5527 -2.2141 -1.5009
10996TIP3   OH254402   0.452   6.113   1.220 -0.2628  0.0349  0.0130
10996TIP3    H154403   0.511   6.179   1.256  0.6090  0.3905 -1.8964
10996TIP3    H254404   0.459   6.039   1.280  0.9866  0.6344  0.6453
10997TIP3   OH254405   3.566   1.479   4.609  0.0530  0.4006 -0.4101
10997TIP3    H154406   3.558   1.553   4.548 -0.4243  1.2836  0.6922
10997TIP3    H254407   3.491   1.423   4.588  0.6598 -0.0169 -1.5450
10998TIP3   OH254408   3.609   3.080   1.301 -0.3057 -0.2540 -0.0225
10998TIP3    H154409   3.652   3.126   1.229 -1.0037  0.5830  0.0677
10998TIP3    H254410   3.651   2.994   1.304  0.0245 -0.1441 -1.1459
10999TIP3   OH254411   2.803   5.008   0.428  0.1720 -0.1055  0.4016
10999TIP3    H154412   2.710   4.988   0.416  0.0611 -0.0749  1.1544
10999TIP3    H254413   2.830   4.954   0.502  0.4880  0.6644  0.8596
11000TIP3   OH254414   5.299   3.751   3.023  0.1058  0.1154  0.2736
11000TIP3    H154415   5.286   3.660   3.050 -0.5973 -0.1674 -0.9073
11000TIP3    H254416   5.236   3.763   2.952  1.0940  1.1196 -0.4603
11001TIP3   OH254417   5.078   2.762   3.897 -0.7596  0.3157  0.0327
11001TIP3    H154418   5.129   2.829   3.942 -2.2813  1.1950  0.5221
11001TIP3    H254419   5.058   2.698   3.965 -0.9535  0.3697  0.0277
11002TIP3   OH254420   4.945   4.990  11.826  0.0776 -0.1600 -0.1931
11002TIP3    H154421   4.878   5.035  11.877 -0.6735 -0.9748 -0.4389
11002TIP3    H254422   5.022   5.047  11.832 -0.3966  0.4092  0.7340
11003TIP3   OH254423   6.370   1.513  10.826  0.1161  0.6242  0.4505
11003TIP3    H154424   6.404   1.594  10.788  0.9806  1.0025  1.9816
11003TIP3    H254425   6.279   1.533  10.848 -1.0377 -0.1525 -2.9350
11004TIP3   OH254426   0.879   2.017   2.924  0.3147  0.1138  0.1067
11004TIP3    H154427   0.906   1.958   2.995 -0.2979 -2.9316 -1.9666
11004TIP3    H254428   0.956   2.021   2.867 -0.0849  0.2982 -0.4181
11005TIP3   OH254429   1.710   5.579   0.069 -0.2842  0.1294  0.0873
11005TIP3    H154430   1.688   5.496   0.026 -0.1943  0.5602 -0.8070
11005TIP3    H254431   1.647   5.585   0.141  0.2791 -1.1359  0.7219
11006TIP3   OH254432   2.990   4.042  15.309 -0.0397  0.4920  0.7452
11006TIP3    H154433   2.981   4.007  15.398 -2.6624 -0.2805  0.2304
11006TIP3    H254434   3.081   4.024  15.286  0.3746 -0.3822  2.8096
11007TIP3   OH254435   5.855   5.571  11.517 -0.6343  0.2736  0.5888
11007TIP3    H154436   5.950   5.578  11.508 -0.8005  2.6268  0.0414
11007TIP3    H254437   5.839   5.477  11.522  1.8357 -0.1656  2.3061
11008TIP3   OH254438   5.394   5.250  11.436 -0.0399 -0.3593 -0.8515
11008TIP3    H154439   5.337   5.173  11.437  1.4692 -1.5839 -1.8968
11008TIP3    H254440   5.474   5.221  11.480  0.5755  0.5992 -1.3032
11009TIP3   OH254441   2.166   6.485   1.627  0.2716 -0.0891  0.5379
11009TIP3    H154442   2.094   6.500   1.688  1.1184  0.1006  1.5318
11009TIP3    H254443   2.228   6.431   1.676  0.5091 -0.8184 -0.5316
11010TIP3   OH254444   6.466   3.049   2.990 -0.4674  0.4487  0.3317
11010TIP3    H154445   6.377   3.013   2.984  0.1721 -1.4772  1.3622
11010TIP3    H254446   6.481   3.090   2.904 -1.8528 -0.4208 -0.3655
11011TIP3   OH254447   1.175   5.902   5.683 -0.3979  0.0426 -0.1976
11011TIP3    H154448   1.198   5.814   5.653  1.7614  0.6100 -0.3334
11011TIP3    H254449   1.204   5.904   5.775 -0.4191  0.6246 -0.2005
11012TIP3   OH254450   3.156   5.940   2.615 -0.3924  0.0708  0.2995
11012TIP3    H154451   3.171   5.848   2.637 -1.9222 -0.0609  0.8731
11012TIP3    H254452   3.075   5.963   2.660 -0.9242  1.2371 -1.1919
11013TIP3   OH254453   4.858   6.546   4.325 -0.1200  0.0178  0.1776
11013TIP3    H154454   4.774   6.578   4.292  1.0984  0.7539 -2.5619
11013TIP3    H254455   4.913   6.625   4.329  1.3229 -0.8512 -1.2265
11014TIP3   OH254456   3.589   3.273  13.463 -0.1295  0.5069 -0.1906
11014TIP3    H154457   3.659   3.268  13.397 -0.4190  1.6825 -0.6292
11014TIP3    H254458   3.635   3.280  13.546  0.2613 -0.0664 -0.3549
11015TIP3   OH254459   4.646   4.571  16.254  0.2000  0.2852  0.2198
11015TIP3    H154460   4.581   4.635  16.226 -2.0300 -1.0773  1.9974
11015TIP3    H254461   4.649   4.507  16.184 -0.5466  0.2561  0.2089
11016TIP3   OH254462   0.910   2.192  15.846  0.0460 -0.1669 -0.5003
11016TIP3    H154463   1.002   2.214  15.834  0.3676 -1.4938 -0.5905
11016TIP3    H254464   0.865   2.277  15.847  1.2324  0.4840 -0.6604
11017TIP3   OH254465   2.886   4.328  16.525  0.8708 -0.2417  0.0306
11017TIP3    H154466   2.942   4.290  16.458  0.6538  1.5532 -1.2484
11017TIP3    H254467   2.825   4.384  16.476 -0.6092 -0.4355  1.5651
11018TIP3   OH254468   1.796   4.419  11.242  0.2971 -0.3511  0.1578
11018TIP3    H154469   1.738   4.451  11.173 -0.5096 -1.7243  0.1578
11018TIP3    H254470   1.737   4.377  11.304  1.2850 -1.7726  0.1723
11019TIP3   OH254471   1.242   4.503  13.768  1.0597  0.2863  0.3230
11019TIP3    H154472   1.268   4.536  13.682 -0.8801 -1.1334 -0.8580
11019TIP3    H254473   1.262   4.410  13.766 -1.4927 -0.3309  0.3359
11020TIP3   OH254474   2.718   6.483  10.753 -0.1188  0.5225  0.1884
11020TIP3    H154475   2.633   6.458  10.716  0.6055 -2.4255  0.2291
11020TIP3    H254476   2.753   6.547  10.691 -0.3608 -1.8183 -2.6053
11021TIP3   OH254477   5.145   2.882  15.661  0.0307  0.4276 -0.2241
11021TIP3    H154478   5.157   2.921  15.747 -2.3868  1.9054 -0.4545
11021TIP3    H254479   5.080   2.813  15.675  0.4300 -0.0403 -0.6759
11022TIP3   OH254480   3.057   3.793   3.105  0.2029 -0.4785 -0.1005
11022TIP3    H154481   3.069   3.739   3.183  0.1328 -0.7237 -0.2582
11022TIP3    H254482   3.095   3.878   3.128  0.1973 -0.5553  0.1937
11023TIP3   OH254483   5.637   5.676  11.371 -0.1600 -0.8080 -0.0063
11023TIP3    H154484   5.679   5.660  11.286 -0.4948 -1.2339 -0.0994
11023TIP3    H254485   5.708   5.673  11.434  0.4143  1.5086 -0.4548
11024TIP3   OH254486   4.210   2.428   2.760  0.0638 -0.2239 -0.0879
11024TIP3    H154487   4.267   2.494   2.720  0.4431  0.3889  1.3801
11024TIP3    H254488   4.239   2.345   2.722  0.5622  0.3056 -0.8875
11025TIP3   OH254489   3.839   6.741  15.948 -0.1122  0.2874  0.4626
11025TIP3    H154490   3.835   6.793  16.028 -0.2653  1.0574 -0.0355
11025TIP3    H254491   3.881   6.659  15.974  1.1592  1.0992  1.0156
11026TIP3   OH254492   6.674   5.203   0.553 -0.0260 -0.3368  0.0771
11026TIP3    H154493   6.585   5.183   0.526 -0.5830  2.8481 -0.8443
11026TIP3    H254494   6.676   5.298   0.563  3.7523  0.0133 -1.9391
11027TIP3   OH254495   0.719   2.780   3.875 -0.0469 -0.1392  0.1418
11027TIP3    H154496   0.761   2.733   3.803  1.3721  0.4929  0.5444
11027TIP3    H254497   0.668   2.849   3.832 -0.0719 -0.4364 -0.3124
11028TIP3   OH254498   3.595   1.857  16.351 -0.3632  0.1342 -0.1668
11028TIP3    H154499   3.558   1.922  16.291 -3.2927 -1.0595  0.1797
11028TIP3    H254500   3.660   1.811  16.299  1.2720  2.7660 -0.6472
11029TIP3   OH254501   5.830   0.150  12.057 -0.1236  0.2865 -0.2170
11029TIP3    H154502   5.922   0.160  12.081 -0.1588 -2.2994  1.4153
11029TIP3    H254503   5.833   0.121  11.966  0.7247 -0.0697 -0.0913
11030TIP3   OH254504   6.509   3.698   2.436 -0.5003 -0.0247 -0.6780
11030TIP3    H154505   6.480   3.768   2.494  0.4229 -0.2444  0.0655
11030TIP3    H254506   6.469   3.719   2.351 -2.4558 -0.0892  0.1755
11031TIP3   OH254507   6.695   2.215   4.866  0.9821  0.4616  0.0949
11031TIP3    H154508   6.654   2.274   4.929 -0.2510  0.5780 -0.7949
11031TIP3    H254509   6.749   2.157   4.920  0.2310  0.7796  1.2256
11032TIP3   OH254510   5.952   1.150  12.921  0.5064 -0.9545  0.4542
11032TIP3    H154511   5.867   1.182  12.891  0.8093 -1.4332 -1.0169
11032TIP3    H254512   5.948   1.055  12.904  1.8817 -0.7758 -1.1467
11033TIP3   OH254513   3.258   1.672  15.308 -0.1653  0.2813  0.2396
11033TIP3    H154514   3.244   1.747  15.249  0.4504 -0.3386 -0.7193
11033TIP3    H254515   3.201   1.604  15.274 -0.7609  0.3127  1.1414
11034TIP3   OH254516   0.702   3.821   1.526  0.0912 -0.0319 -0.0359
11034TIP3    H154517   0.654   3.762   1.468 -0.2128 -1.6284  1.7396
11034TIP3    H254518   0.743   3.885   1.467  0.0803 -1.7533 -2.0148
11035TIP3   OH254519   2.729   0.375  15.943 -0.0824  0.3972 -0.2787
11035TIP3    H154520   2.806   0.361  15.887 -0.1103  1.3727 -0.5810
11035TIP3    H254521   2.735   0.306  16.009 -1.2515 -2.2276 -2.6830
11036TIP3   OH254522   5.782   4.094   5.013  0.2604 -0.4756 -0.6892
11036TIP3    H154523   5.703   4.051   4.979  0.9169 -1.0443 -1.5535
11036TIP3    H254524   5.806   4.158   4.945  0.7011 -0.5101 -0.5736
11037TIP3   OH254525   5.256   3.286  10.876 -0.0220 -0.2779 -0.0274
11037TIP3    H154526   5.323   3.352  10.860  1.3633 -1.8600 -1.1276
11037TIP3    H254527   5.255   3.233  10.796 -3.4415  0.3512 -0.5384
11038TIP3   OH254528   5.368   3.116  12.818  0.2169  0.1298 -0.0915
11038TIP3    H154529   5.366   3.195  12.764  1.1359  0.5213  0.4197
11038TIP3    H254530   5.276   3.094  12.832 -0.0514  1.1403 -0.1997
11039TIP3   OH254531   1.769   1.795  13.853 -0.4409  0.5514  0.0011
11039TIP3    H154532   1.758   1.890  13.858 -0.1404  0.5665  0.4215
11039TIP3    H254533   1.837   1.782  13.787 -1.8348  0.5290 -1.4974
11040TIP3   OH254534   3.714   4.505   3.482  0.7267 -0.0636 -0.4314
11040TIP3    H154535   3.794   4.543   3.448 -1.1747  3.9009 -1.0712
11040TIP3    H254536   3.684   4.567   3.548 -1.7849 -1.3847 -0.1931
11041TIP3   OH254537   1.719   4.145   1.250  0.2760  0.7670 -0.0091
11041TIP3    H154538   1.769   4.208   1.301 -0.5493  1.8146 -0.4365
11041TIP3    H254539   1.775   4.068   1.244  1.3503  1.4876  0.4731
11042TIP3   OH254540   6.610   3.498   4.888  0.6361  0.1044  0.8903
11042TIP3    H154541   6.534   3.443   4.906 -0.3294  1.3913  0.8917
11042TIP3    H254542   6.611   3.507   4.793 -0.8058  2.1834  1.0108
11043TIP3   OH254543   3.210   1.099   4.893  0.4747 -0.1994 -0.0560
11043TIP3    H154544   3.295   1.143   4.886  0.6247 -0.5097 -0.1726
11043TIP3    H254545   3.226   1.027   4.954  0.0802  0.2638  0.6159
11044TIP3   OH254546   1.579   5.658   5.139 -0.3314  0.2510  0.3235
11044TIP3    H154547   1.656   5.626   5.092 -1.2481  0.8468 -1.6637
11044TIP3    H254548   1.615   5.708   5.213  1.2012  0.7276 -0.7009
11045TIP3   OH254549   2.431   5.735  13.709  0.2183  0.3013 -0.7254
11045TIP3    H154550   2.372   5.660  13.718  0.2533  0.5144  1.9416
11045TIP3    H254551   2.381   5.799  13.657 -0.8644 -0.5219 -0.7290
11046TIP3   OH254552   2.310   3.590   4.358 -0.3933 -0.5296 -0.0374
11046TIP3    H154553   2.403   3.603   4.378 -0.6708  0.5207  0.6613
11046TIP3    H254554   2.275   3.679   4.349 -0.9014 -0.9245 -2.4266
11047TIP3   OH254555   3.365   2.746   4.840  0.2201  0.0728 -0.6264
11047TIP3    H154556   3.281   2.790   4.853 -0.3009 -0.7294 -1.1636
11047TIP3    H254557   3.370   2.733   4.745  2.1022  2.2997 -0.9254
11048TIP3   OH254558   1.079   1.327   1.854 -0.1118  0.2097 -0.3940
11048TIP3    H154559   1.162   1.372   1.843  0.2791  0.0831  1.6685
11048TIP3    H254560   1.100   1.251   1.908 -1.0424 -1.6007 -2.4070
11049TIP3   OH254561   0.690   1.213  14.995  1.0533  0.7956  0.0895
11049TIP3    H154562   0.717   1.136  14.945  2.3059  0.6926  0.8984
11049TIP3    H254563   0.619   1.181  15.052  1.4721  0.2714  0.3203
11050TIP3   OH254564   0.051   6.379   4.332  0.2324 -0.2370 -0.0640
11050TIP3    H154565   0.146   6.368   4.323  0.2209 -0.9597  0.6748
11050TIP3    H254566   0.018   6.291   4.350 -0.5007  0.1207  0.3775
11051TIP3   OH254567   2.652   6.474  13.158  0.0933  0.4657  0.4521
11051TIP3    H154568   2.578   6.519  13.198 -1.6831  0.3564 -2.3916
11051TIP3    H254569   2.618   6.386  13.138  0.8766  0.4686 -1.0521
11052TIP3   OH254570   2.137   6.157   2.003  0.0551  0.3820  0.4337
11052TIP3    H154571   2.147   6.240   1.956  1.5048  0.9621  1.6946
11052TIP3    H254572   2.226   6.122   2.009 -0.3487 -0.5603  1.1994
11053TIP3   OH254573   6.448   4.841   2.759  0.5791  0.0942 -0.1042
11053TIP3    H154574   6.521   4.784   2.781  0.1457 -0.6273 -0.4550
11053TIP3    H254575   6.426   4.817   2.668  2.0594  2.6660 -1.2562
11054TIP3   OH254576   0.277   3.601   2.355  0.0350  0.1682 -0.0834
11054TIP3    H154577   0.367   3.627   2.334 -0.5796  0.7210 -2.3066
11054TIP3    H254578   0.238   3.681   2.391  0.4158 -0.0742  0.8931
11055TIP3   OH254579   3.591   6.478  13.343 -0.5868 -0.5930 -0.1914
11055TIP3    H154580   3.509   6.481  13.294  0.1752  1.7741 -1.5103
11055TIP3    H254581   3.659   6.473  13.276  0.4418  1.1259  0.6454
11056TIP3   OH254582   3.741   5.630  15.880  0.2795 -0.0270  0.0920
11056TIP3    H154583   3.746   5.724  15.867  1.2509  0.0410  0.8054
11056TIP3    H254584   3.722   5.594  15.794 -0.5107  0.8370 -0.1131
11057TIP3   OH254585   5.769   2.763   5.135 -0.4262  0.4609  0.1003
11057TIP3    H154586   5.858   2.781   5.106 -0.0036  0.4713  1.3209
11057TIP3    H254587   5.721   2.739   5.056  0.3264  1.7615 -0.7776
11058TIP3   OH254588   4.701   6.573  14.234 -0.1586  0.1334 -0.0584
11058TIP3    H154589   4.668   6.484  14.220 -0.5949  0.1344  0.8829
11058TIP3    H254590   4.770   6.562  14.300 -0.6203  0.5595  0.5065
11059TIP3   OH254591   5.423   6.522  15.511 -0.4887 -0.3597 -0.2001
11059TIP3    H154592   5.421   6.600  15.565  0.3435  0.1219 -0.8474
11059TIP3    H254593   5.462   6.455  15.567 -0.3055 -0.0539  0.0415
11060TIP3   OH254594   3.474   6.530   2.959  0.4390 -0.8549  0.3627
11060TIP3    H154595   3.388   6.521   2.919  1.1289  0.3923 -1.5542
11060TIP3    H254596   3.461   6.591   3.031 -0.1136  0.2083 -0.6065
11061TIP3   OH254597   2.878   6.710  13.625 -0.5685  0.1379 -0.3524
11061TIP3    H154598   2.797   6.680  13.583 -0.3512 -1.1725  0.1326
11061TIP3    H254599   2.911   6.634  13.672 -0.1061  1.2069  1.1413
11062TIP3   OH254600   2.220   4.476  11.744 -0.0658  0.9731 -0.1026
11062TIP3    H154601   2.138   4.509  11.781  1.5914  2.7660  2.3179
11062TIP3    H254602   2.228   4.388  11.779 -1.0194  0.7027 -0.5236
11063TIP3   OH254603   3.415   6.191   0.959 -0.1583 -0.2113  0.1191
11063TIP3    H154604   3.444   6.262   0.902  3.0089 -1.9180 -0.6356
11063TIP3    H254605   3.394   6.119   0.899  0.6455 -1.1750  0.9402
11064TIP3   OH254606   3.532   4.054   2.355  0.2284  0.4801 -0.0376
11064TIP3    H154607   3.492   3.975   2.392  0.3343 -0.0113 -0.9270
11064TIP3    H254608   3.458   4.104   2.321  0.1970  0.5647  0.1536
11065TIP3   OH254609   4.633   2.687   5.086  0.0364 -0.1099  0.5016
11065TIP3    H154610   4.640   2.619   5.154 -0.8578  1.6148  2.4018
11065TIP3    H254611   4.544   2.678   5.052  0.2456 -0.5061  0.0476
11066TIP3   OH254612   4.601   4.294  15.201  0.1842  0.3943 -0.3202
11066TIP3    H154613   4.690   4.280  15.168  0.7313  0.2464  1.1306
11066TIP3    H254614   4.594   4.235  15.277 -1.2929  0.1261 -0.6248
11067TIP3   OH254615   0.799   3.551  10.582  0.3433  0.0177 -0.1269
11067TIP3    H154616   0.845   3.623  10.541  0.9725  0.9730  2.1038
11067TIP3    H254617   0.851   3.474  10.562  1.3355  0.6581 -0.0548
11068TIP3   OH254618   5.162   5.682  12.872 -0.3565 -0.4596 -0.0323
11068TIP3    H154619   5.236   5.692  12.811 -0.7177 -2.3481 -0.8346
11068TIP3    H254620   5.085   5.706  12.820 -0.6438 -1.8505 -0.2683
11069TIP3   OH254621   0.322   2.430   5.012  0.1606  0.2514  0.3844
11069TIP3    H154622   0.306   2.461   4.923  0.0364  2.1778  1.0450
11069TIP3    H254623   0.235   2.423   5.051  0.1353 -1.5636  0.0899
11070TIP3   OH254624   0.616   4.063  16.199  0.2621 -0.0356 -0.1800
11070TIP3    H154625   0.601   3.986  16.255 -0.1967 -0.7515 -1.2523
11070TIP3    H254626   0.531   4.107  16.195  0.4780  0.4311  0.2784
11071TIP3   OH254627   1.604   0.072  15.922  0.0540  0.3164  0.0101
11071TIP3    H154628   1.659   0.087  15.999  2.2137 -2.6587 -0.7764
11071TIP3    H254629   1.517   0.053  15.958  0.2288  2.0114  1.4713
11072TIP3   OH254630   4.307   4.153   5.253 -0.4602 -0.4144 -0.0784
11072TIP3    H154631   4.306   4.190   5.341  0.9526 -2.0336  0.6741
11072TIP3    H254632   4.398   4.125   5.239 -0.9711 -1.5375 -1.4607
11073TIP3   OH254633   6.699   1.461  13.181 -0.2129  0.1034 -0.0133
11073TIP3    H154634   6.746   1.453  13.098 -0.2136  1.0843 -0.1230
11073TIP3    H254635   6.606   1.463  13.155 -0.1694  1.9746 -0.1598
11074TIP3   OH254636   2.320   2.515   1.835 -0.4271  0.0413 -0.3262
11074TIP3    H154637   2.378   2.520   1.759 -2.3277  1.3749 -1.8003
11074TIP3    H254638   2.302   2.422   1.845  2.1589 -0.4644  0.4159
11075TIP3   OH254639   0.031   2.078   0.835 -0.1706 -0.5505  0.2040
11075TIP3    H154640  -0.050   2.060   0.883 -0.6091  2.2980  0.7158
11075TIP3    H254641   0.024   2.024   0.756 -2.5468 -0.4533  0.2675
11076TIP3   OH254642   4.054   4.942   1.645 -0.5744 -0.1239 -0.0443
11076TIP3    H154643   4.064   5.014   1.707  0.0195 -1.2315  1.2003
11076TIP3    H254644   4.112   4.965   1.572  0.7190  0.0238  0.9785
11077TIP3   OH254645   5.205   1.903   2.414  0.1364 -0.2513 -0.4822
11077TIP3    H154646   5.181   1.863   2.498 -1.4769  0.5037 -0.5577
11077TIP3    H254647   5.124   1.902   2.363  0.5943  1.1900 -1.2709
11078TIP3   OH254648   5.289   5.419   0.533  0.1164  0.9014  0.4044
11078TIP3    H154649   5.274   5.447   0.443  2.3865 -0.8013 -0.6249
11078TIP3    H254650   5.312   5.499   0.580  0.4983  1.6170 -0.9445
11079TIP3   OH254651   2.867   2.062   5.985 -0.3993  0.0850 -0.3666
11079TIP3    H154652   2.961   2.060   5.966 -0.5549 -0.0984 -1.1703
11079TIP3    H254653   2.861   2.048   6.079  0.2903 -1.9942 -0.5847
11080TIP3   OH254654   2.609   4.593   0.644 -0.0493 -0.2453  0.0092
11080TIP3    H154655   2.546   4.547   0.588 -0.7990  0.2570  0.4280
11080TIP3    H254656   2.555   4.635   0.711  0.7026  0.5493  0.1269
11081TIP3   OH254657   5.843   1.511  15.989  0.2230  0.0559 -0.3529
11081TIP3    H154658   5.858   1.605  15.991  0.6114 -0.0147  0.5514
11081TIP3    H254659   5.865   1.481  16.077 -0.3880 -0.8089 -0.4790
11082TIP3   OH254660   3.771   4.064  13.527  0.1874  0.0590 -0.0727
11082TIP3    H154661   3.834   4.131  13.553 -0.4179 -0.0273  1.6798
11082TIP3    H254662   3.825   3.987  13.507  0.6599 -0.1570  1.8558
11083TIP3   OH254663   0.245   2.574   3.271  0.3492 -0.0378  0.0612
11083TIP3    H154664   0.152   2.591   3.283  0.5086  0.0556  1.2119
11083TIP3    H254665   0.288   2.658   3.287  0.7213 -0.3275  0.6085
11084TIP3   OH254666   3.347   1.468   5.435  0.9699 -0.1655  0.3344
11084TIP3    H154667   3.345   1.441   5.527 -1.4206  2.6322  1.2715
11084TIP3    H254668   3.402   1.546   5.434  1.4369 -0.4843 -0.7487
11085TIP3   OH254669   0.420   0.024  16.552  0.3051  0.3916 -0.1505
11085TIP3    H154670   0.376   0.008  16.636  1.4719  0.3911  0.4764
11085TIP3    H254671   0.363  -0.018  16.487  0.6496 -1.8763  0.9014
11086TIP3   OH254672   4.267   4.364  14.363 -0.5181 -0.4156  0.4357
11086TIP3    H154673   4.238   4.371  14.272 -1.3202 -0.4593  0.6874
11086TIP3    H254674   4.195   4.323  14.409  0.0089 -0.6811  1.0422
11087TIP3   OH254675   2.777   1.101   2.342 -0.0623  0.3743 -0.4212
11087TIP3    H154676   2.817   1.020   2.374 -0.6312  0.5001  0.6467
11087TIP3    H254677   2.702   1.073   2.290 -1.0159  0.2184  0.9930
11088TIP3   OH254678   4.262   5.995   0.593 -0.1776 -0.2651 -0.1540
11088TIP3    H154679   4.296   6.078   0.558 -0.0881 -0.6125 -0.9145
11088TIP3    H254680   4.219   6.020   0.675  1.0490  0.3264  0.3319
11089TIP3   OH254681   3.800   4.243  13.902 -0.0776 -0.2227 -0.3744
11089TIP3    H154682   3.770   4.152  13.899 -0.5266 -0.0568 -1.4654
11089TIP3    H254683   3.761   4.284  13.825 -1.1438  1.2853  0.8837
11090TIP3   OH254684   0.579   3.153   0.740  0.5340  0.1277 -0.9926
11090TIP3    H154685   0.576   3.162   0.645  0.1646  0.2676 -0.9722
11090TIP3    H254686   0.672   3.156   0.762  0.6730 -0.7912 -1.4274
11091TIP3   OH254687   0.305   3.952   2.220  0.4106  0.0557 -0.4554
11091TIP3    H154688   0.257   3.915   2.294  1.9281  1.2757  1.2394
11091TIP3    H254689   0.397   3.936   2.242  0.9497  1.7853 -1.3312
11092TIP3   OH254690   6.192   3.986  11.286 -0.2102  0.1399 -0.3944
11092TIP3    H154691   6.169   3.980  11.379  0.2777  0.3723 -0.2503
11092TIP3    H254692   6.109   3.982  11.240 -0.5129  0.6407  0.0880
11093TIP3   OH254693   6.643   2.230   3.825 -0.9283 -0.5464 -0.2177
11093TIP3    H154694   6.698   2.252   3.901 -0.0826 -0.1428 -0.9319
11093TIP3    H254695   6.572   2.295   3.828 -0.9241 -0.5530  0.2313
11094TIP3   OH254696   0.618   3.659   2.231  0.3150  0.4896 -1.0152
11094TIP3    H154697   0.610   3.684   2.323 -1.3434 -1.1239 -0.6730
11094TIP3    H254698   0.600   3.740   2.182 -3.3624  0.4851  0.0558
11095TIP3   OH254699   0.337   5.409  13.533  0.2033  0.1652 -0.3741
11095TIP3    H154700   0.274   5.435  13.600  1.6734  0.7626  0.8118
11095TIP3    H254701   0.399   5.482  13.528  1.0245 -0.5624 -1.2640
11096TIP3   OH254702   4.037   6.443  13.961  0.2178 -1.0049 -0.1353
11096TIP3    H154703   3.945   6.415  13.959  0.3513 -1.3950 -1.7915
11096TIP3    H254704   4.077   6.402  13.884  2.1844 -2.1404  1.3891
11097TIP3   OH254705   3.006   1.409  13.021  0.2345  0.1958  0.0017
11097TIP3    H154706   3.052   1.343  13.072  1.1922  1.3136  0.6358
11097TIP3    H254707   2.974   1.472  13.086 -1.6866 -0.2106 -0.4693
11098TIP3   OH254708   0.536   2.953   1.264 -0.0001  0.0820  0.2033
11098TIP3    H154709   0.589   2.876   1.286  1.5676  1.1662  0.3796
11098TIP3    H254710   0.548   2.963   1.169  0.8839  0.8402  0.3757
11099TIP3   OH254711   4.056   3.399   1.299 -0.1300  0.2310  0.1496
11099TIP3    H154712   4.059   3.482   1.251  0.2066 -0.8488 -1.8035
11099TIP3    H254713   4.117   3.342   1.251  1.3370 -0.5225  2.7181
11100TIP3   OH254714   6.454   1.390  16.445 -0.2591  0.3493 -0.1487
11100TIP3    H154715   6.402   1.457  16.400 -1.4511 -0.1932  0.3957
11100TIP3    H254716   6.425   1.395  16.536  2.2070  1.5148  0.6621
11101TIP3   OH254717   3.086   4.299  16.259  0.2549  0.1744  0.0451
11101TIP3    H154718   3.093   4.224  16.200  0.7672 -0.3493  0.7537
11101TIP3    H254719   3.030   4.361  16.212 -1.4723 -1.2678  0.0991
11102TIP3   OH254720   1.757   1.378  12.926 -0.0236 -0.1867 -0.2319
11102TIP3    H154721   1.748   1.381  12.831 -1.1631 -0.4715 -0.1455
11102TIP3    H254722   1.829   1.317  12.941 -1.6375 -2.3854 -0.8695
11103TIP3   OH254723   6.633   0.952  14.414 -0.1965 -0.6608  0.3856
11103TIP3    H154724   6.682   0.956  14.496 -1.5526  0.9222  1.1756
11103TIP3    H254725   6.547   0.988  14.435 -0.4846  0.0970 -1.8025
11104TIP3   OH254726   1.919   5.478  11.004 -0.3708 -0.3940  0.7468
11104TIP3    H154727   1.909   5.552  11.064  1.1094 -1.3616  2.2992
11104TIP3    H254728   1.831   5.460  10.972 -1.1209  0.5554  2.1934
11105TIP3   OH254729   3.553   3.063   4.022 -0.0899 -0.3066  0.0101
11105TIP3    H154730   3.617   3.104   4.079  1.6552 -1.7724 -0.7922
11105TIP3    H254731   3.503   3.136   3.985  1.7592  0.9810 -0.0772
11106TIP3   OH254732   1.503   6.362   4.343 -0.1966 -0.0828  0.1502
11106TIP3    H154733   1.576   6.340   4.401 -0.7814 -2.5379  0.0486
11106TIP3    H254734   1.425   6.345   4.396 -0.7264  0.1692 -0.5418
11107TIP3   OH254735   3.879   5.857  10.196  0.3296  0.1949  0.0087
11107TIP3    H154736   3.895   5.940  10.151  0.9708  0.1060  0.0623
11107TIP3    H254737   3.955   5.846  10.253  0.0647 -0.2456  0.2798
11108TIP3   OH254738   3.544   5.517  11.192 -0.5343  0.3159  0.3578
11108TIP3    H154739   3.628   5.494  11.153 -0.5498  0.9662 -0.0639
11108TIP3    H254740   3.509   5.586  11.136 -1.0228  0.5494  0.9389
11109TIP3   OH254741   1.963   5.579   2.771  0.2269 -0.8919  0.1029
11109TIP3    H154742   1.967   5.672   2.748 -0.3207 -0.7621  0.5033
11109TIP3    H254743   1.899   5.575   2.842  0.6469 -1.5072  0.4494
11110TIP3   OH254744   3.625   4.696  11.493  0.4661 -0.0611 -0.1962
11110TIP3    H154745   3.686   4.637  11.538 -1.3686 -2.4806 -0.6319
11110TIP3    H254746   3.570   4.730  11.563 -1.2892 -2.4810 -0.2627
11111TIP3   OH254747   1.330   6.887  11.045 -0.1811  0.1525  0.1140
11111TIP3    H154748   1.324   6.882  10.950  2.3624  1.0939 -0.1705
11111TIP3    H254749   1.335   6.980  11.064  2.0714 -0.0549  0.8702
11112TIP3   OH254750   3.594   4.283   3.596 -0.1621  0.0995  0.2389
11112TIP3    H154751   3.625   4.362   3.551  0.0700  0.3808  0.8735
11112TIP3    H254752   3.655   4.214   3.569 -1.3252 -0.2734 -1.6254
11113TIP3   OH254753   0.523   3.028   3.194  0.3532 -0.3418 -0.7581
11113TIP3    H154754   0.520   3.121   3.170 -1.3204 -0.4830 -1.2508
11113TIP3    H254755   0.600   2.994   3.150 -0.2850  0.3519 -2.4951
11114TIP3   OH254756   3.580   6.273   4.699  0.2652  0.5671  0.3810
11114TIP3    H154757   3.625   6.203   4.745  0.1944  1.1507  1.3603
11114TIP3    H254758   3.593   6.350   4.753 -0.5910  1.0842 -0.1168
11115TIP3   OH254759   0.999   3.725   1.609  0.6576  0.3365  0.3457
11115TIP3    H154760   0.920   3.681   1.640  0.9414 -1.9441 -1.8807
11115TIP3    H254761   0.966   3.794   1.551  0.2945  1.0293  1.3376
11116TIP3   OH254762   0.337   3.001  14.256 -0.3885  0.3486 -0.2688
11116TIP3    H154763   0.278   2.946  14.307 -0.8412 -0.2654 -1.4128
11116TIP3    H254764   0.423   2.960  14.266 -0.6554 -0.3684 -0.8028
11117TIP3   OH254765   0.924   1.816  10.854 -0.3654  0.5351 -0.0468
11117TIP3    H154766   0.924   1.721  10.867 -0.4647  0.3590 -1.1975
11117TIP3    H254767   0.929   1.827  10.759 -0.9254  1.6770  0.0341
11118TIP3   OH254768   0.327   4.248   0.786  0.1013  0.3661 -0.2084
11118TIP3    H154769   0.344   4.341   0.769  2.5122 -0.1003 -0.5677
11118TIP3    H254770   0.382   4.226   0.861  1.1608 -1.2387 -1.3916
11119TIP3   OH254771   1.316   1.957  15.632  0.1708  0.1393 -0.5299
11119TIP3    H154772   1.254   2.005  15.577 -0.8710 -0.8636 -0.2768
11119TIP3    H254773   1.311   1.867  15.599  0.9720 -0.0894 -0.0380
11120TIP3   OH254774   4.244   2.993   0.614 -0.1355  0.0392 -0.0572
11120TIP3    H154775   4.159   2.949   0.610 -1.1632  1.9638 -0.7662
11120TIP3    H254776   4.263   3.018   0.524  0.4128  0.9786  0.2951
11121TIP3   OH254777   6.464   4.785  16.388  0.2111  0.4631  0.1042
11121TIP3    H154778   6.510   4.852  16.338  0.3300  0.1181 -0.2612
11121TIP3    H254779   6.389   4.830  16.427 -0.0014  0.7022 -0.5572
11122TIP3   OH254780   3.083   3.070   0.595  0.2610  0.3033  0.5045
11122TIP3    H154781   2.999   3.097   0.557  0.1419 -0.2245  0.3828
11122TIP3    H254782   3.072   3.084   0.689 -0.1574 -0.2701  0.5458
11123TIP3   OH254783   6.604   5.480   2.974 -0.4619 -0.2178  0.2078
11123TIP3    H154784   6.583   5.394   2.936  1.7670 -0.1340 -1.3895
11123TIP3    H254785   6.682   5.464   3.027  0.3034  0.9022 -0.5537
11124TIP3   OH254786   0.994   5.354  14.607 -0.3868 -0.2922  0.2571
11124TIP3    H154787   0.934   5.362  14.682  0.5093  3.8830  0.7590
11124TIP3    H254788   1.069   5.409  14.630  0.4231  0.3240 -3.2644
11125TIP3   OH254789   5.154   5.180  11.571  0.6742  0.0404 -0.5966
11125TIP3    H154790   5.145   5.123  11.647  2.9463 -2.0286 -1.7349
11125TIP3    H254791   5.132   5.267  11.603  2.0166 -0.6550  2.5626
11126TIP3   OH254792   0.500   3.324   4.330 -0.1704 -0.0807 -0.4557
11126TIP3    H154793   0.412   3.321   4.366  0.2939  0.6121  0.8222
11126TIP3    H254794   0.512   3.239   4.288 -0.9566 -0.7267  0.5655
11127TIP3   OH254795   0.531   3.064  14.753 -0.3027 -0.1675 -0.0063
11127TIP3    H154796   0.578   3.052  14.836 -2.8515  0.9244  1.7296
11127TIP3    H254797   0.548   3.155  14.728 -1.0204  0.0705  0.3460
11128TIP3   OH254798   5.316   4.798   0.130  0.1159  0.5455 -0.2810
11128TIP3    H154799   5.231   4.799   0.086 -0.5535  0.0083  0.9306
11128TIP3    H254800   5.328   4.888   0.161 -0.5180  0.3965  0.4334
11129TIP3   OH254801   4.289   4.110  16.078 -0.8389  0.4874 -0.8600
11129TIP3    H154802   4.221   4.124  16.144 -1.9284  0.0972 -1.8636
11129TIP3    H254803   4.274   4.021  16.047  0.5645  0.1560 -0.6373
11130TIP3   OH254804   4.948   1.851  16.531 -0.3088 -0.3618  0.2996
11130TIP3    H154805   4.997   1.815  16.605 -1.6228  0.4879  1.6236
11130TIP3    H254806   5.014   1.900  16.481  0.0234  2.0552  2.8784
11131TIP3   OH254807   2.802   3.600   1.577  0.8343  0.0828 -0.1748
11131TIP3    H154808   2.721   3.624   1.623  1.8206  0.2760  1.5034
11131TIP3    H254809   2.820   3.675   1.520 -0.7395 -0.4269 -1.4367
11132TIP3   OH254810   1.401   4.208  12.461 -0.6496  0.4389  0.1524
11132TIP3    H154811   1.406   4.302  12.477  0.6353  0.6571 -1.3418
11132TIP3    H254812   1.405   4.199  12.366  1.7933 -1.1940  0.3164
11133TIP3   OH254813   0.807   0.713  12.602  0.4929  0.3488  0.1795
11133TIP3    H154814   0.879   0.774  12.618  1.0453 -0.8088  2.4902
11133TIP3    H254815   0.848   0.640  12.554  0.2995  0.7616 -0.6388
11134TIP3   OH254816   4.139   2.655  15.312 -0.4952  0.1908  0.3891
11134TIP3    H154817   4.107   2.738  15.346  1.5317  0.1210  2.8297
11134TIP3    H254818   4.125   2.593  15.383  1.3612 -0.6636  0.0796
11135TIP3   OH254819   3.204   6.804  14.064  0.1721 -0.4287 -0.0284
11135TIP3    H154820   3.278   6.833  14.118  0.2348  0.5515 -0.6250
11135TIP3    H254821   3.130   6.857  14.093 -0.3634 -1.5457  0.7037
11136TIP3   OH254822   4.159   0.280  11.484 -0.5909 -0.1644 -0.3197
11136TIP3    H154823   4.189   0.339  11.553 -0.9906 -0.9902  0.5803
11136TIP3    H254824   4.111   0.337  11.424 -2.8027  0.1811  1.6072
11137TIP3   OH254825   3.705   1.493   0.840  0.0700 -0.0615  0.0153
11137TIP3    H154826   3.685   1.480   0.932  3.6326 -0.2216  0.9064
11137TIP3    H254827   3.719   1.588   0.831 -0.1509 -0.0586 -0.3366
11138TIP3   OH254828   1.549   2.640  12.076 -0.0589  0.2482 -0.6366
11138TIP3    H154829   1.543   2.673  11.987  1.0261 -0.4420 -0.9842
11138TIP3    H254830   1.496   2.560  12.075 -1.5641  1.1870 -0.1500
11139TIP3   OH254831   1.194   2.756  11.988  0.5620 -0.3707  0.5461
11139TIP3    H154832   1.112   2.798  11.958  0.6258 -0.1159  0.7257
11139TIP3    H254833   1.179   2.663  11.973  0.3179 -0.3084  0.3776
11140TIP3   OH254834   1.122   5.287  12.959  0.1651 -0.9777  0.3910
11140TIP3    H154835   1.030   5.283  12.987 -0.1644  0.1995 -0.4380
11140TIP3    H254836   1.122   5.352  12.889  1.2889 -2.4607 -1.0296
11141TIP3   OH254837   2.371   2.244  16.090 -0.9107  0.1352  0.4839
11141TIP3    H154838   2.289   2.285  16.061 -0.2698  1.0728 -0.0677
11141TIP3    H254839   2.389   2.284  16.175 -0.8767  0.1656  0.4622
11142TIP3   OH254840   1.281   0.474   4.824 -0.1384  0.2523  0.1699
11142TIP3    H154841   1.242   0.402   4.874 -2.1670  0.8726 -0.4258
11142TIP3    H254842   1.295   0.437   4.736  1.1339 -0.1113  0.5059
11143TIP3   OH254843   2.062   2.728   4.481 -0.0602 -0.0532  0.1363
11143TIP3    H154844   2.080   2.804   4.537 -1.5245  1.1693 -0.9526
11143TIP3    H254845   2.063   2.654   4.540  1.2093  0.8391  1.2861
11144TIP3   OH254846   2.263   0.663   0.739  0.1992 -0.1993  0.0313
11144TIP3    H154847   2.336   0.666   0.800  0.2650  0.4843 -0.0726
11144TIP3    H254848   2.206   0.594   0.773  0.1616  0.2753  0.9489
11145TIP3   OH254849   6.247   2.578   0.182 -0.4898  0.1085 -0.2776
11145TIP3    H154850   6.218   2.541   0.098  0.1736 -0.3858 -0.2994
11145TIP3    H254851   6.340   2.597   0.169 -0.2668 -0.4134  0.4845
11146TIP3   OH254852   2.813   4.547   0.478 -0.1372 -0.0549  0.0491
11146TIP3    H154853   2.745   4.583   0.535 -0.8331  0.2142 -0.9215
11146TIP3    H254854   2.809   4.452   0.493 -1.8320 -0.2212 -1.1320
11147TIP3   OH254855   2.958   6.652   4.362 -0.5440 -0.1582 -0.4129
11147TIP3    H154856   2.957   6.747   4.375 -2.4853 -0.1342 -0.4123
11147TIP3    H254857   3.037   6.635   4.312 -0.6669  1.5872 -1.2699
11148TIP3   OH254858   3.387   1.120  12.603  0.3217 -0.6035  0.3134
11148TIP3    H154859   3.459   1.147  12.659  0.2388 -0.0603  0.1626
11148TIP3    H254860   3.378   1.026  12.619  2.4025 -1.1277 -1.2046
11149TIP3   OH254861   4.863   0.364   0.992  0.1688  0.5169 -0.1321
11149TIP3    H154862   4.769   0.373   1.008  0.0223 -0.8010 -0.1525
11149TIP3    H254863   4.878   0.269   0.991  1.1664  0.6432 -2.0356
11150TIP3   OH254864   6.680   3.986   2.555 -0.0214 -0.4970  0.0733
11150TIP3    H154865   6.717   3.916   2.609  0.2040  0.8807  1.8177
11150TIP3    H254866   6.637   4.044   2.618 -0.8576  0.5453 -1.3952
11151TIP3   OH254867   4.456   1.644   2.801 -0.4926  0.3475 -0.0472
11151TIP3    H154868   4.545   1.617   2.823  0.1570  1.5021 -1.1408
11151TIP3    H254869   4.466   1.703   2.726 -2.1657  0.6434 -0.0869
11152TIP3   OH254870   3.747   0.452   1.493 -0.3842 -0.3679 -0.1827
11152TIP3    H154871   3.769   0.528   1.438 -1.3395  0.4684  0.5484
11152TIP3    H254872   3.799   0.464   1.572 -1.1017 -0.0542  0.2515
11153TIP3   OH254873   5.311   6.867  13.444  0.0831  0.1469  0.1227
11153TIP3    H154874   5.317   6.915  13.527 -0.5119  1.8252 -0.7545
11153TIP3    H254875   5.217   6.855  13.430  0.2119 -2.3815  0.8629
11154TIP3   OH254876   3.797   0.468  13.905 -0.3277  0.2521 -0.1626
11154TIP3    H154877   3.754   0.510  13.830  1.1432  1.6678 -0.2892
11154TIP3    H254878   3.797   0.535  13.973  1.0078  0.0681  0.0553
11155TIP3   OH254879   3.119   5.218  12.196  0.5967 -0.0693 -0.2174
11155TIP3    H154880   3.210   5.192  12.180  1.3558  1.5027  1.2641
11155TIP3    H254881   3.073   5.135  12.211  1.6680 -0.9215 -1.3948
11156TIP3   OH254882   4.015   5.465  10.701  0.9219 -0.3113  0.3641
11156TIP3    H154883   4.051   5.421  10.778  3.1781 -0.6767 -0.8062
11156TIP3    H254884   3.956   5.401  10.661  2.0999 -1.3004  0.1548
11157TIP3   OH254885   5.862   2.124  13.923 -0.1887  0.0555 -0.0718
11157TIP3    H154886   5.830   2.168  14.002 -0.1610 -1.8176  1.0440
11157TIP3    H254887   5.830   2.034  13.931  0.3702 -0.3421 -1.8943
11158TIP3   OH254888   1.674   3.852  13.455  0.3131  0.0445 -0.5087
11158TIP3    H154889   1.750   3.800  13.430 -0.6095 -1.7695  0.2702
11158TIP3    H254890   1.641   3.889  13.373  0.1635 -1.8019 -1.3192
11159TIP3   OH254891   3.128   6.031   5.441  0.3325  0.0032  0.3275
11159TIP3    H154892   3.041   6.015   5.477 -0.0584  1.3567  0.0015
11159TIP3    H254893   3.184   5.969   5.488 -0.9184 -1.5350 -0.0969
11160TIP3   OH254894   4.102   2.350  16.511  0.0279  0.2452  0.0536
11160TIP3    H154895   4.159   2.348  16.588  0.2930 -1.3002 -0.1533
11160TIP3    H254896   4.094   2.258  16.485 -0.7745  0.6632 -1.2437
11161TIP3   OH254897   6.414   2.583   3.409  0.1725 -1.0663 -0.1954
11161TIP3    H154898   6.321   2.588   3.432  0.3567 -1.1790  0.5678
11161TIP3    H254899   6.414   2.544   3.322 -0.7071  1.9081 -1.7011
11162TIP3   OH254900   1.764   0.105  14.038 -0.6902 -0.3045 -0.2190
11162TIP3    H154901   1.812   0.066  14.110 -0.4900  0.3506  0.0132
11162TIP3    H254902   1.831   0.121  13.971 -1.0046 -1.6305 -0.8754
11163TIP3   OH254903   4.444   4.647   4.260 -0.0032 -0.8532  0.2879
11163TIP3    H154904   4.513   4.637   4.325  1.0693  0.6367 -0.5646
11163TIP3    H254905   4.484   4.621   4.177 -0.7384 -0.8501 -0.0794
11164TIP3   OH254906   5.571   5.004  12.862  0.0679  0.3329 -0.0315
11164TIP3    H154907   5.508   5.064  12.822  0.0194  0.4955  0.2825
11164TIP3    H254908   5.586   5.040  12.949  1.8060  1.1731 -0.6459
11165TIP3   OH254909   6.857   4.517   3.941  0.1338  0.3851  0.4408
11165TIP3    H154910   6.829   4.480   3.857  0.7218  1.3358 -0.1886
11165TIP3    H254911   6.790   4.581   3.963  0.7229  1.1626 -0.0204
11166TIP3   OH254912   6.759   1.163   1.992  0.0989  0.0655 -0.4996
11166TIP3    H154913   6.669   1.185   1.968  0.2133  1.8288  0.5091
11166TIP3    H254914   6.754   1.140   2.085  0.8583  1.3930 -0.1146
11167TIP3   OH254915   3.536   4.201  11.953  0.8879 -0.4940 -0.1317
11167TIP3    H154916   3.471   4.132  11.939 -0.9199  1.3668 -1.5767
11167TIP3    H254917   3.618   4.164  11.921 -0.2575 -1.6380 -1.9491
11168TIP3   OH254918   3.417   6.375  15.508 -0.6547 -0.0255  0.5769
11168TIP3    H154919   3.418   6.300  15.448 -1.1047  0.3320  0.1126
11168TIP3    H254920   3.495   6.364  15.563  1.4734  1.1814 -1.9896
11169TIP3   OH254921   2.555   0.623  14.059 -0.3349 -0.0352 -0.1414
11169TIP3    H154922   2.516   0.687  13.999  0.4361 -0.8740 -1.6034
11169TIP3    H254923   2.508   0.541  14.041 -0.1141 -0.2937  0.4281
11170TIP3   OH254924   0.431   5.341  10.100 -0.1918 -0.5056  0.1239
11170TIP3    H154925   0.503   5.282  10.079 -0.4988 -0.5443 -0.8676
11170TIP3    H254926   0.463   5.392  10.174  1.6916  0.8852 -1.5251
11171TIP3   OH254927   0.761   4.311  13.906  0.2108 -0.5995 -0.4883
11171TIP3    H154928   0.817   4.382  13.874 -0.1274 -0.8207 -1.5963
11171TIP3    H254929   0.788   4.300  13.997 -0.0198  1.2235 -0.1542
11172TIP3   OH254930   1.063   5.379   5.569 -0.0742 -0.2986  0.9605
11172TIP3    H154931   1.159   5.387   5.571 -0.1386  0.5478  1.0877
11172TIP3    H254932   1.038   5.419   5.485 -0.4406  1.1474  1.7289
11173TIP3   OH254933   5.901   1.608  15.584 -0.1752 -0.1250 -0.3558
11173TIP3    H154934   5.914   1.513  15.589 -2.0322 -0.5297 -1.8338
11173TIP3    H254935   5.916   1.639  15.674 -0.8148 -2.0219  0.4600
11174TIP3   OH254936   0.652   4.970  14.881  0.5502 -0.2416  0.0478
11174TIP3    H154937   0.714   4.980  14.808  0.0809 -0.7783 -0.4346
11174TIP3    H254938   0.573   5.014  14.850  1.2074  2.0122  1.3526
11175TIP3   OH254939   0.872   3.994  14.164 -0.3139  0.2591 -0.0740
11175TIP3    H154940   0.954   4.043  14.163  0.2162 -0.6169 -0.9954
11175TIP3    H254941   0.849   3.983  14.072  0.3913 -2.5062  0.0031
11176TIP3   OH254942   1.616   3.083   0.680 -0.2290 -0.5892  0.0850
11176TIP3    H154943   1.627   3.002   0.629 -0.8407 -0.9814  0.5521
11176TIP3    H254944   1.613   3.053   0.771  2.2859  0.2384  0.5063
11177TIP3   OH254945   2.058   6.811  12.030 -0.1582  0.0255  0.1706
11177TIP3    H154946   1.994   6.789  11.962 -0.6342 -0.3804  0.7360
11177TIP3    H254947   2.102   6.889  11.998 -0.4540 -0.0997 -0.5528
11178TIP3   OH254948   6.436   4.306   2.540  0.3776  0.2864 -0.0840
11178TIP3    H154949   6.354   4.256   2.535 -0.7965  2.0420  0.6379
11178TIP3    H254950   6.491   4.255   2.600 -1.8184  1.0857  2.9007
11179TIP3   OH254951   3.501   2.701   1.218 -0.2418 -0.1820 -0.2197
11179TIP3    H154952   3.554   2.709   1.297 -1.2037 -1.8607  0.6361
11179TIP3    H254953   3.558   2.657   1.155  0.2173  0.3449 -0.1871
11180TIP3   OH254954   6.546   4.517  13.001 -0.2734  0.2087 -0.1328
11180TIP3    H154955   6.496   4.437  12.986 -0.6374  0.2300  0.8559
11180TIP3    H254956   6.510   4.581  12.940 -2.1070  0.4877  1.1764
11181TIP3   OH254957   1.882   6.574   2.532  0.3214 -0.0299 -0.1563
11181TIP3    H154958   1.841   6.543   2.613  0.0583 -1.1805 -0.7059
11181TIP3    H254959   1.963   6.524   2.526  0.6458  0.5066 -0.2930
11182TIP3   OH254960   2.802   1.179  11.604  0.3465 -0.4439  0.3844
11182TIP3    H154961   2.788   1.274  11.606 -0.0376 -0.5074  0.9747
11182TIP3    H254962   2.885   1.168  11.557 -0.3690  0.0869 -1.0627
11183TIP3   OH254963   3.435   6.036  15.535  0.3981  0.2033  0.3705
11183TIP3    H154964   3.463   6.111  15.588 -1.9322  1.5034 -0.1032
11183TIP3    H254965   3.473   6.052  15.448 -0.6112  1.2213  0.0963
11184TIP3   OH254966   1.628   5.933  11.125  0.5327  0.6957  0.4139
11184TIP3    H154967   1.550   5.985  11.107  0.9409  1.0959 -0.2406
11184TIP3    H254968   1.619   5.906  11.217 -1.5308 -1.2718 -0.2848
11185TIP3   OH254969   1.610   0.605  12.466  0.5198 -0.2783  0.5108
11185TIP3    H154970   1.530   0.585  12.515  0.5065 -0.4544  0.4200
11185TIP3    H254971   1.681   0.586  12.527  0.5282 -1.1738  0.2417
11186TIP3   OH254972   6.776   3.360   3.145  0.0757 -0.0633 -0.1313
11186TIP3    H154973   6.719   3.418   3.196  1.8904  1.2423  0.5134
11186TIP3    H254974   6.724   3.337   3.068 -1.0422  1.6866  0.0510
11187TIP3   OH254975   3.115   5.601   4.980  0.3096  0.1370  0.3941
11187TIP3    H154976   3.104   5.691   5.012 -0.7813  0.0792  0.2215
11187TIP3    H254977   3.209   5.585   4.985  0.2729  0.3289  3.0719
11188TIP3   OH254978   5.406   2.953  10.501 -0.7686  0.3935 -0.0782
11188TIP3    H154979   5.500   2.954  10.517 -0.5968  0.2201 -1.0256
11188TIP3    H254980   5.391   2.878  10.443 -0.9937  2.2308 -2.5953
11189TIP3   OH254981   2.097   0.513   2.353 -0.3440 -0.7195 -0.5180
11189TIP3    H154982   2.025   0.450   2.360  1.2761 -2.4521  3.1080
11189TIP3    H254983   2.166   0.464   2.307 -0.3197 -0.2022 -1.0492
11190TIP3   OH254984   5.969   0.355  13.375 -0.1821 -0.5949 -0.2184
11190TIP3    H154985   5.978   0.418  13.447 -0.4274  2.3351 -2.5666
11190TIP3    H254986   6.014   0.277  13.407  0.6644  0.8973  2.6889
11191TIP3   OH254987   1.531   1.797   2.154  0.6366  0.4064  0.6148
11191TIP3    H154988   1.612   1.745   2.156  0.2082 -0.3185 -0.2482
11191TIP3    H254989   1.493   1.779   2.068 -0.8564  0.1121  1.3059
11192TIP3   OH254990   3.477   6.310   1.336  0.1486  0.1630 -0.0880
11192TIP3    H154991   3.396   6.305   1.286  0.4312  0.5040 -0.5871
11192TIP3    H254992   3.530   6.374   1.290  0.0561  1.1942  1.1866
11193TIP3   OH254993   4.406   4.220   1.466  0.0188  0.0381 -0.1304
11193TIP3    H154994   4.429   4.308   1.437 -2.0566  0.2712 -1.2848
11193TIP3    H254995   4.378   4.175   1.386  0.6276 -1.5489  0.5061
11194TIP3   OH254996   6.222   2.395   2.170  0.1291 -0.1816  0.1361
11194TIP3    H154997   6.192   2.304   2.169 -2.1303  0.5093  0.5763
11194TIP3    H254998   6.184   2.434   2.091 -0.2695  0.7567  0.7705
11195TIP3   OH254999   3.506   0.578  11.331  0.5658 -0.2616  0.2594
11195TIP3    H155000   3.500   0.487  11.303 -0.8633  0.3942 -1.8586
11195TIP3    H255001   3.448   0.584  11.407 -1.5366 -0.6278 -1.2238
11196TIP3   OH255002   3.718   4.210   2.741  0.4507  0.0094 -0.0425
11196TIP3    H155003   3.801   4.165   2.724  0.6452  0.5951 -0.7042
11196TIP3    H255004   3.691   4.245   2.656 -1.1347 -1.2347 -0.0946
11197TIP3   OH255005   6.374   2.691   2.908 -0.0867  0.1079 -0.4091
11197TIP3    H155006   6.323   2.772   2.913  0.5456  0.4736  4.5618
11197TIP3    H255007   6.383   2.663   2.999  1.2110 -4.6974 -1.7614
11198TIP3   OH255008   0.078   4.890  12.465 -0.4897 -0.2309  0.2526
11198TIP3    H155009   0.171   4.902  12.445 -0.4005  0.1349  0.8583
11198TIP3    H255010   0.077   4.839  12.547 -0.7837  1.2736  1.2224
11199TIP3   OH255011   2.289   5.404   1.622 -0.2765 -0.5348  0.5165
11199TIP3    H155012   2.347   5.370   1.690  0.6962 -2.2855 -1.0708
11199TIP3    H255013   2.293   5.499   1.632  3.2328 -0.5067  0.2872
11200TIP3   OH255014   2.628   2.781  11.967  0.6382 -0.2888  0.5411
11200TIP3    H155015   2.584   2.751  11.887 -0.7761 -0.9346  1.5406
11200TIP3    H255016   2.701   2.720  11.977  0.3594 -0.6945  0.1752
11201TIP3   OH255017   5.100   2.380   1.744  0.2331 -0.2354  0.0509
11201TIP3    H155018   5.030   2.373   1.809 -0.1918  0.9027 -0.2741
11201TIP3    H255019   5.159   2.308   1.766 -1.3762 -1.6671 -0.0952
11202TIP3   OH255020   3.523   3.231   0.462 -0.9393  0.1229 -0.7091
11202TIP3    H155021   3.530   3.288   0.385 -0.5187  0.8570 -0.1452
11202TIP3    H255022   3.440   3.255   0.502 -1.8068 -1.1891 -1.6316
11203TIP3   OH255023   4.550   4.972  11.611  0.2956 -0.8983  0.3962
11203TIP3    H155024   4.459   4.995  11.631  0.2457 -0.3916 -0.3524
11203TIP3    H255025   4.548   4.948  11.518  1.1645  0.4711 -0.0026
11204TIP3   OH255026   5.505   5.524  11.596  0.3584 -0.7786 -0.6745
11204TIP3    H155027   5.500   5.579  11.518  4.3926  1.4312  0.3515
11204TIP3    H255028   5.579   5.465  11.579  1.2424 -0.3418  1.3322
11205TIP3   OH255029   0.325   4.438  11.541  0.2445 -0.6317  0.1688
11205TIP3    H155030   0.388   4.511  11.541  1.4941 -1.6542 -1.1388
11205TIP3    H255031   0.292   4.435  11.631 -1.1305  2.5893 -0.0781
11206TIP3   OH255032   3.330   6.677   2.518  0.0268 -0.6008  0.4086
11206TIP3    H155033   3.243   6.669   2.479  0.0903  1.0570 -0.1694
11206TIP3    H255034   3.315   6.670   2.612 -0.5952 -1.2699  0.2673
11207TIP3   OH255035   6.317   2.902   0.895 -0.3013 -0.2031 -0.6898
11207TIP3    H155036   6.250   2.966   0.871  0.3346  0.3564 -1.0051
11207TIP3    H255037   6.394   2.928   0.846  0.7963  0.4391  1.2520
11208TIP3   OH255038   6.531   4.836  11.170  0.4204  0.0524 -0.5049
11208TIP3    H155039   6.484   4.912  11.137  1.0005  1.5619  1.9096
11208TIP3    H255040   6.613   4.835  11.120  0.6994  1.4576 -0.1172
11209TIP3   OH255041   1.316   6.812  12.779 -0.0671  0.0132 -0.2856
11209TIP3    H155042   1.377   6.881  12.753 -0.6661  0.0567 -1.6118
11209TIP3    H255043   1.359   6.771  12.855  1.0971  0.7347 -0.5198
11210TIP3   OH255044   4.941   5.393   5.382  0.0368 -0.1605  0.1914
11210TIP3    H155045   5.010   5.331   5.407 -0.2675 -0.7046 -0.2825
11210TIP3    H255046   4.943   5.461   5.449  0.7932 -0.3637  0.3773
11211TIP3   OH255047   6.408   4.730  12.752  0.2027  0.3188 -0.1223
11211TIP3    H155048   6.344   4.685  12.806  0.1989 -1.6139 -1.6368
11211TIP3    H255049   6.375   4.721  12.662  0.9664  2.1133 -0.6485
11212TIP3   OH255050   1.339   0.578   5.901  0.9243  0.3661  0.2252
11212TIP3    H155051   1.258   0.574   5.950  1.6966  0.6641  1.5642
11212TIP3    H255052   1.353   0.488   5.870  0.7117  0.0446  1.0411
11213TIP3   OH255053   0.625   4.285   4.874  0.5875 -0.2042 -0.1000
11213TIP3    H155054   0.531   4.288   4.895  0.5550 -0.5155 -0.1933
11213TIP3    H255055   0.628   4.272   4.780  0.7277  0.1923 -0.1495
11214TIP3   OH255056   4.709   3.697   1.482  0.0503  0.0920  0.4142
11214TIP3    H155057   4.671   3.636   1.545  1.0180 -0.8282  0.1521
11214TIP3    H255058   4.657   3.686   1.403 -1.8167  1.9822  1.2749
11215TIP3   OH255059   6.595   5.324   3.765 -0.0853 -0.3919 -0.4641
11215TIP3    H155060   6.674   5.373   3.789 -0.5448 -0.0989  0.4739
11215TIP3    H255061   6.550   5.380   3.702 -0.7833  0.5988  0.8536
11216TIP3   OH255062   0.098   1.004   5.748 -0.3058 -0.5171 -0.7626
11216TIP3    H155063   0.037   1.040   5.813  1.5120  0.2038  0.6266
11216TIP3    H255064   0.179   0.988   5.797  0.8181 -0.9151 -2.6539
11217TIP3   OH255065   0.752   1.825  11.319 -0.4365 -0.3274 -0.3427
11217TIP3    H155066   0.722   1.859  11.403 -0.8818 -3.0174  0.6622
11217TIP3    H255067   0.708   1.879  11.254 -0.8178  1.2058  1.1238
11218TIP3   OH255068   6.246   1.950   3.697 -0.2578  0.2588  0.1173
11218TIP3    H155069   6.177   1.998   3.651  0.0298 -0.6590 -1.3316
11218TIP3    H255070   6.327   1.974   3.651  0.0628 -0.5321  0.2549
11219TIP3   OH255071   2.809   3.842  11.054  0.3642 -0.1173  0.4200
11219TIP3    H155072   2.732   3.866  11.002 -0.6625 -1.9247  1.0175
11219TIP3    H255073   2.883   3.870  11.000 -0.6712  1.7990 -0.1121
11220TIP3   OH255074   0.038   0.419   1.628  0.4526 -0.6819  0.2344
11220TIP3    H155075   0.133   0.427   1.624  0.3924  0.0240  0.1260
11220TIP3    H255076   0.007   0.467   1.552 -0.0558  0.4506  1.1193
11221TIP3   OH255077   4.686   0.776  13.308 -0.1628  0.1316  0.7406
11221TIP3    H155078   4.696   0.804  13.217 -0.5358  1.9192  1.2230
11221TIP3    H255079   4.758   0.818  13.355 -1.1216  0.8617  1.5994
11222TIP3   OH255080   2.551   3.891  16.600 -0.8277  0.0022 -0.5366
11222TIP3    H155081   2.614   3.916  16.668 -0.8120  0.0004 -0.5510
11222TIP3    H255082   2.586   3.930  16.520  0.3674 -1.8748 -0.9890
11223TIP3   OH255083   6.510   3.413  12.685  0.6010 -0.1297  0.1112
11223TIP3    H155084   6.536   3.323  12.665 -0.1562 -0.5145  0.7656
11223TIP3    H255085   6.448   3.404  12.758  0.8202  0.9545  0.4513
11224TIP3   OH255086   1.785   5.493   0.502 -0.5903 -0.0980  0.5766
11224TIP3    H155087   1.716   5.536   0.452 -2.3818 -2.8740  0.4944
11224TIP3    H255088   1.781   5.533   0.589  0.5278  2.6212 -0.5084
11225TIP3   OH255089   5.899   5.935  11.270 -0.6364 -0.7071  0.0640
11225TIP3    H155090   5.942   5.850  11.285 -0.4750 -0.6255  0.0665
11225TIP3    H255091   5.827   5.915  11.210 -0.6499 -0.8596  0.1302
11226TIP3   OH255092   5.662   3.555  14.313  0.2120  0.1188 -0.0628
11226TIP3    H155093   5.579   3.577  14.270 -0.2744 -1.0302  0.2692
11226TIP3    H255094   5.683   3.633  14.364 -0.2638  0.7123 -0.7497
11227TIP3   OH255095   2.755   3.982  15.703  0.0737 -0.2514  0.0279
11227TIP3    H155096   2.674   3.934  15.716 -0.5111  1.3228  2.9126
11227TIP3    H255097   2.731   4.056  15.647 -0.5004  0.1633  0.8048
11228TIP3   OH255098   6.377   4.337  10.721 -0.4999 -0.1668  0.4439
11228TIP3    H155099   6.388   4.249  10.685 -0.6155 -0.8184  1.9025
11228TIP3    H255100   6.395   4.327  10.815 -0.5331  1.3655  0.6472
11229TIP3   OH255101   2.289   1.160  16.030  0.5339  0.1323  0.2085
11229TIP3    H155102   2.252   1.083  15.987  0.6554  0.0229  0.2989
11229TIP3    H255103   2.341   1.124  16.102  1.6030  0.2268 -0.4915
11230TIP3   OH255104   3.460   0.328  12.772  0.2325 -0.1970  0.5922
11230TIP3    H155105   3.482   0.412  12.732 -1.7222  0.5936  1.0539
11230TIP3    H255106   3.497   0.262  12.713 -1.0674  0.9578 -1.6069
11231TIP3   OH255107   2.534   0.438   2.082 -0.0384 -0.3108 -0.2069
11231TIP3    H155108   2.480   0.503   2.038  0.3494 -0.1423 -0.4401
11231TIP3    H255109   2.565   0.381   2.011  1.2570  0.4455 -0.2704
11232TIP3   OH255110   4.737   0.385  15.624  0.1053 -0.0792  0.0819
11232TIP3    H155111   4.730   0.415  15.533  0.2918  0.2178  0.1659
11232TIP3    H255112   4.714   0.292  15.620  2.1917 -0.6164 -0.6063
11233TIP3   OH255113   0.848   5.791  11.124  0.0063  0.1380  0.5484
11233TIP3    H155114   0.806   5.818  11.042  2.2915  0.5188 -0.6122
11233TIP3    H255115   0.814   5.852  11.190 -2.6036 -0.7701  0.1397
11234TIP3   OH255116   6.570   0.267   4.232  0.1020 -0.4352  0.0677
11234TIP3    H155117   6.593   0.265   4.325  3.0040 -0.4017 -0.5666
11234TIP3    H255118   6.502   0.200   4.223  0.3572 -1.0220  2.0642
11235TIP3   OH255119   4.783   4.426  16.504  0.4589  0.4793 -0.5373
11235TIP3    H155120   4.758   4.503  16.554  0.2951 -0.7047  1.3030
11235TIP3    H255121   4.765   4.449  16.413  0.7261  2.6984 -0.0658
11236TIP3   OH255122   3.949   1.036  14.480 -0.0186  0.5608 -0.4464
11236TIP3    H155123   3.981   0.948  14.460  2.2928  1.4089 -0.7440
11236TIP3    H255124   3.904   1.064  14.401  0.5684  0.2065 -0.9174
11237TIP3   OH255125   6.422   3.152   1.107  0.3611 -0.2021  0.0861
11237TIP3    H155126   6.329   3.140   1.086  0.2022 -0.0946  0.7025
11237TIP3    H255127   6.464   3.168   1.023 -0.0482 -1.0914 -0.3004
11238TIP3   OH255128   5.753   6.479   3.909  0.0008 -0.2703 -0.6930
11238TIP3    H155129   5.734   6.424   3.985 -0.7765 -1.8782 -1.9869
11238TIP3    H255130   5.668   6.518   3.886  0.1826  0.0153 -0.8848
11239TIP3   OH255131   1.393   5.686  16.057  0.1321  0.5400 -0.5585
11239TIP3    H155132   1.356   5.598  16.053 -1.4973  1.1567  0.0564
11239TIP3    H255133   1.388   5.710  16.150 -0.1802  1.5800 -0.8328
11240TIP3   OH255134   0.079   5.603  11.071  0.1990 -0.1703 -0.4265
11240TIP3    H155135   0.138   5.678  11.081  0.6057 -0.5305 -0.0110
11240TIP3    H255136   0.090   5.576  10.980  1.1396 -0.5921 -0.2076
11241TIP3   OH255137   4.848   0.513   3.651 -0.0945  0.4846  0.8432
11241TIP3    H155138   4.804   0.448   3.595  1.2496  0.7329 -0.5915
11241TIP3    H255139   4.780   0.577   3.672 -1.0327 -0.4960  0.8873
11242TIP3   OH255140   0.845   0.704   2.224 -0.0269  0.3050  0.0080
11242TIP3    H155141   0.782   0.634   2.243 -0.0002  0.3663  0.3220
11242TIP3    H255142   0.817   0.777   2.279  0.0459  0.4866 -0.1950
11243TIP3   OH255143   6.507   0.657  13.423  0.1437  0.7856  0.0944
11243TIP3    H155144   6.446   0.587  13.403 -1.1470  1.6401  0.9338
11243TIP3    H255145   6.593   0.623  13.395 -0.4521 -1.0702  0.4221
11244TIP3   OH255146   2.110   1.652  14.306 -0.6065 -0.1440  0.5044
11244TIP3    H155147   2.027   1.699  14.290 -0.5510  0.4869  1.8462
11244TIP3    H255148   2.168   1.720  14.341 -0.1266 -0.9711  1.3334
11245TIP3   OH255149   2.496   6.402  11.467 -0.0980 -0.5700  0.4272
11245TIP3    H155150   2.476   6.314  11.436  0.5243 -0.4538 -0.3386
11245TIP3    H255151   2.411   6.442  11.482 -0.6815  0.3519 -3.8993
11246TIP3   OH255152   0.748   3.143   2.959 -0.3326 -0.5084 -0.2632
11246TIP3    H155153   0.760   3.071   3.021 -1.2484  1.0412  1.8224
11246TIP3    H255154   0.837   3.162   2.928  0.2705 -0.9119  1.1022
11247TIP3   OH255155   4.866   0.390   2.716  0.1192  0.4136 -0.0398
11247TIP3    H155156   4.934   0.437   2.667  0.2773 -0.5259 -0.7465
11247TIP3    H255157   4.848   0.446   2.791  1.5146  0.7927  0.0412
11248TIP3   OH255158   1.774   1.836   6.497  0.2957  0.7975 -0.7175
11248TIP3    H155159   1.859   1.869   6.470 -0.2214  2.5483 -0.2946
11248TIP3    H255160   1.726   1.913   6.527 -0.5269 -0.4740  1.5258
11249TIP3   OH255161   3.872   0.124  12.059 -0.0937  0.0409  0.4018
11249TIP3    H155162   3.849   0.033  12.041  1.0181 -0.5248  1.7335
11249TIP3    H255163   3.956   0.120  12.105  0.7488  1.8243 -0.8214
11250TIP3   OH255164   3.588   6.283   2.327 -0.4981  0.1415  0.2653
11250TIP3    H155165   3.559   6.213   2.269  1.5196 -0.9141  0.4150
11250TIP3    H255166   3.616   6.353   2.269  1.1455 -0.7575 -0.0959
11251TIP3   OH255167   5.623   3.509  15.333 -0.0127  0.2825 -0.1934
11251TIP3    H155168   5.699   3.565  15.344 -0.3363  0.6344  0.3250
11251TIP3    H255169   5.614   3.464  15.418 -1.3602  1.4970  0.3555
11252TIP3   OH255170   2.817   6.311  10.952 -0.2704 -0.2218  0.4507
11252TIP3    H155171   2.821   6.218  10.933 -0.6983 -0.1632  0.0444
11252TIP3    H255172   2.770   6.349  10.877  1.7084  0.6200 -0.4574
11253TIP3   OH255173   6.895   0.608  16.287 -0.2689 -0.0676  0.6354
11253TIP3    H155174   6.800   0.599  16.299 -0.1408 -1.1735  0.9212
11253TIP3    H255175   6.933   0.562  16.361  0.5076  1.3249  1.1333
11254TIP3   OH255176   0.296   0.736   3.769  0.2995 -0.6857 -0.6860
11254TIP3    H155177   0.231   0.667   3.761 -1.3664  0.8900 -1.6859
11254TIP3    H255178   0.254   0.813   3.731  2.9487  0.3161 -1.8980
11255TIP3   OH255179   2.241   3.636   4.819 -0.1015 -0.3973 -0.1991
11255TIP3    H155180   2.161   3.627   4.871  0.7061  1.4435  1.4756
11255TIP3    H255181   2.251   3.731   4.807  2.5177 -0.4662  0.8222
11256TIP3   OH255182   4.891   2.142   3.893 -0.4810  0.3043  0.8622
11256TIP3    H155183   4.872   2.167   3.984  1.3406  1.9945  0.8473
11256TIP3    H255184   4.919   2.223   3.851 -1.7783 -0.3384 -1.4042
11257TIP3   OH255185   3.846   2.453  15.326  0.2692  0.0866  0.0384
11257TIP3    H155186   3.833   2.454  15.231  1.4449  1.8444 -0.1476
11257TIP3    H255187   3.861   2.361  15.348  1.1413 -0.1995 -1.6456
11258TIP3   OH255188   6.689   3.935  15.230 -0.2592  0.1153 -0.0755
11258TIP3    H155189   6.772   3.927  15.278  0.9620  0.6838 -1.9756
11258TIP3    H255190   6.641   4.003  15.277 -0.6946 -1.7441  2.3877
11259TIP3   OH255191   3.280   0.448  10.759 -0.0557 -0.8056  0.4324
11259TIP3    H155192   3.214   0.516  10.746 -1.4407 -2.1225  0.3266
11259TIP3    H255193   3.256   0.379  10.697  2.3425 -0.7050 -0.7252
11260TIP3   OH255194   1.588   2.898  12.655 -0.3189  0.4905 -0.6929
11260TIP3    H155195   1.673   2.921  12.618  0.3344  1.1215  1.0840
11260TIP3    H255196   1.580   2.803  12.641 -0.4662  0.7984 -3.0335
11261TIP3   OH255197   1.816   6.041  13.287 -0.5245  0.0754  0.4776
11261TIP3    H155198   1.802   6.031  13.193 -2.0002 -0.3978  0.7257
11261TIP3    H255199   1.820   6.136  13.301  2.1614  0.1709 -0.3471
11262TIP3   OH255200   4.749   5.530  15.733  0.4886  0.6205 -0.3377
11262TIP3    H155201   4.785   5.616  15.713  0.6175  0.2083 -2.0950
11262TIP3    H255202   4.818   5.469  15.708  0.2069 -0.0180  0.4022
11263TIP3   OH255203   1.481   0.613  10.903  0.7697  0.6621 -0.0835
11263TIP3    H155204   1.553   0.561  10.939 -0.4789  0.2964  1.9995
11263TIP3    H255205   1.419   0.548  10.871 -0.8209  0.7451  2.5704
11264TIP3   OH255206   1.508   6.580   3.829 -0.3749 -0.1959 -0.0005
11264TIP3    H155207   1.456   6.599   3.750  1.3422  1.5250 -0.7851
11264TIP3    H255208   1.575   6.520   3.799  0.3475  0.5474  0.0948
11265TIP3   OH255209   4.500   2.705  15.990  0.8725  0.7802 -0.3805
11265TIP3    H155210   4.512   2.687  15.897  1.2233 -1.9588  0.1055
11265TIP3    H255211   4.425   2.651  16.016  0.4929  1.8421  0.8482
11266TIP3   OH255212   1.860   0.060  15.046  0.0160  0.1822  0.4311
11266TIP3    H155213   1.768   0.070  15.067  0.4671  1.4774  1.9974
11266TIP3    H255214   1.890   0.149  15.026  1.5948  0.3699  3.0970
11267TIP3   OH255215   1.309   1.857  10.552  0.3900  0.1356  0.5020
11267TIP3    H155216   1.346   1.775  10.519  0.8818 -0.4519  2.4095
11267TIP3    H255217   1.292   1.909  10.473 -1.2954 -2.3237 -0.8981
11268TIP3   OH255218   1.829   1.774  13.547 -0.4160  0.2125  0.1824
11268TIP3    H155219   1.895   1.842  13.534 -0.5193  0.1535 -0.6637
11268TIP3    H255220   1.762   1.792  13.481 -0.3849 -0.7880 -0.1259
11269TIP3   OH255221   1.031   0.082  13.864 -0.4996  0.5581  0.3807
11269TIP3    H155222   1.101   0.017  13.857 -0.2816  0.8027  0.2565
11269TIP3    H255223   0.964   0.053  13.803 -1.0828 -0.3893  1.4295
11270TIP3   OH255224   0.546   1.432  11.578 -0.3972  0.5027  0.1538
11270TIP3    H155225   0.552   1.522  11.610 -2.1897  0.6209  0.2546
11270TIP3    H255226   0.493   1.438  11.498  0.4400 -0.3310 -0.4805
11271TIP3   OH255227   5.806   0.438  13.858  0.0412  0.3737 -0.2431
11271TIP3    H155228   5.760   0.443  13.942  0.4612 -0.7563  0.0780
11271TIP3    H255229   5.880   0.498  13.867  2.7127 -2.8781  1.9584
11272TIP3   OH255230   0.766   6.772  14.769  0.2754 -0.1349  0.3266
11272TIP3    H155231   0.856   6.755  14.741  0.5955  2.8477 -0.7672
11272TIP3    H255232   0.766   6.751  14.863  2.1273 -0.0645  0.3832
11273TIP3   OH255233   5.432   6.053   3.921  0.2588  0.4480  0.5228
11273TIP3    H155234   5.357   6.009   3.881  1.0891 -0.3617 -0.1840
11273TIP3    H255235   5.398   6.084   4.005 -0.6048 -0.8085  0.6789
11274TIP3   OH255236   0.250   2.239  13.944 -0.1163 -0.0385 -0.0881
11274TIP3    H155237   0.231   2.162  13.998  1.6377  0.9291  2.0773
11274TIP3    H255238   0.178   2.242  13.882 -2.0829 -1.5110  1.9262
11275TIP3   OH255239   3.792   3.798  11.186 -0.1994 -0.4166  0.1842
11275TIP3    H155240   3.707   3.761  11.207  0.4658 -2.0961  0.1563
11275TIP3    H255241   3.773   3.875  11.133 -1.6941 -0.6800  0.3006
11276TIP3   OH255242   2.409   2.476   3.039 -0.5952 -0.2233  0.0917
11276TIP3    H155243   2.385   2.393   3.081 -2.0474  0.9561  1.7706
11276TIP3    H255244   2.501   2.464   3.014 -0.1835 -1.7123  1.9829
11277TIP3   OH255245   1.916   1.658   0.349 -0.3575 -0.0547 -0.0447
11277TIP3    H155246   1.902   1.656   0.444  2.1972 -1.7124  0.3983
11277TIP3    H255247   1.978   1.730   0.336 -1.0614  0.4712 -0.5491
11278TIP3   OH255248   2.647   0.285   3.367 -0.5084  0.1079  0.1129
11278TIP3    H155249   2.563   0.241   3.370 -0.9935  1.0190  0.1826
11278TIP3    H255250   2.629   0.374   3.397  0.7434 -0.0737  1.5724
11279TIP3   OH255251   5.190   1.047   2.483 -0.3860  0.3133  0.1931
11279TIP3    H155252   5.274   1.089   2.502 -0.9149  1.3426  0.3053
11279TIP3    H255253   5.135   1.069   2.558 -1.3445  1.2797 -0.7623
11280TIP3   OH255254   1.117   1.008  14.540  0.6866  0.0047 -0.0424
11280TIP3    H155255   1.050   0.955  14.583  2.2142 -2.3141 -0.3452
11280TIP3    H255256   1.148   1.068  14.608 -1.2649  0.7779  0.2355
11281TIP3   OH255257   0.378   6.697   5.028  0.5516  0.4392 -0.4919
11281TIP3    H155258   0.285   6.677   5.019  0.5353 -0.4401  1.1550
11281TIP3    H255259   0.382   6.793   5.027 -0.6326  0.5603  1.1146
11282TIP3   OH255260   4.584   5.516  13.845  0.3518 -0.2676 -0.1023
11282TIP3    H155261   4.582   5.582  13.914  1.6153 -0.7027  0.3663
11282TIP3    H255262   4.635   5.556  13.775  0.8997 -0.6338  0.0800
11283TIP3   OH255263   4.994   2.925  11.532  0.0811 -0.2838 -0.2172
11283TIP3    H155264   4.936   2.997  11.506  0.5762  1.1997  2.4018
11283TIP3    H255265   4.959   2.894  11.615  1.8487 -0.7363  0.4145
11284TIP3   OH255266   0.832   6.279  12.076  0.0493 -0.7942 -0.7614
11284TIP3    H155267   0.896   6.294  12.146 -2.0344  1.1857  0.8930
11284TIP3    H255268   0.803   6.189  12.089  1.4504 -1.2491 -0.6593
11285TIP3   OH255269   1.468   2.208   2.958  0.0054  0.3541  0.1147
11285TIP3    H155270   1.472   2.210   3.054  0.7491  1.0893  0.0826
11285TIP3    H255271   1.479   2.300   2.932 -0.8997  0.2586 -0.6581
11286TIP3   OH255272   6.091   0.222  15.757 -0.3442  0.7595  0.1027
11286TIP3    H155273   6.028   0.294  15.748  1.2085  2.0913 -0.6001
11286TIP3    H255274   6.141   0.244  15.837  0.3044  0.6160 -0.2599
11287TIP3   OH255275   4.759   5.561  10.663  0.0077 -0.1267 -0.5073
11287TIP3    H155276   4.835   5.568  10.720  0.1178 -0.4672 -0.6114
11287TIP3    H255277   4.770   5.478  10.617 -1.2759 -1.0340  0.7239
11288TIP3   OH255278   2.796   5.111   3.672  0.1316  0.3504 -0.3829
11288TIP3    H155279   2.708   5.128   3.705 -0.3964  1.2252 -2.1230
11288TIP3    H255280   2.854   5.145   3.739 -0.8958  4.1598 -1.2176
11289TIP3   OH255281   6.124   4.386  14.721 -0.0779 -0.0332  0.2935
11289TIP3    H155282   6.200   4.395  14.779 -0.2824 -0.0561  0.5662
11289TIP3    H255283   6.088   4.300  14.741 -0.4124  0.1416  0.4523
11290TIP3   OH255284   5.369   0.154   0.948  0.0652  0.1237 -0.4346
11290TIP3    H155285   5.448   0.206   0.956  0.5457 -0.6699  0.1370
11290TIP3    H255286   5.400   0.065   0.930 -0.7023 -0.1392 -0.5219
11291TIP3   OH255287   2.379   0.555  14.653  0.8966  0.4543 -0.2533
11291TIP3    H155288   2.335   0.576  14.570  2.3251 -0.4236 -1.2822
11291TIP3    H255289   2.470   0.541  14.629  1.8573  2.4964  1.8562
11292TIP3   OH255290   6.135   6.013  11.138  0.0461  0.3664  0.2873
11292TIP3    H155291   6.123   6.004  11.043  0.6596  1.6243  0.0715
11292TIP3    H255292   6.049   5.991  11.175 -0.2044 -0.1328 -0.5474
11293TIP3   OH255293   4.267   5.627  12.037 -0.1621 -0.2355 -0.0137
11293TIP3    H155294   4.291   5.666  12.121  2.4404  0.7563 -1.1166
11293TIP3    H255295   4.177   5.657  12.021  0.6599  2.8418  0.6358
11294TIP3   OH255296   5.374   1.335   3.991  0.1605 -0.0152  0.4774
11294TIP3    H155297   5.369   1.259   3.932 -0.5555  1.3484 -1.2970
11294TIP3    H255298   5.430   1.397   3.945 -2.1211  1.9458  0.1262
11295TIP3   OH255299   5.300   2.512  11.205 -0.4842  0.7111  0.7513
11295TIP3    H155300   5.280   2.436  11.150  0.4800  0.9250  0.0740
11295TIP3    H255301   5.358   2.477  11.272  0.7985  1.0254 -0.1637
11296TIP3   OH255302   2.855   3.400  12.273 -0.0257  0.4348  0.3344
11296TIP3    H155303   2.917   3.333  12.302 -1.1474 -1.6528 -1.7905
11296TIP3    H255304   2.904   3.450  12.207 -0.1759 -0.3639 -0.3907
11297TIP3   OH255305   2.593   5.554   1.657 -1.2526 -0.3555  0.0398
11297TIP3    H155306   2.511   5.603   1.657 -1.8752 -1.3487  1.0442
11297TIP3    H255307   2.657   5.614   1.694 -2.0090 -0.2879  1.2907
11298TIP3   OH255308   6.853   4.624  15.100  0.1861 -0.6460 -0.5591
11298TIP3    H155309   6.923   4.601  15.038 -0.6871 -1.5258 -1.2353
11298TIP3    H255310   6.783   4.563  15.081 -1.3309  1.0837 -0.8296
11299TIP3   OH255311   0.116   4.370   1.049  0.3113  0.4479 -0.6578
11299TIP3    H155312   0.185   4.437   1.044  0.2926  0.6514  1.1334
11299TIP3    H255313   0.061   4.387   0.973 -0.4310  3.3494  0.3983
11300TIP3   OH255314   1.589   4.552  14.683  0.1952 -0.7044  0.5156
11300TIP3    H155315   1.521   4.486  14.668  2.4165 -3.2414  0.6397
11300TIP3    H255316   1.542   4.631  14.709 -2.6168 -2.6126  1.7111
11301TIP3   OH255317   2.073   1.592   2.612 -0.2151  0.0579  0.3230
11301TIP3    H155318   2.113   1.679   2.602  0.5608 -0.1296  1.5942
11301TIP3    H255319   2.146   1.535   2.638 -0.0680 -1.6401 -3.1296
11302TIP3   OH255320   4.398   2.239  16.073  0.2357  0.4486  0.3278
11302TIP3    H155321   4.358   2.168  16.123 -1.7708  1.4238  0.2520
11302TIP3    H255322   4.443   2.196  16.000 -2.0566 -0.7491 -0.4993
11303TIP3   OH255323   1.141   3.231  15.709 -0.2063 -0.4596  0.4376
11303TIP3    H155324   1.188   3.180  15.644 -2.3634  0.1867 -1.7910
11303TIP3    H255325   1.148   3.181  15.790  2.6015 -1.2838 -0.2376
11304TIP3   OH255326   2.645   5.166  13.761  0.4003  1.0210  0.1496
11304TIP3    H155327   2.641   5.130  13.850  0.2076  0.1112 -0.2240
11304TIP3    H255328   2.712   5.234  13.766  1.6342 -0.2008  0.5769
11305TIP3   OH255329   3.855   0.212   3.544  0.0980 -0.1529  0.6655
11305TIP3    H155330   3.824   0.183   3.629 -1.2557  1.0929  0.6263
11305TIP3    H255331   3.819   0.300   3.533  0.3333 -0.2362 -1.1511
11306TIP3   OH255332   4.927   4.193  14.421 -0.1911 -0.2212  0.2142
11306TIP3    H155333   4.938   4.288  14.416 -3.8264  0.3387  0.2824
11306TIP3    H255334   4.959   4.169  14.508  0.3710  0.9959  0.3585
11307TIP3   OH255335   6.491   6.257  11.186 -0.1383 -0.1989 -0.2476
11307TIP3    H155336   6.410   6.259  11.239  0.3856 -0.6373  0.5929
11307TIP3    H255337   6.492   6.341  11.142  0.3905  1.0614  1.9914
11308TIP3   OH255338   2.073   4.591   4.045  0.1197  0.4060  0.0609
11308TIP3    H155339   2.061   4.658   4.113 -3.1119 -0.0565  0.1047
11308TIP3    H255340   2.067   4.508   4.092 -0.7176  0.0919 -0.5724
11309TIP3   OH255341   4.308   5.317   2.235 -0.1111  0.7601 -0.7110
11309TIP3    H155342   4.285   5.244   2.292 -1.2591  2.3423  0.9976
11309TIP3    H255343   4.382   5.359   2.278 -0.4849  1.5203 -0.7904
11310TIP3   OH255344   1.170   4.814  10.138  0.1299 -0.0887 -0.0392
11310TIP3    H155345   1.105   4.801  10.208  0.9812  0.6985  0.9219
11310TIP3    H255346   1.163   4.907  10.116  1.4031  0.1748  0.5831
11311TIP3   OH255347   0.102   5.344   3.335 -0.6453  0.0601  0.1859
11311TIP3    H155348   0.041   5.323   3.405 -1.9932 -1.5740 -1.3779
11311TIP3    H255349   0.046   5.360   3.258  0.7918  1.2392 -0.6794
11312TIP3   OH255350   2.201   6.128   5.644 -0.1042 -0.6624  0.1154
11312TIP3    H155351   2.201   6.058   5.709  0.8066  0.3613  1.2779
11312TIP3    H255352   2.226   6.207   5.694  1.9514 -0.0693 -1.6716
11313TIP3   OH255353   2.394   6.290   4.469  0.7766  0.2573  0.4826
11313TIP3    H155354   2.393   6.196   4.484  0.0628  0.1846  0.0605
11313TIP3    H255355   2.413   6.328   4.555  4.1788 -0.3153  0.1284
11314TIP3   OH255356   6.598   6.150  13.023 -0.6286  0.9097 -0.1348
11314TIP3    H155357   6.611   6.063  12.984 -1.5351  0.8569 -0.3412
11314TIP3    H255358   6.520   6.184  12.980  0.3760  2.3311 -0.9046
11315TIP3   OH255359   1.519   4.017  13.274  0.4103 -0.3178  0.1430
11315TIP3    H155360   1.454   4.013  13.343 -0.0810 -0.8755 -0.3356
11315TIP3    H255361   1.516   4.108  13.243  1.9757  0.4565  2.0799
11316TIP3   OH255362   3.854   4.257   1.744  0.2589  0.0753 -0.0483
11316TIP3    H155363   3.810   4.172   1.749 -0.3946  0.3693 -0.5542
11316TIP3    H255364   3.815   4.309   1.814 -0.6045  0.4967 -0.8019
11317TIP3   OH255365   2.923   4.535  11.812 -1.1202 -0.3225 -0.0229
11317TIP3    H155366   2.939   4.455  11.762 -0.4454  0.6001 -1.3249
11317TIP3    H255367   2.986   4.532  11.884 -0.9736 -0.8703 -0.1743
11318TIP3   OH255368   4.486   2.366   4.491 -0.5630  0.2680  0.3396
11318TIP3    H155369   4.544   2.315   4.547  0.1305 -0.4094 -0.9405
11318TIP3    H255370   4.523   2.455   4.493  0.1113  0.0002  0.0971
11319TIP3   OH255371   6.567   1.787   1.107 -0.0015 -0.0805 -0.0940
11319TIP3    H155372   6.643   1.780   1.164 -0.1581  0.4032  0.1816
11319TIP3    H255373   6.538   1.697   1.093  0.0137 -0.1953  0.6203
11320TIP3   OH255374   5.743   0.138  11.150  0.5654 -0.0593 -0.1446
11320TIP3    H155375   5.825   0.187  11.158  0.7472 -0.2478 -0.8216
11320TIP3    H255376   5.709   0.160  11.064 -0.0167 -0.1184  0.0639
11321TIP3   OH255377   5.235   1.813   0.583  0.7304 -0.2137 -0.1037
11321TIP3    H155378   5.163   1.811   0.645  1.2701  0.3360  0.5509
11321TIP3    H255379   5.312   1.790   0.635  1.3030  0.9894 -0.3980
11322TIP3   OH255380   2.241   2.493   5.495  0.1515 -0.0114 -0.3504
11322TIP3    H155381   2.191   2.536   5.564  1.4820  3.7502 -1.5181
11322TIP3    H255382   2.298   2.432   5.541 -1.1887  0.0606  1.5061
11323TIP3   OH255383   0.362   3.161  15.224  0.2764  0.3263 -0.3417
11323TIP3    H155384   0.432   3.099  15.204  0.6401  0.2528  1.0856
11323TIP3    H255385   0.406   3.245  15.234  0.2756  0.1635  1.1982
11324TIP3   OH255386   4.579   2.737  13.523  0.1717  0.1976 -0.6434
11324TIP3    H155387   4.624   2.656  13.549  0.7682  0.9179  0.6284
11324TIP3    H255388   4.488   2.710  13.511  0.2846 -0.5930  0.1384
11325TIP3   OH255389   6.840   0.816   5.096  0.0143  0.0827 -0.4139
11325TIP3    H155390   6.925   0.848   5.127  0.4580 -1.1201 -0.3453
11325TIP3    H255391   6.779   0.840   5.165  0.2842  0.9714 -0.4707
11326TIP3   OH255392   6.120   3.331   4.064  0.5777 -0.2108  0.0802
11326TIP3    H155393   6.048   3.392   4.054  0.5947 -0.6143 -4.1007
11326TIP3    H255394   6.080   3.252   4.100 -0.5400  0.3998  0.2064
11327TIP3   OH255395   0.258   0.560   4.575 -0.5591  0.1552 -0.4615
11327TIP3    H155396   0.183   0.617   4.595 -3.0706 -2.6746 -1.1117
11327TIP3    H255397   0.290   0.532   4.661 -0.6420  0.8831 -0.1863
11328TIP3   OH255398   5.621   2.842   0.638  0.5994  0.2911  0.3367
11328TIP3    H155399   5.545   2.785   0.630  0.9043 -0.2424  1.1308
11328TIP3    H255400   5.593   2.925   0.598  0.4172 -0.6260 -1.5331
11329TIP3   OH255401   5.231   5.456  10.829  0.0048  0.3099  0.9930
11329TIP3    H155402   5.246   5.505  10.748  0.3363 -0.0832  0.8070
11329TIP3    H255403   5.316   5.457  10.873  0.1694 -0.5314  0.7293
11330TIP3   OH255404   4.583   3.472   0.603  0.0579  0.5534 -0.0912
11330TIP3    H155405   4.615   3.556   0.634 -1.9786  1.5755 -0.5970
11330TIP3    H255406   4.497   3.462   0.645  0.6689 -1.7775  0.7712
11331TIP3   OH255407   5.899   1.562   4.454  0.0469  0.2555  0.1072
11331TIP3    H155408   5.874   1.470   4.459 -1.5003  0.6558  0.4599
11331TIP3    H255409   5.974   1.570   4.513 -1.0746 -0.4078  1.7066
11332TIP3   OH255410   0.968   1.843   1.654  1.0941  0.1908 -0.2443
11332TIP3    H155411   0.945   1.821   1.564  1.1845  0.3098 -0.2969
11332TIP3    H255412   0.982   1.938   1.653 -1.5158  0.6677  0.4375
11333TIP3   OH255413   4.708   1.849  14.056 -0.2225  0.1853 -0.3762
11333TIP3    H155414   4.801   1.872  14.058 -0.2012  0.1129 -0.5188
11333TIP3    H255415   4.681   1.850  14.148  0.0825 -0.4728 -0.2713
11334TIP3   OH255416   1.733   3.939  14.363  0.3333 -0.3370  0.3543
11334TIP3    H155417   1.744   4.004  14.432 -2.0744 -1.6535  2.1314
11334TIP3    H255418   1.638   3.935  14.349  0.5546 -2.0997 -1.0550
11335TIP3   OH255419   5.920   3.108  10.730  0.0777  0.5623  0.7250
11335TIP3    H155420   5.882   3.147  10.808  1.3913  2.7457  0.3660
11335TIP3    H255421   6.010   3.086  10.755 -0.3223 -1.4539  0.6112
11336TIP3   OH255422   3.776   5.338   4.961 -0.3962 -0.3755 -0.6621
11336TIP3    H155423   3.738   5.262   4.917 -1.3139  0.2497 -0.9848
11336TIP3    H255424   3.839   5.302   5.023 -1.5973 -1.4605 -0.0330
11337TIP3   OH255425   0.884   6.862   5.599 -0.3336 -0.0485  0.4314
11337TIP3    H155426   0.821   6.815   5.653 -0.6240  2.1576  2.1966
11337TIP3    H255427   0.967   6.816   5.613 -0.8297 -0.7579  1.1106
11338TIP3   OH255428   4.655   1.460  13.306  0.0124 -0.0901 -0.4379
11338TIP3    H155429   4.672   1.370  13.277 -0.3775 -0.3505  0.1259
11338TIP3    H255430   4.736   1.507  13.288  0.0872 -0.4577 -1.1075
11339TIP3   OH255431   4.425   2.854   5.242 -0.5178 -0.0197 -0.1191
11339TIP3    H155432   4.345   2.803   5.229 -0.7789 -0.3781  2.4634
11339TIP3    H255433   4.494   2.798   5.207 -1.1186 -0.8051 -0.0802
11340TIP3   OH255434   2.274   3.034   1.256  0.8149  0.3007  0.5562
11340TIP3    H155435   2.297   2.950   1.219 -1.3722  0.6563 -1.8800
11340TIP3    H255436   2.297   3.098   1.189  0.4477  1.4391  1.4646
11341TIP3   OH255437   3.871   6.107  10.940  0.4354  0.0706  0.2312
11341TIP3    H155438   3.902   6.191  10.976  0.0655 -0.1651  1.1027
11341TIP3    H255439   3.948   6.051  10.942  0.6215  0.3017 -0.1247
11342TIP3   OH255440   4.745   5.125   4.495 -0.3277 -0.4877 -0.5736
11342TIP3    H155441   4.776   5.155   4.581 -1.0397 -0.4735 -0.3180
11342TIP3    H255442   4.731   5.206   4.446 -0.4970 -0.4707 -0.4989
11343TIP3   OH255443   3.675   0.741   3.644  0.1389  0.2334  0.0184
11343TIP3    H155444   3.595   0.750   3.695  1.0086  0.8623  1.3314
11343TIP3    H255445   3.740   0.794   3.691  1.6463 -1.2339 -0.3120
11344TIP3   OH255446   5.661   0.511  15.495  0.2540  0.4558 -0.0842
11344TIP3    H155447   5.663   0.606  15.507 -2.9179  0.7112 -0.7389
11344TIP3    H255448   5.736   0.493  15.438 -0.5134  2.9503 -2.0493
11345TIP3   OH255449   1.868   2.049   5.631 -0.0833 -0.0137  0.5130
11345TIP3    H155450   1.887   2.141   5.654  0.3113 -0.1418  0.7197
11345TIP3    H255451   1.953   2.014   5.605  0.1455 -0.8045  2.1562
11346TIP3   OH255452   1.599   0.957  13.746 -0.6796 -0.2657 -0.4094
11346TIP3    H155453   1.679   0.976  13.796 -2.2396  0.3312  1.9846
11346TIP3    H255454   1.558   0.885  13.793 -2.7502  1.0136 -0.1383
11347TIP3   OH255455   3.792   6.176  12.903 -1.3727 -0.0323  0.2906
11347TIP3    H155456   3.718   6.139  12.854 -2.3889 -0.1305  1.8373
11347TIP3    H255457   3.784   6.137  12.990  1.2770 -1.0656  0.1545
11348TIP3   OH255458   1.995   1.795   4.538 -0.7315 -0.1193 -0.1044
11348TIP3    H155459   1.978   1.727   4.471 -1.5627 -1.4575  1.3900
11348TIP3    H255460   1.982   1.877   4.492  1.8686 -0.8535 -2.4272
11349TIP3   OH255461   0.704   5.686   0.069  0.2410 -0.3425 -0.5844
11349TIP3    H155462   0.724   5.737   0.148  0.5661  0.4455 -1.1647
11349TIP3    H255463   0.737   5.599   0.088 -0.7025 -0.4634  0.5925
11350TIP3   OH255464   1.117   4.455  15.596  0.0945 -0.0834  0.1678
11350TIP3    H155465   1.061   4.385  15.630 -0.2534  0.6207  1.0665
11350TIP3    H255466   1.060   4.531  15.589 -0.2223 -0.5029 -3.3522
11351TIP3   OH255467   4.085   3.077   2.670  0.8745  0.5320 -0.1808
11351TIP3    H155468   4.124   3.086   2.583 -0.7092  0.1203 -0.9582
11351TIP3    H255469   4.015   3.141   2.673 -0.2813 -0.6993  0.0878
11352TIP3   OH255470   4.144   0.447   1.445 -0.5041 -0.4130 -0.1374
11352TIP3    H155471   4.082   0.397   1.392 -0.7166 -1.7718  1.3142
11352TIP3    H255472   4.155   0.395   1.525  2.3182 -0.1059 -0.2196
11353TIP3   OH255473   1.756   5.156  14.069  0.4422  0.0331  0.0495
11353TIP3    H155474   1.727   5.072  14.034  0.4277  0.2222 -0.4096
11353TIP3    H255475   1.687   5.217  14.043  1.1311  0.4531 -0.8804
11354TIP3   OH255476   6.265   2.191  12.263 -0.3430  0.0095  0.0529
11354TIP3    H155477   6.176   2.162  12.284 -1.0149  2.1690  0.4558
11354TIP3    H255478   6.314   2.181  12.344 -1.1296  1.8583  0.8197
11355TIP3   OH255479   4.701   3.529  15.108  0.1285  0.2360  0.3516
11355TIP3    H155480   4.736   3.618  15.112  1.1416 -0.1785  0.8868
11355TIP3    H255481   4.647   3.521  15.187 -1.1488  0.8333 -0.4150
11356TIP3   OH255482   6.164   6.152  16.699 -0.0955 -0.4589  0.2178
11356TIP3    H155483   6.069   6.147  16.684 -0.2199  1.6303  0.0120
11356TIP3    H255484   6.197   6.205  16.626  1.2466 -1.1226  0.3063
11357TIP3   OH255485   4.105   6.667   2.474  0.4998 -0.1089 -0.7943
11357TIP3    H155486   4.134   6.626   2.392  0.9359  0.0807 -0.7361
11357TIP3    H255487   4.184   6.670   2.528  0.0708 -0.8448 -0.1062
11358TIP3   OH255488   5.836   3.209   4.964 -0.7783  0.0642 -0.1236
11358TIP3    H155489   5.799   3.296   4.947 -0.9031 -0.2438 -1.6193
11358TIP3    H255490   5.930   3.222   4.960 -0.7840  0.2239  0.2095
11359TIP3   OH255491   2.068   3.742  11.174  0.1288 -0.4226  0.7710
11359TIP3    H155492   2.026   3.670  11.222  1.2166 -2.4652 -1.1770
11359TIP3    H255493   2.147   3.703  11.137  0.6491  1.7529 -0.5393
11360TIP3   OH255494   6.677   6.461   0.254  0.3200  0.6143  0.3921
11360TIP3    H155495   6.765   6.467   0.291  0.0770  0.1990  1.0564
11360TIP3    H255496   6.656   6.367   0.258  0.2335  0.5799 -0.6865
11361TIP3   OH255497   6.770   1.918   5.219  0.0035  0.4759  0.5387
11361TIP3    H155498   6.733   1.992   5.267  1.1151  1.1414  0.3938
11361TIP3    H255499   6.766   1.845   5.281 -1.8020  0.4382  0.4242
11362TIP3   OH255500   0.643   5.443  10.908  0.3590  0.1715  0.0483
11362TIP3    H155501   0.646   5.456  11.003  1.5906 -0.5146  0.1185
11362TIP3    H255502   0.566   5.494  10.880 -1.2883 -1.2627  1.6584
11363TIP3   OH255503   1.200   4.140  11.280  0.5025 -0.1821 -0.3329
11363TIP3    H155504   1.199   4.230  11.247  0.5397 -0.4836 -1.1847
11363TIP3    H255505   1.112   4.127  11.316  0.1560 -0.1385 -1.1448
11364TIP3   OH255506   1.751   5.759   5.364  0.6901 -0.1968 -0.1079
11364TIP3    H155507   1.739   5.677   5.412 -0.3171 -1.0097 -1.6579
11364TIP3    H255508   1.731   5.828   5.428  1.7324 -1.1328  1.2674
11365TIP3   OH255509   5.927   6.569  15.401  0.2812  0.1767  0.8248
11365TIP3    H155510   5.933   6.663  15.386 -0.3465 -0.0363 -1.0538
11365TIP3    H255511   5.881   6.561  15.485  0.2769  1.5355  0.9737
11366TIP3   OH255512   0.024   0.691  12.023 -0.3432 -0.4134 -0.1149
11366TIP3    H155513   0.074   0.734  12.093 -0.4815 -1.2122  0.4942
11366TIP3    H255514   0.082   0.622  11.991 -1.2181 -1.6875  0.9531
11367TIP3   OH255515   2.866   2.902   2.501  0.0253  0.6670 -0.3618
11367TIP3    H155516   2.773   2.919   2.482 -0.1142 -0.1175 -0.4122
11367TIP3    H255517   2.864   2.845   2.578  0.3473 -1.3725 -1.7712
11368TIP3   OH255518   5.079   6.227   0.672  0.9536  0.1862  0.0215
11368TIP3    H155519   5.118   6.265   0.593 -0.1386  0.2388 -0.5134
11368TIP3    H255520   5.003   6.282   0.691  1.7788  0.8139  1.7575
11369TIP3   OH255521   6.145   1.109  15.740 -0.1513 -0.4065  0.2836
11369TIP3    H155522   6.199   1.071  15.810 -1.9731 -1.1323  1.3949
11369TIP3    H255523   6.090   1.036  15.711 -1.7298  0.6860  0.4260
11370TIP3   OH255524   5.963   4.811   0.908 -0.0981  0.6441 -0.2311
11370TIP3    H155525   5.947   4.819   1.002 -0.9261  0.7630 -0.3784
11370TIP3    H255526   6.043   4.860   0.893 -1.4877  3.0904 -0.0519
11371TIP3   OH255527   3.340   6.755  12.428 -0.2979 -0.3150 -0.2394
11371TIP3    H155528   3.297   6.692  12.370  1.7150 -0.5520 -1.5969
11371TIP3    H255529   3.432   6.730  12.425  0.3261  1.7239  0.4687
11372TIP3   OH255530   3.723   2.373  14.088  0.1185 -0.5116  0.1525
11372TIP3    H155531   3.786   2.408  14.152  0.7506 -0.8782 -0.2618
11372TIP3    H255532   3.681   2.301  14.134  0.0467 -0.3095  0.4101
11373TIP3   OH255533   0.733   1.242   0.295 -0.8374 -0.0940  0.1607
11373TIP3    H155534   0.640   1.256   0.277 -0.3376  2.5837 -0.7252
11373TIP3    H255535   0.766   1.195   0.218 -1.1083  0.6391 -0.4138
11374TIP3   OH255536   6.470   5.161   2.563  0.5948  0.0026 -0.1824
11374TIP3    H155537   6.468   5.075   2.522  1.8952 -0.1105 -0.0510
11374TIP3    H255538   6.379   5.178   2.587  0.5280 -2.1431  1.4228
11375TIP3   OH255539   3.295   2.808  13.752  0.2438 -0.2683 -0.5091
11375TIP3    H155540   3.328   2.832  13.666  2.2525 -2.9684 -0.6137
11375TIP3    H255541   3.279   2.892  13.796 -1.7164  1.2181 -3.7126
11376TIP3   OH255542   1.123   5.123  14.161  0.6290  0.0631 -0.2536
11376TIP3    H155543   1.189   5.174  14.114  0.8449 -1.1304 -1.2871
11376TIP3    H255544   1.083   5.186  14.222  1.4683  1.2398 -0.8797
11377TIP3   OH255545   3.208   3.741   0.633 -1.2344  0.3047  0.0929
11377TIP3    H155546   3.224   3.694   0.715 -0.3674  0.9331  0.2960
11377TIP3    H255547   3.119   3.715   0.608 -1.3674 -0.1975  1.0288
11378TIP3   OH255548   6.192   6.412   1.975 -0.2469  0.3349 -0.2072
11378TIP3    H155549   6.114   6.410   1.920  0.4335 -0.8889 -1.1672
11378TIP3    H255550   6.215   6.320   1.988 -0.6706  0.5193  2.5859
11379TIP3   OH255551   5.766   0.845  15.138  0.0648 -0.4061 -0.2120
11379TIP3    H155552   5.825   0.805  15.073 -1.7077 -2.0299 -0.9291
11379TIP3    H255553   5.743   0.930  15.101  2.3503  0.5632  0.3794
11380TIP3   OH255554   0.516   3.629  10.364 -0.6328 -0.5191 -0.3021
11380TIP3    H155555   0.469   3.629  10.281  0.5794  1.2578 -1.0577
11380TIP3    H255556   0.602   3.592  10.342 -0.1811  0.2957  0.0638
11381TIP3   OH255557   1.492   3.823   4.754 -0.0335  0.0536 -0.3966
11381TIP3    H155558   1.552   3.795   4.685 -0.4805 -0.8309 -0.4369
11381TIP3    H255559   1.548   3.862   4.821  0.6737 -1.4332 -0.0905
11382TIP3   OH255560   3.014   0.765  13.626  0.3922  0.1642  0.2023
11382TIP3    H155561   3.090   0.811  13.660 -1.2563  2.0714  1.4582
11382TIP3    H255562   2.994   0.809  13.544 -0.3790  0.8137  0.7325
11383TIP3   OH255563   2.632   4.276   2.349  0.5701 -0.2667  0.0311
11383TIP3    H155564   2.675   4.304   2.430 -0.2186 -0.5376  0.5517
11383TIP3    H255565   2.692   4.211   2.312  1.1583  0.1982  0.1470
11384TIP3   OH255566   4.379   3.324   3.408 -0.2161 -0.2505 -0.6578
11384TIP3    H155567   4.290   3.300   3.384 -0.5587 -0.1635  0.4616
11384TIP3    H255568   4.371   3.360   3.496  0.9084 -0.1097 -0.5987
11385TIP3   OH255569   4.659   0.738   3.407  0.9703 -0.3551  0.3171
11385TIP3    H155570   4.736   0.792   3.425  1.1625 -0.4996 -0.0517
11385TIP3    H255571   4.678   0.698   3.323  1.2056 -1.6429  0.9551
11386TIP3   OH255572   3.458   3.419   2.601 -0.4920  0.0149  0.5849
11386TIP3    H155573   3.455   3.348   2.537  1.2136 -0.0653  0.5611
11386TIP3    H255574   3.459   3.375   2.686  2.6118 -0.1641  0.5554
11387TIP3   OH255575   6.874   3.871   1.338  0.4442  0.5695  0.0814
11387TIP3    H155576   6.815   3.908   1.273 -0.4030  1.6010  1.3797
11387TIP3    H255577   6.818   3.816   1.393  1.1114 -0.1648  0.0468
11388TIP3   OH255578   0.129   1.329   5.317 -0.3028  0.3229  0.3854
11388TIP3    H155579   0.057   1.359   5.260 -1.2340 -0.0524  1.3327
11388TIP3    H255580   0.095   1.340   5.406  0.6678 -0.2521  0.8339
11389TIP3   OH255581   2.607   6.481  16.443 -0.2174  0.0128 -0.4252
11389TIP3    H155582   2.635   6.535  16.517  1.5725 -1.2525 -0.1257
11389TIP3    H255583   2.559   6.408  16.482  0.0636 -0.2508 -0.5689
11390TIP3   OH255584   2.825   6.635  15.827  0.4304 -0.7916 -0.1806
11390TIP3    H155585   2.861   6.722  15.814 -2.5020  0.3136 -1.9233
11390TIP3    H255586   2.793   6.636  15.918  0.5764 -0.0956 -0.1339
11391TIP3   OH255587   2.235   0.393  14.815 -0.7843  0.1597 -0.2324
11391TIP3    H155588   2.283   0.395  14.897 -1.2586 -2.0616  0.1774
11391TIP3    H255589   2.287   0.446  14.754  1.5785 -1.2125  0.4929
11392TIP3   OH255590   1.265   2.487  15.783  0.1624 -0.1752 -0.3650
11392TIP3    H155591   1.324   2.526  15.719 -0.2929 -0.1052 -0.7524
11392TIP3    H255592   1.287   2.529  15.866  1.7650 -1.3185 -0.1539
11393TIP3   OH255593   2.564   4.501   6.307  0.9490 -0.3781  0.0489
11393TIP3    H155594   2.554   4.416   6.352 -0.1534 -0.3421 -0.1228
11393TIP3    H255595   2.649   4.534   6.338  0.6741 -0.8268  1.3300
11394TIP3   OH255596   3.422   0.964  14.880  0.3620 -0.0456  0.2222
11394TIP3    H155597   3.425   1.059  14.867  1.8637 -0.0828  0.1193
11394TIP3    H255598   3.412   0.928  14.792  0.2424 -0.0095  0.2196
11395TIP3   OH255599   3.458   4.885  12.254 -0.4649 -0.4740 -0.1462
11395TIP3    H155600   3.488   4.899  12.344  0.7131 -1.6277 -0.3361
11395TIP3    H255601   3.414   4.967  12.231 -1.4178 -0.4150  1.7174
11396TIP3   OH255602   1.121   5.318   5.843  0.0989  0.4568  0.6660
11396TIP3    H155603   1.214   5.333   5.861  0.8827 -1.8241 -0.9631
11396TIP3    H255604   1.105   5.364   5.761  0.3066 -0.5293  0.0445
11397TIP3   OH255605   3.874   6.208   5.898 -0.5174 -0.1952  0.1319
11397TIP3    H155606   3.968   6.222   5.906 -0.5827 -0.0227  0.5855
11397TIP3    H255607   3.865   6.113   5.891 -0.3352 -0.2316  0.3869
11398TIP3   OH255608   4.569   3.596   1.734  0.5457  0.5736 -0.6845
11398TIP3    H155609   4.486   3.590   1.781  0.3034 -0.7805 -1.2345
11398TIP3    H255610   4.575   3.688   1.709 -0.9164  0.6622 -0.8346
11399TIP3   OH255611   6.173   5.147   3.964  0.1495 -0.0392  0.2289
11399TIP3    H155612   6.110   5.159   4.035  1.5745 -0.5201  1.6281
11399TIP3    H255613   6.208   5.235   3.948  0.3170 -0.0357  0.6054
11400TIP3   OH255614   0.251   0.442   5.025 -0.6818 -0.3416 -0.1322
11400TIP3    H155615   0.196   0.364   5.038 -1.9451  0.2458 -1.5921
11400TIP3    H255616   0.229   0.498   5.099 -2.3079 -0.0152 -0.8153
11401TIP3   OH255617   2.157   0.079   4.885  0.5247 -0.8832 -0.2736
11401TIP3    H155618   2.247   0.084   4.853  0.7144  0.0361  0.3379
11401TIP3    H255619   2.165   0.041   4.972  0.5979  1.0877  0.6440
11402TIP3   OH255620   4.004   3.064  15.237  0.4326 -0.0233  0.1026
11402TIP3    H155621   4.021   3.098  15.149 -1.5854 -1.9922 -1.1544
11402TIP3    H255622   4.063   2.989  15.246 -0.9553 -1.2654 -0.6037
11403TIP3   OH255623   5.912   6.169  10.094  0.1754 -0.3522  0.2056
11403TIP3    H155624   5.959   6.240  10.138 -0.8127 -0.8143  2.0818
11403TIP3    H255625   5.981   6.108  10.067  0.7431 -0.8098  2.5176
11404TIP3   OH255626   1.630   6.815   1.445  0.2454  0.1127  0.0186
11404TIP3    H155627   1.569   6.746   1.472  0.7361 -1.4853 -2.5893
11404TIP3    H255628   1.581   6.866   1.380  1.8435 -1.8975 -2.9927
11405TIP3   OH255629   1.554   5.996   0.693  0.1120 -0.0257 -0.2530
11405TIP3    H155630   1.522   6.071   0.642 -0.3527 -0.6953 -0.9520
11405TIP3    H255631   1.609   5.947   0.632 -1.0435 -1.2431 -0.3655
11406TIP3   OH255632   5.056   4.743  14.290 -0.6012 -0.1903 -0.5249
11406TIP3    H155633   5.066   4.819  14.233 -0.2257  2.2734  2.5725
11406TIP3    H255634   5.130   4.747  14.350  0.5694 -4.2554 -1.3867
11407TIP3   OH255635   1.630   3.589  12.209 -0.0990 -0.8518  0.4811
11407TIP3    H155636   1.666   3.573  12.296 -0.7639 -0.4169  0.8461
11407TIP3    H255637   1.693   3.549  12.149  0.6860 -0.6151  1.1287
11408TIP3   OH255638   4.331   4.564  12.681  0.2139  0.2774 -0.3799
11408TIP3    H155639   4.379   4.611  12.750  1.7606 -0.4973 -0.8700
11408TIP3    H255640   4.265   4.513  12.729 -1.7734  3.1124  0.1345
11409TIP3   OH255641   0.671   4.634   0.529  0.1132  0.5247 -0.1952
11409TIP3    H155642   0.710   4.558   0.486 -1.8950 -1.0078  0.5353
11409TIP3    H255643   0.608   4.668   0.465  0.3511  1.0470 -0.1632
11410TIP3   OH255644   3.450   4.907   0.841  0.1493  0.3057  0.0380
11410TIP3    H155645   3.537   4.929   0.806  0.9163  1.6479  2.5206
11410TIP3    H255646   3.400   4.988   0.832 -0.9580 -0.4935 -1.4810
11411TIP3   OH255647   5.925   6.736   0.996 -0.2948 -0.1515 -0.2040
11411TIP3    H155648   5.880   6.721   1.079 -1.9833 -0.3543 -1.1103
11411TIP3    H255649   5.872   6.688   0.931  0.9299  0.0682 -1.4051
11412TIP3   OH255650   3.699   4.972   2.622  0.0337 -0.0167 -0.4977
11412TIP3    H155651   3.695   4.938   2.532  0.3297  0.8760 -0.8633
11412TIP3    H255652   3.788   5.006   2.630  0.0251 -0.1493  0.1621
11413TIP3   OH255653   1.744   6.211  12.177  0.1109 -0.7326 -0.2799
11413TIP3    H155654   1.779   6.298  12.198  0.1644 -0.8611  0.1887
11413TIP3    H255655   1.686   6.190  12.250  0.4624 -1.2845 -0.1493
11414TIP3   OH255656   3.241   2.516  15.400  0.0488  0.1220  0.1054
11414TIP3    H155657   3.171   2.474  15.449  0.7641 -0.7805  0.3817
11414TIP3    H255658   3.296   2.444  15.370 -1.4003  0.3772 -3.8045
11415TIP3   OH255659   4.059   2.473  15.524  0.2844 -0.2973 -0.1312
11415TIP3    H155660   3.986   2.469  15.462  0.3732  1.7189 -0.4223
11415TIP3    H255661   4.066   2.384  15.558 -1.3250 -0.8884 -1.2220
11416TIP3   OH255662   6.369   0.214   3.765  0.4720 -0.0557  0.6210
11416TIP3    H155663   6.419   0.204   3.684 -2.4002 -1.6914 -1.1543
11416TIP3    H255664   6.414   0.283   3.813  1.2928  2.4653 -3.2859
11417TIP3   OH255665   4.425   2.147  13.273 -0.5559  0.6685  0.5850
11417TIP3    H155666   4.512   2.151  13.233 -2.6954  0.5403 -5.0826
11417TIP3    H255667   4.416   2.056  13.301  0.1362 -0.3196 -2.0421
11418TIP3   OH255668   1.452   0.253  14.153 -0.7421  0.5816 -0.2798
11418TIP3    H155669   1.425   0.280  14.065 -1.5959 -0.7091 -0.4462
11418TIP3    H255670   1.387   0.294  14.211  0.1009  1.8293 -0.1786
11419TIP3   OH255671   4.222   2.747  11.790 -0.0544  0.1209 -0.0600
11419TIP3    H155672   4.130   2.743  11.762 -0.1586 -0.3465  0.3361
11419TIP3    H255673   4.225   2.815  11.856 -0.0063  0.5208 -0.4695
11420TIP3   OH255674   2.693   5.375  10.124  0.5240 -0.1669  0.2212
11420TIP3    H155675   2.748   5.311  10.079  3.1912  1.8040  0.3618
11420TIP3    H255676   2.706   5.456  10.075 -2.1412  0.4969  0.4606
11421TIP3   OH255677   0.237   5.106   9.551  0.5261 -0.7623 -0.8629
11421TIP3    H155678   0.173   5.036   9.560 -0.8260  0.6743  2.2152
11421TIP3    H255679   0.319   5.067   9.580  0.2790 -1.6453 -1.3163
11422TIP3   OH255680   2.010   5.652  12.070 -0.0294 -0.0920 -0.5725
11422TIP3    H155681   2.083   5.598  12.100 -1.1530 -2.6899 -2.1370
11422TIP3    H255682   2.046   5.740  12.061  2.0347 -0.6206  1.6747
11423TIP3   OH255683   1.061   0.385  13.059 -0.7290  0.0902 -0.4938
11423TIP3    H155684   1.113   0.446  13.111  2.6067 -3.0989  0.4039
11423TIP3    H255685   1.115   0.369  12.981 -1.6313 -1.3482 -0.8647
11424TIP3   OH255686   0.672   0.966   4.151 -0.9166  0.5731 -0.3889
11424TIP3    H155687   0.629   0.925   4.075 -1.0822  2.5736 -1.4555
11424TIP3    H255688   0.761   0.932   4.149 -0.8758  0.6768 -1.6015
11425TIP3   OH255689   6.478   5.954   2.401 -0.7728 -0.0375 -0.4682
11425TIP3    H155690   6.474   5.864   2.370 -1.7206 -0.2576  0.2562
11425TIP3    H255691   6.571   5.976   2.396  0.0308 -2.1354  2.2639
11426TIP3   OH255692   6.764   6.351   0.556  0.4676  0.2794  0.0122
11426TIP3    H155693   6.773   6.441   0.526  1.4673 -0.0175 -0.6156
11426TIP3    H255694   6.849   6.331   0.595  0.1105 -0.2598  0.5220
11427TIP3   OH255695   6.087   3.765  13.300 -0.6852  0.1247 -0.1797
11427TIP3    H155696   6.183   3.772  13.298 -0.4260 -1.7313  1.9128
11427TIP3    H255697   6.057   3.856  13.290  1.2087  0.6523 -1.8033
11428TIP3   OH255698   6.326   6.098   0.751  0.1270 -0.1783  0.4371
11428TIP3    H155699   6.387   6.104   0.677 -1.5226 -0.9015 -1.0461
11428TIP3    H255700   6.313   6.188   0.779  1.1317  0.0654  0.1626
11429TIP3   OH255701   5.020   0.312  12.543 -0.2049  0.0486 -0.4440
11429TIP3    H155702   4.961   0.243  12.513  0.1504 -0.3922 -0.1467
11429TIP3    H255703   5.015   0.307  12.638  0.0949  0.1897 -0.4199
11430TIP3   OH255704   5.899   4.977  12.504  0.3890 -0.4729  0.2540
11430TIP3    H155705   5.936   4.974  12.592 -1.0775  0.7883  0.9425
11430TIP3    H255706   5.834   4.907  12.502  0.7877 -0.8450 -0.0232
11431TIP3   OH255707   6.722   3.665   0.153  0.2319 -0.0980 -0.1038
11431TIP3    H155708   6.640   3.639   0.112 -0.0673 -1.3643  1.2390
11431TIP3    H255709   6.753   3.739   0.099 -0.8882 -0.7058 -1.6529
11432TIP3   OH255710   2.140   6.422  13.636 -0.8447  0.0056 -0.4377
11432TIP3    H155711   2.195   6.363  13.687 -0.9814 -0.5324 -0.8908
11432TIP3    H255712   2.156   6.396  13.545 -0.7171  0.8426 -0.6640
11433TIP3   OH255713   3.413   5.279   5.221 -0.7191 -0.4632 -0.0499
11433TIP3    H155714   3.440   5.189   5.235  3.5623  0.0072 -3.1922
11433TIP3    H255715   3.448   5.328   5.296 -0.1657 -1.0094  0.0507
11434TIP3   OH255716   1.870   3.995  12.179  0.5441  0.2869  0.3139
11434TIP3    H155717   1.930   4.004  12.253  1.6537  0.9609 -0.6161
11434TIP3    H255718   1.833   3.908  12.188 -0.4970  0.8669  2.4626
11435TIP3   OH255719   2.796   1.994  16.675 -0.1492 -0.4824  0.2705
11435TIP3    H155720   2.787   2.010  16.581 -0.9852 -1.8985  0.0781
11435TIP3    H255721   2.732   2.052  16.715  0.4816  0.4154  0.0057
11436TIP3   OH255722   0.194   3.230   4.141  0.0211 -0.2528 -0.0659
11436TIP3    H155723   0.231   3.288   4.074  0.2571  0.0076  0.2890
11436TIP3    H255724   0.215   3.272   4.224 -0.9996 -0.1430  0.1484
11437TIP3   OH255725   1.736   4.120   2.704  0.5464 -0.0147 -0.1459
11437TIP3    H155726   1.687   4.054   2.753  1.3813 -1.7898 -1.5734
11437TIP3    H255727   1.672   4.189   2.687 -0.1408  0.0012  2.1122
11438TIP3   OH255728   5.301   2.597   2.524 -0.7457 -0.0396 -0.1036
11438TIP3    H155729   5.234   2.659   2.552 -0.5250 -0.0599  0.4905
11438TIP3    H255730   5.379   2.623   2.572 -0.0754  0.5425 -1.4780
11439TIP3   OH255731   4.181   5.778  16.181 -0.4854  0.0828 -0.4122
11439TIP3    H155732   4.174   5.768  16.086 -1.9406  0.7141 -0.4034
11439TIP3    H255733   4.098   5.818  16.207  0.9893  2.6616  0.7754
11440TIP3   OH255734   2.511   4.056   2.700  0.0428  0.1898 -0.2382
11440TIP3    H155735   2.435   4.008   2.668  1.3079 -2.0603 -0.0687
11440TIP3    H255736   2.474   4.132   2.743 -2.1070 -0.7473 -0.2800
11441TIP3   OH255737   3.205   2.778   2.586  0.2684 -0.4237  0.7125
11441TIP3    H155738   3.148   2.702   2.575 -1.1227  0.7335 -0.5684
11441TIP3    H255739   3.292   2.745   2.564 -0.3011 -1.6534  0.1641
11442TIP3   OH255740   4.186   4.891  10.650  0.1991  0.0142 -0.0267
11442TIP3    H155741   4.128   4.946  10.597  0.0207  1.9016  1.9651
11442TIP3    H255742   4.268   4.886  10.600  0.6313  3.1480  0.1953
11443TIP3   OH255743   1.423   2.087  11.765  0.3384 -0.2927 -0.2517
11443TIP3    H155744   1.365   2.054  11.696  0.0038  2.7698 -1.5840
11443TIP3    H255745   1.511   2.081  11.728  0.3483 -0.3760 -0.2140
11444TIP3   OH255746   0.686   6.736  16.186 -0.6317 -0.0303  0.0925
11444TIP3    H155747   0.718   6.810  16.134  0.2735 -0.4060  0.0903
11444TIP3    H255748   0.638   6.777  16.258 -1.7532  0.5026 -0.9203
11445TIP3   OH255749   6.542   5.924  12.846  0.1666  0.3191 -0.2198
11445TIP3    H155750   6.452   5.925  12.814 -0.8858  1.7806  2.5053
11445TIP3    H255751   6.547   5.847  12.903 -0.5361  2.1168  2.4298
11446TIP3   OH255752   2.396   2.571  15.528 -0.4194  0.4038 -0.2578
11446TIP3    H155753   2.410   2.665  15.538  0.7936  0.4305 -1.8168
11446TIP3    H255754   2.424   2.552  15.438 -0.5654 -1.4613  0.0517
11447TIP3   OH255755   2.297   6.305  14.707  0.2392  0.2768 -0.3689
11447TIP3    H155756   2.328   6.215  14.698 -1.3850 -0.5319  1.5227
11447TIP3    H255757   2.292   6.338  14.617  2.6592 -0.8352 -0.9943
11448TIP3   OH255758   6.061   6.542   2.776  0.7783  0.3000  0.1402
11448TIP3    H155759   6.146   6.525   2.735  0.0469 -2.9881 -0.2981
11448TIP3    H255760   6.083   6.584   2.859  2.6332  1.8140 -1.0365
11449TIP3   OH255761   6.745   0.252   4.783 -0.1312 -0.6645  0.6775
11449TIP3    H155762   6.818   0.199   4.817  0.5007  0.0406  0.4622
11449TIP3    H255763   6.717   0.207   4.704 -0.5547 -1.4550  1.2714
11450TIP3   OH255764   3.185   0.977   1.109 -0.1939 -0.5848 -0.1421
11450TIP3    H155765   3.089   0.980   1.104 -0.1870 -0.5374 -0.2409
11450TIP3    H255766   3.203   0.935   1.193 -0.3015 -0.5827 -0.1178
11451TIP3   OH255767   2.247   1.740   2.307 -0.1849 -0.6753  0.2400
11451TIP3    H155768   2.267   1.735   2.213  1.0132  0.9743  0.3716
11451TIP3    H255769   2.160   1.699   2.315  0.1604 -1.8253 -1.4045
11452TIP3   OH255770   2.009   6.631   4.824  0.6900 -0.1472 -0.2791
11452TIP3    H155771   2.074   6.687   4.867  0.9151 -1.0661  0.6129
11452TIP3    H255772   2.061   6.576   4.765  0.7360 -0.8010  0.3491
11453TIP3   OH255773   0.625   3.724   6.432  0.2337 -0.7352  0.2396
11453TIP3    H155774   0.600   3.636   6.458 -1.3048  0.0750  1.7594
11453TIP3    H255775   0.720   3.727   6.444  0.2109 -1.9610  0.8396
11454TIP3   OH255776   4.574   5.939   0.383 -0.8726  0.0935  0.3648
11454TIP3    H155777   4.593   5.916   0.474 -2.7840 -1.4325  0.4506
11454TIP3    H255778   4.650   5.990   0.354  0.1413 -0.0819  2.5500
11455TIP3   OH255779   6.300   1.933  11.433  0.2077 -0.1282  0.2516
11455TIP3    H155780   6.356   2.004  11.400 -1.2460  0.8694 -0.1934
11455TIP3    H255781   6.322   1.926  11.526 -0.6864  2.0080  0.6798
11456TIP3   OH255782   2.325   2.181   4.554 -0.4196  0.0311  0.3606
11456TIP3    H155783   2.333   2.237   4.476 -0.9756 -0.7222 -0.2432
11456TIP3    H255784   2.281   2.237   4.619 -0.9082  0.3236 -0.2128
11457TIP3   OH255785   2.265   1.298   5.586  0.3069  0.5886  0.4634
11457TIP3    H155786   2.170   1.285   5.593  0.4651 -0.8453  0.1929
11457TIP3    H255787   2.294   1.308   5.677 -0.0088  0.2439  0.6042
11458TIP3   OH255788   1.137   5.692  14.597 -0.1010 -0.0442 -0.0210
11458TIP3    H155789   1.162   5.768  14.649 -0.4891  1.0586 -1.3894
11458TIP3    H255790   1.055   5.663  14.636  0.7265 -0.6252  1.3592
11459TIP3   OH255791   4.034   2.206   2.569  0.1766  0.1416 -0.3649
11459TIP3    H155792   4.008   2.296   2.553  2.1621  1.3171  2.2494
11459TIP3    H255793   4.126   2.203   2.543 -0.2824 -1.7032 -2.0497
11460TIP3   OH255794   2.271   0.094   2.497 -0.2043 -0.3843  0.7118
11460TIP3    H155795   2.287   0.172   2.550 -1.2467  0.5491 -0.2782
11460TIP3    H255796   2.283   0.021   2.557 -0.0833  0.5773  1.8990
11461TIP3   OH255797   4.145   4.854   1.376  0.1473  0.0688 -0.0262
11461TIP3    H155798   4.050   4.851   1.385  0.0108  0.4408 -1.1453
11461TIP3    H255799   4.176   4.775   1.422 -0.7865 -0.6648 -0.6094
11462TIP3   OH255800   2.034   1.061   0.298  0.2585  0.3666  0.1930
11462TIP3    H155801   1.951   1.083   0.255  0.8062  1.1974 -0.4871
11462TIP3    H255802   2.063   1.144   0.338  0.5252 -0.0305  0.8453
11463TIP3   OH255803   4.453   3.054  11.772 -0.4195 -0.0547 -0.3409
11463TIP3    H155804   4.543   3.027  11.758 -0.3221  0.7562 -1.3863
11463TIP3    H255805   4.402   2.973  11.765  0.2483 -0.5576  0.5497
11464TIP3   OH255806   5.894   3.380   5.720  0.3945 -0.3659 -0.1375
11464TIP3    H155807   5.841   3.355   5.644  1.7991  0.4862 -1.4506
11464TIP3    H255808   5.830   3.403   5.787 -0.8974 -1.7540 -0.8243
11465TIP3   OH255809   4.975   4.354   0.166 -0.5084 -0.3206  0.2268
11465TIP3    H155810   5.002   4.406   0.090  3.5170  0.0040  1.6737
11465TIP3    H255811   4.937   4.417   0.226  0.1087  0.1708  0.1142
11466TIP3   OH255812   1.867   4.409   1.156  0.4233 -0.3947  0.0010
11466TIP3    H155813   1.855   4.466   1.231 -2.1532 -1.6169  0.6375
11466TIP3    H255814   1.835   4.460   1.081 -1.2468 -0.6797  0.4714
11467TIP3   OH255815   2.838   4.832  15.243  0.0573  0.2942  0.0847
11467TIP3    H155816   2.882   4.749  15.228 -0.0248  0.2562  0.0546
11467TIP3    H255817   2.878   4.892  15.180 -1.1522 -0.1642 -1.1478
11468TIP3   OH255818   5.306   0.961  12.230 -0.0748  0.0645 -0.4590
11468TIP3    H155819   5.401   0.956  12.242 -0.1123  1.4653  0.7653
11468TIP3    H255820   5.288   0.904  12.156  1.6789 -0.5025 -0.4979
11469TIP3   OH255821   5.555   2.424  14.984  0.0359 -0.3574 -0.2120
11469TIP3    H155822   5.565   2.518  14.969  1.1857 -0.5032 -0.4868
11469TIP3    H255823   5.543   2.387  14.897 -0.1745 -0.4931 -0.1254
11470TIP3   OH255824   4.611   2.231  11.200 -0.0564 -0.8398  0.1670
11470TIP3    H155825   4.634   2.316  11.239  0.4841 -1.5870  1.5198
11470TIP3    H255826   4.693   2.200  11.161 -0.1728 -0.9003 -0.0314
11471TIP3   OH255827   3.322   2.868  11.662 -0.5696  0.4697 -0.0246
11471TIP3    H155828   3.359   2.803  11.722  0.6546 -1.2354 -2.4583
11471TIP3    H255829   3.228   2.868  11.681 -0.2293  0.0956  1.8986
11472TIP3   OH255830   3.091   4.374  13.170  0.4121 -0.0378 -0.5497
11472TIP3    H155831   3.023   4.408  13.228 -0.9453 -0.6511 -1.7060
11472TIP3    H255832   3.042   4.327  13.102  2.0759 -1.9421 -0.5123
11473TIP3   OH255833   2.844   6.552  16.289  0.1010 -0.1534  0.0224
11473TIP3    H155834   2.764   6.544  16.340 -1.1142  0.6630 -1.6524
11473TIP3    H255835   2.913   6.564  16.354 -1.4141  1.1869  1.4672
11474TIP3   OH255836   4.122   0.901   0.712 -0.0671 -0.1777  0.1028
11474TIP3    H155837   4.027   0.907   0.713 -0.0902  0.2872 -1.6390
11474TIP3    H255838   4.151   0.956   0.786 -1.1472 -0.9942  1.1568
11475TIP3   OH255839   5.594   4.172   0.624  0.4338  0.0803  0.1781
11475TIP3    H155840   5.640   4.124   0.554 -0.7969  0.5361 -0.9983
11475TIP3    H255841   5.644   4.153   0.703  2.1182 -0.1330 -0.8874
11476TIP3   OH255842   0.295   0.299  10.995  0.0682 -0.0629 -0.3562
11476TIP3    H155843   0.334   0.212  11.005 -1.1019 -0.4252  1.5918
11476TIP3    H255844   0.221   0.286  10.936 -2.5164 -1.3431  2.8670
11477TIP3   OH255845   5.940   4.651   5.720 -0.0049 -1.1080  0.1002
11477TIP3    H155846   5.971   4.652   5.810  1.0339 -1.9314 -0.2285
11477TIP3    H255847   6.020   4.648   5.667 -0.5845 -0.3453 -0.8632
11478TIP3   OH255848   5.046   6.383  11.992  0.3075 -0.1639 -0.7503
11478TIP3    H155849   5.095   6.437  12.054 -0.3614  0.6380 -0.9049
11478TIP3    H255850   5.056   6.294  12.025  0.5413  0.1703  0.1176
11479TIP3   OH255851   0.567   6.059  12.653 -0.0506  0.4314 -0.5338
11479TIP3    H155852   0.490   6.017  12.693 -0.1892  1.6223  0.4932
11479TIP3    H255853   0.611   6.103  12.726  0.6394  1.2172 -1.4073
11480TIP3   OH255854   5.792   4.148  14.895  0.6332 -0.1549 -0.1682
11480TIP3    H155855   5.750   4.226  14.860  0.9512 -0.3373 -0.9734
11480TIP3    H255856   5.878   4.146  14.853  1.3910  0.0949  1.2800
11481TIP3   OH255857   0.891   1.186   4.286  0.0418 -0.7110 -0.4103
11481TIP3    H155858   0.884   1.203   4.380  0.1195 -0.5766 -0.4277
11481TIP3    H255859   0.894   1.273   4.246 -1.0160 -0.7637 -0.6198
11482TIP3   OH255860   0.123   2.301   3.437  0.2348 -0.3492 -0.5330
11482TIP3    H155861   0.055   2.249   3.479 -0.5957  1.3664  0.3397
11482TIP3    H255862   0.075   2.367   3.386  1.1859  1.3481  0.6616
11483TIP3   OH255863   0.675   1.459   4.121  0.1712 -0.0808  0.6335
11483TIP3    H155864   0.637   1.378   4.088  1.5577 -0.8848  0.9383
11483TIP3    H255865   0.690   1.512   4.042 -0.6305 -0.1438  0.4256
11484TIP3   OH255866   6.793   0.276   5.192  0.2131  0.2915 -0.0415
11484TIP3    H155867   6.706   0.265   5.152  0.9387 -2.2768 -1.1065
11484TIP3    H255868   6.792   0.365   5.227 -2.6783  0.5042 -0.4210
11485TIP3   OH255869   5.604   2.350  12.127 -0.9001  0.5637  0.3528
11485TIP3    H155870   5.539   2.306  12.181 -0.4944  0.9434  1.1797
11485TIP3    H255871   5.576   2.442  12.127 -1.0767  0.5086 -0.3535
11486TIP3   OH255872   5.840   4.657  11.816 -0.1408 -0.4740 -0.4665
11486TIP3    H155873   5.841   4.587  11.881 -2.0191  1.0148  1.2879
11486TIP3    H255874   5.855   4.612  11.733  0.0469 -2.7530  0.7152
11487TIP3   OH255875   3.879   3.994   0.316 -0.5225 -0.1710 -0.2315
11487TIP3    H155876   3.887   3.911   0.364 -0.1632  1.0371  1.9344
11487TIP3    H255877   3.789   3.996   0.286  0.1762 -2.6470 -2.9939
11488TIP3   OH255878   3.782   4.238  13.031  0.7215 -0.1717 -0.6252
11488TIP3    H155879   3.864   4.257  13.077 -0.2825  0.2277  1.0586
11488TIP3    H255880   3.796   4.150  12.994  1.5807 -0.4946  0.4071
11489TIP3   OH255881   1.433   5.848  14.038 -0.4326 -0.3156  1.2176
11489TIP3    H155882   1.480   5.821  13.959  1.6459  2.2377  1.4165
11489TIP3    H255883   1.366   5.909  14.006  0.3708  0.6723  1.3514
11490TIP3   OH255884   5.438   4.474   2.220 -0.1441 -0.4213 -0.0002
11490TIP3    H155885   5.490   4.396   2.239 -0.8615 -1.4537 -1.9554
11490TIP3    H255886   5.420   4.513   2.305  1.6825 -1.4311  0.8868
11491TIP3   OH255887   0.293   0.200   1.348  0.1686 -0.1758  0.4750
11491TIP3    H155888   0.214   0.169   1.303  0.0667  0.7898 -0.0384
11491TIP3    H255889   0.325   0.124   1.396 -0.2957 -0.9609 -0.4298
11492TIP3   OH255890   4.632   1.336  10.507 -0.2161 -0.1729 -0.1605
11492TIP3    H155891   4.713   1.285  10.506  0.3053  0.6157  0.8154
11492TIP3    H255892   4.653   1.416  10.460  0.0178  0.6635  1.3108
11493TIP3   OH255893   2.001   0.626   3.213  0.2139 -0.2302 -0.3730
11493TIP3    H155894   1.957   0.541   3.220 -0.3248  0.1093  0.5872
11493TIP3    H255895   2.038   0.627   3.124 -0.0553 -1.3236 -0.5115
11494TIP3   OH255896   2.966   0.653  11.679 -0.4011 -0.5252  0.6695
11494TIP3    H155897   2.929   0.632  11.593  1.1489 -1.3601  0.1844
11494TIP3    H255898   2.916   0.599  11.740  0.0636 -1.7378  0.0082
11495TIP3   OH255899   1.066   1.514  15.543 -0.1476  0.1366  0.5875
11495TIP3    H155900   1.089   1.496  15.634 -0.1019  1.2248  0.8066
11495TIP3    H255901   0.980   1.556  15.548 -0.2442  0.0032  0.1038
11496TIP3   OH255902   6.850   0.522   2.971 -0.4266 -0.1315  0.7565
11496TIP3    H155903   6.823   0.440   2.931  0.1608 -0.4470  0.9829
11496TIP3    H255904   6.799   0.589   2.927 -0.2227 -0.5298 -0.0954
11497TIP3   OH255905   3.618   3.029   2.790 -0.3131 -0.0776  0.0100
11497TIP3    H155906   3.568   2.952   2.817 -0.3706  0.4594  1.5345
11497TIP3    H255907   3.709   3.007   2.813 -0.2544  0.1002 -0.0530
11498TIP3   OH255908   4.373   1.326   1.281  0.1058 -0.1786  0.1651
11498TIP3    H155909   4.284   1.340   1.313  0.0665 -1.3724  0.6143
11498TIP3    H255910   4.383   1.390   1.210 -1.8192 -1.3451 -1.2560
11499TIP3   OH255911   2.103   0.244   3.824  0.1953  0.4157  0.1325
11499TIP3    H155912   2.069   0.184   3.891  1.2804 -1.0471 -0.5657
11499TIP3    H255913   2.026   0.283   3.785 -0.7589 -2.4759 -1.1219
11500TIP3   OH255914   5.546   5.447   5.672 -0.5167 -0.2203  0.1763
11500TIP3    H155915   5.578   5.385   5.607 -1.2022 -0.1317 -0.2488
11500TIP3    H255916   5.452   5.428   5.680 -0.7327  0.7414  0.0548
11501TIP3   OH255917   5.572   0.902   4.828 -0.1747  0.5202 -0.2072
11501TIP3    H155918   5.614   0.975   4.872 -0.2208  0.8922 -0.7625
11501TIP3    H255919   5.494   0.940   4.786 -0.6566 -0.0090  0.1840
11502TIP3   OH255920   4.581   4.407  10.393  0.3450  0.0866 -0.1680
11502TIP3    H155921   4.560   4.315  10.404  1.6531 -0.1163  0.9227
11502TIP3    H255922   4.633   4.410  10.313 -0.9702  0.1305 -1.0549
11503TIP3   OH255923   1.684   0.322  11.212 -0.1711  0.4694 -0.6529
11503TIP3    H155924   1.676   0.264  11.288 -1.2351 -0.6221 -1.5607
11503TIP3    H255925   1.731   0.399  11.245 -1.0913  0.2630  1.2397
11504TIP3   OH255926   2.194   4.444  13.206 -0.1689  0.1605  0.4598
11504TIP3    H155927   2.264   4.381  13.192  1.5672  1.4349  2.7376
11504TIP3    H255928   2.212   4.515  13.145 -1.2099 -0.7589 -0.9805
11505TIP3   OH255929   5.067   4.902   2.683 -0.4294 -0.3280  0.3848
11505TIP3    H155930   5.014   4.896   2.603  0.3257 -0.4100 -0.1194
11505TIP3    H255931   5.044   4.823   2.732 -2.0020  0.4455  0.9583
11506TIP3   OH255932   6.058   3.873   3.248  0.0765  0.7244  0.4369
11506TIP3    H155933   6.052   3.778   3.257 -1.1685  0.7043 -0.2890
11506TIP3    H255934   6.134   3.888   3.192 -1.8540 -0.1471 -2.7364
11507TIP3   OH255935   1.447   6.064  13.354  0.1102 -0.0441 -0.3740
11507TIP3    H155936   1.392   6.032  13.282  1.5975 -2.1674 -0.6552
11507TIP3    H255937   1.509   6.125  13.312 -0.2278  0.1859 -0.5439
11508TIP3   OH255938   4.964   3.161   0.056  0.2386  0.2990  0.2674
11508TIP3    H155939   4.974   3.140  -0.037  1.7539  0.8136  0.2833
11508TIP3    H255940   5.033   3.110   0.099  0.6890  1.3919  0.8872
11509TIP3   OH255941   1.140   5.808  14.004 -0.1976 -0.0132 -0.5244
11509TIP3    H155942   1.052   5.773  14.021  0.5337 -2.3384 -1.1588
11509TIP3    H255943   1.197   5.759  14.063  0.8575  0.3682 -1.2053
11510TIP3   OH255944   2.132   2.910  16.621  0.1580  0.2560  0.4417
11510TIP3    H155945   2.077   2.969  16.570 -0.3865 -0.3564  0.3085
11510TIP3    H255946   2.197   2.968  16.662 -0.4407  0.9616  0.4249
11511TIP3   OH255947   2.199   4.669  10.898  0.1259 -0.0530 -0.5715
11511TIP3    H155948   2.113   4.680  10.939  0.0515 -1.6495 -0.2384
11511TIP3    H255949   2.256   4.728  10.948  0.1824 -2.3808  2.4303
11512TIP3   OH255950   6.798   2.002  16.565 -0.1553 -0.0980  0.6748
11512TIP3    H155951   6.855   2.063  16.518  1.0056 -0.3778  1.6897
11512TIP3    H255952   6.720   2.054  16.586 -0.5367  0.1607 -1.1404
11513TIP3   OH255953   4.926   5.297  14.957  0.4636  0.5309 -0.0341
11513TIP3    H155954   4.897   5.361  15.022  1.9257  0.7629  0.4125
11513TIP3    H255955   4.845   5.257  14.925 -0.2817 -0.6173  2.9612
11514TIP3   OH255956   5.570   1.770   3.261  0.0328  0.2247 -0.1112
11514TIP3    H155957   5.657   1.741   3.235 -0.0321 -0.3092  0.2505
11514TIP3    H255958   5.554   1.848   3.209 -0.2232 -0.9805 -1.9232
11515TIP3   OH255959   2.236   1.700   4.953  0.4496  0.0370  0.0786
11515TIP3    H155960   2.176   1.735   4.887 -1.0406 -0.5740  1.0600
11515TIP3    H255961   2.249   1.608   4.927  0.8691  0.1267 -0.0464
11516TIP3   OH255962   0.026   1.817   3.792 -0.1264 -0.1183 -0.2704
11516TIP3    H155963   0.024   1.778   3.705 -0.1124  0.4427 -0.5261
11516TIP3    H255964  -0.048   1.878   3.793  0.5235  0.6889 -0.2764
11517TIP3   OH255965   6.301   6.116   2.027 -0.2970 -0.3141 -0.2755
11517TIP3    H155966   6.308   6.075   2.113  1.7296 -0.0908 -0.2833
11517TIP3    H255967   6.295   6.042   1.966 -0.8092 -0.4935 -0.0108
11518TIP3   OH255968   6.284   5.856  12.055  0.1732  0.3106 -0.5396
11518TIP3    H155969   6.261   5.782  11.999 -1.2913  1.7854 -2.0091
11518TIP3    H255970   6.201   5.903  12.066  0.9190  1.3407  0.9898
11519TIP3   OH255971   2.505   6.226  15.496 -0.1757  0.4287 -0.3405
11519TIP3    H155972   2.473   6.150  15.545  0.3933 -0.5701 -1.4777
11519TIP3    H255973   2.426   6.279  15.482 -0.4293  0.5323  1.2434
11520TIP3   OH255974   2.595   0.156   0.305  0.2979 -0.0844  0.7224
11520TIP3    H155975   2.527   0.122   0.364  1.4965 -1.9048  1.1745
11520TIP3    H255976   2.677   0.125   0.344  1.1711 -1.0926 -1.6929
11521TIP3   OH255977   4.237   6.711   4.777  0.1108 -0.1794  0.3251
11521TIP3    H155978   4.269   6.651   4.845  0.6848  0.2601  0.4460
11521TIP3    H255979   4.152   6.741   4.810  1.8403  2.7308  2.6083
11522TIP3   OH255980   3.275   2.885  11.393  1.1058  0.1134 -0.2665
11522TIP3    H155981   3.180   2.886  11.405  1.0067  0.2794 -1.0265
11522TIP3    H255982   3.310   2.899  11.481  0.4217  0.3399 -0.0213
11523TIP3   OH255983   5.881   0.462   4.813 -0.2842  0.0771 -0.1761
11523TIP3    H155984   5.788   0.448   4.832 -0.1858  1.1481  1.2434
11523TIP3    H255985   5.891   0.557   4.812  1.0328 -0.0199  0.9767
11524TIP3   OH255986   3.185   3.061  11.042  0.6186 -0.5512 -0.4156
11524TIP3    H155987   3.212   3.084  10.953  0.7875 -3.0192 -1.0793
11524TIP3    H255988   3.261   3.017  11.079  0.2949 -0.1853  0.7261
11525TIP3   OH255989   2.690   6.326   3.238 -0.3750 -0.1600  0.4610
11525TIP3    H155990   2.745   6.386   3.287 -2.2213  1.5432  0.5940
11525TIP3    H255991   2.651   6.269   3.305  0.0527 -0.3609  0.5377
11526TIP3   OH255992   2.273   2.618  13.895  0.2444  0.3898  0.3869
11526TIP3    H155993   2.307   2.575  13.815  0.1557  2.0121 -0.5573
11526TIP3    H255994   2.215   2.687  13.862  0.2199  1.0989  1.8674
11527TIP3   OH255995   6.160   1.453  12.255 -0.5133 -0.4844 -0.1686
11527TIP3    H155996   6.175   1.361  12.276 -0.7904 -0.3588  0.6085
11527TIP3    H255997   6.077   1.475  12.298 -0.1960  0.2600  0.0973
11528TIP3   OH255998   5.653   1.084  16.505  0.0449  0.3068  0.3714
11528TIP3    H155999   5.663   1.045  16.418 -0.4169 -0.7325  0.7739
11528TIP3    H256000   5.591   1.156  16.492 -0.0650  0.1228 -0.1461
11529TIP3   OH256001   1.128   1.898   3.604  0.4600 -0.3526 -0.2613
11529TIP3    H156002   1.038   1.885   3.632  0.4258  0.9273  0.3215
11529TIP3    H256003   1.137   1.993   3.598  2.5266 -0.2836  2.3056
11530TIP3   OH256004   1.456   1.560  14.789  0.0762  0.7358 -0.1645
11530TIP3    H156005   1.418   1.641  14.823 -0.2325 -0.8493  3.8794
11530TIP3    H256006   1.415   1.548  14.703  0.4565  4.9508 -1.1234
11531TIP3   OH256007   0.574   0.887  11.103  0.3306  0.4434  0.1120
11531TIP3    H156008   0.572   0.892  11.008  1.6857  1.6551  0.1194
11531TIP3    H256009   0.500   0.940  11.132  0.5147  0.9029 -0.2534
11532TIP3   OH256010   5.134   2.775  12.618 -0.2254  0.6503 -0.0257
11532TIP3    H156011   5.160   2.693  12.576 -0.8278 -0.2047  1.2155
11532TIP3    H256012   5.097   2.828  12.548  0.6711  0.0828 -0.9472
11533TIP3   OH256013   0.622   5.705  14.690 -0.3625  0.5578  0.3618
11533TIP3    H156014   0.568   5.628  14.706  2.3083 -1.5165  0.2528
11533TIP3    H256015   0.630   5.708  14.594 -0.5178  0.9959  0.3651
11534TIP3   OH256016   4.740   4.871   4.618  0.1310  0.0849  0.1414
11534TIP3    H156017   4.703   4.896   4.703 -2.8796 -3.0919 -0.0157
11534TIP3    H256018   4.731   4.950   4.564  0.1982  1.5451  2.1398
11535TIP3   OH256019   4.743   5.325  10.491 -0.2063 -0.2711 -0.0000
11535TIP3    H156020   4.749   5.236  10.456  0.3274 -0.7754  1.3176
11535TIP3    H256021   4.649   5.343  10.497 -0.3116 -0.6958 -0.3995
11536TIP3   OH256022   2.707   4.258   4.362  0.1523 -0.0294  0.0420
11536TIP3    H156023   2.752   4.246   4.445  0.6509 -1.8317 -0.4387
11536TIP3    H256024   2.761   4.211   4.298 -1.7362 -1.2631 -0.7685
11537TIP3   OH256025   3.889   3.061  13.658  0.0913 -0.0060 -0.6181
11537TIP3    H156026   3.914   3.025  13.743 -1.9374 -0.9547 -0.3580
11537TIP3    H256027   3.910   2.991  13.596  1.1064  0.4909 -0.8445
11538TIP3   OH256028   6.095   3.149   1.338 -0.2325  0.0589  0.8410
11538TIP3    H156029   6.128   3.137   1.249  0.9135  2.9272  0.7593
11538TIP3    H256030   6.014   3.197   1.328 -0.4117 -0.1270  1.3406
11539TIP3   OH256031   4.677   4.692   3.548 -0.1329 -0.5300  0.3014
11539TIP3    H156032   4.663   4.606   3.588 -0.0414 -0.5829  0.2193
11539TIP3    H256033   4.736   4.737   3.608  0.5669 -0.8625 -0.1211
11540TIP3   OH256034   6.220   0.573  11.898  0.3255 -0.2819 -0.1157
11540TIP3    H156035   6.254   0.659  11.873 -0.5589 -0.0032 -0.4095
11540TIP3    H256036   6.146   0.592  11.956 -0.2093 -0.8231 -0.6016
11541TIP3   OH256037   4.732   6.301   0.007  0.4637 -0.4770 -0.2418
11541TIP3    H156038   4.775   6.349   0.077 -1.7123  3.3828 -1.2550
11541TIP3    H256039   4.799   6.290  -0.060  2.0154 -2.4423  1.5108
11542TIP3   OH256040   3.510   2.899  14.436 -0.0636  0.0145  0.2829
11542TIP3    H156041   3.496   2.804  14.430 -1.3973  0.2210 -0.1322
11542TIP3    H256042   3.465   2.925  14.516  2.4356 -0.0345  1.8044
11543TIP3   OH256043   4.281   4.508   3.957  0.2345 -0.4461 -0.2593
11543TIP3    H156044   4.302   4.415   3.962  1.4622 -0.2601 -1.1697
11543TIP3    H256045   4.202   4.519   4.009 -0.5598 -2.1869 -1.0262
11544TIP3   OH256046   1.076   5.945   3.904  0.3306  1.1106 -0.2413
11544TIP3    H156047   1.165   5.976   3.886  0.7356 -0.6636 -1.5529
11544TIP3    H256048   1.088   5.860   3.947 -0.7581  1.6209  1.1767
11545TIP3   OH256049   6.575   0.629   6.029 -0.1052 -0.2584  0.6731
11545TIP3    H156050   6.667   0.653   6.041 -0.2044  1.0263 -0.7620
11545TIP3    H256051   6.530   0.713   6.018 -1.1814 -0.9252 -0.2107
11546TIP3   OH256052   6.251   6.891  10.603 -0.4653 -0.1874  0.1108
11546TIP3    H156053   6.222   6.863  10.690  0.8207  2.7446  1.6441
11546TIP3    H256054   6.338   6.853  10.592 -0.0154  0.6112  0.8043
11547TIP3   OH256055   3.781   4.816   0.352  0.7823 -0.2407  0.8526
11547TIP3    H156056   3.735   4.899   0.359  1.0371 -0.0358  0.1297
11547TIP3    H256057   3.768   4.788   0.261  1.2736 -0.6540  0.9041
11548TIP3   OH256058   1.963   3.770  14.601  0.3435  0.3647  0.2318
11548TIP3    H156059   1.958   3.764  14.696 -1.1499 -0.7370  0.1369
11548TIP3    H256060   1.983   3.862  14.583 -0.3053  0.8036  1.6080
11549TIP3   OH256061   3.674   1.025  15.663 -0.4616 -0.7991  0.2794
11549TIP3    H156062   3.726   0.945  15.653 -0.3081 -0.8024  1.0539
11549TIP3    H256063   3.607   1.002  15.727 -0.3628 -0.2837  0.5721
11550TIP3   OH256064   1.354   2.521   5.334 -0.3691 -0.4799  0.5154
11550TIP3    H156065   1.443   2.497   5.361 -0.1214 -1.7376 -1.2125
11550TIP3    H256066   1.364   2.608   5.295  0.0802 -0.5302  0.5105
11551TIP3   OH256067   0.112   3.197   0.473 -0.5665 -0.6792 -0.2824
11551TIP3    H156068   0.188   3.254   0.466  0.0902 -1.5380 -0.2637
11551TIP3    H256069   0.146   3.109   0.462 -1.4377 -1.1441  0.5132
11552TIP3   OH256070   6.407   6.152  14.658 -0.3528 -0.1357 -0.2371
11552TIP3    H156071   6.338   6.182  14.600  0.5190  1.6287 -0.4046
11552TIP3    H256072   6.470   6.108  14.600 -0.0573  0.5868 -0.4710
11553TIP3   OH256073   3.994   4.749   2.902 -0.1413 -0.0454  0.3365
11553TIP3    H156074   4.007   4.670   2.953 -1.9796 -0.9016 -0.4331
11553TIP3    H256075   3.981   4.719   2.812 -2.5700  0.9007  0.2733
11554TIP3   OH256076   5.101   5.548   4.366 -0.7541 -0.6954 -0.0111
11554TIP3    H156077   5.089   5.586   4.453 -0.7375 -1.1275  0.1798
11554TIP3    H256078   5.195   5.545   4.353 -0.6387  3.4550 -1.8418
11555TIP3   OH256079   2.145   5.485  14.624 -0.5011 -0.0352 -0.0382
11555TIP3    H156080   2.067   5.533  14.597 -0.6496 -0.2918 -0.0682
11555TIP3    H256081   2.131   5.468  14.717 -0.5023 -0.1211 -0.0542
11556TIP3   OH256082   6.736   4.516  12.010  0.2415 -0.1281 -0.1258
11556TIP3    H156083   6.712   4.448  11.948  0.5125 -0.2690 -0.0756
11556TIP3    H256084   6.812   4.559  11.970 -1.5640  1.9868 -1.5485
11557TIP3   OH256085   6.269   6.424   5.333  0.2888 -0.0665 -0.0911
11557TIP3    H156086   6.323   6.461   5.403  0.7287 -0.1902 -0.3599
11557TIP3    H256087   6.279   6.329   5.343  0.1934 -0.0868 -0.1940
11558TIP3   OH256088   2.100   3.251   0.508  0.6072  0.4425 -0.2158
11558TIP3    H156089   2.077   3.333   0.552  1.6120  1.5660 -1.6794
11558TIP3    H256090   2.043   3.185   0.548  0.6073  1.6111  1.8474
11559TIP3   OH256091   2.395   1.693  13.912  0.0304 -0.5484 -0.5467
11559TIP3    H156092   2.303   1.685  13.938  0.2638 -1.9662 -0.0881
11559TIP3    H256093   2.426   1.771  13.958 -0.4556 -1.1387  0.8438
11560TIP3   OH256094   1.987   1.399  14.098 -0.4119  0.2215  0.3505
11560TIP3    H156095   1.919   1.465  14.110 -1.7074 -1.1771  1.1206
11560TIP3    H256096   1.977   1.342  14.174  2.5824  0.7414  1.2630
11561TIP3   OH256097   6.667   5.019  11.725  0.0937 -0.2763 -0.2874
11561TIP3    H156098   6.760   5.015  11.701 -0.1931  1.2042 -1.8332
11561TIP3    H256099   6.629   4.941  11.684  0.0632  0.9600 -2.7964
11562TIP3   OH256100   5.995   5.594   0.591 -0.1477 -0.0244  0.6372
11562TIP3    H156101   5.999   5.651   0.514 -1.2709  0.0178  0.5991
11562TIP3    H256102   6.067   5.624   0.646  0.3968  0.2388 -0.1926
11563TIP3   OH256103   2.115   4.595  10.223 -0.5158  0.0013 -0.1337
11563TIP3    H156104   2.171   4.525  10.255 -2.1668 -1.3420 -0.0916
11563TIP3    H256105   2.027   4.557  10.219 -1.5417  2.1667  0.2443
11564TIP3   OH256106   2.911   0.331  14.332 -0.4020  0.3297  0.5154
11564TIP3    H156107   2.875   0.251  14.371  1.1896 -1.2711 -1.0947
11564TIP3    H256108   2.846   0.357  14.267 -0.1247 -0.7223 -0.2004
11565TIP3   OH256109   3.986   4.320  16.032  0.2471  0.5576  0.9003
11565TIP3    H156110   3.978   4.231  16.066 -1.0649 -0.3296 -1.5055
11565TIP3    H256111   4.049   4.314  15.961 -1.1003  1.1329 -0.4060
11566TIP3   OH256112   4.775   2.775   5.353  0.0277 -0.2025  0.2735
11566TIP3    H156113   4.810   2.722   5.424 -0.9577 -1.5195 -0.1766
11566TIP3    H256114   4.737   2.712   5.292 -0.3525  0.9719 -0.7621
11567TIP3   OH256115   3.235   6.305  12.635 -0.4965 -0.1071  0.3595
11567TIP3    H156116   3.224   6.357  12.715 -0.4413  0.2771  0.1206
11567TIP3    H256117   3.191   6.222  12.654 -1.4701  0.3991  0.3884
11568TIP3   OH256118   6.290   5.240  15.989 -0.0156 -0.1093 -0.3473
11568TIP3    H156119   6.287   5.239  16.085 -0.8600 -1.3450 -0.3583
11568TIP3    H256120   6.349   5.312  15.967 -0.5168  0.7739  1.0850
11569TIP3   OH256121   2.623   2.974  13.428  0.8983 -0.6482 -0.0096
11569TIP3    H156122   2.574   2.911  13.374  0.2759  0.4040 -0.7046
11569TIP3    H256123   2.556   3.020  13.479  1.3390 -0.4862  0.4357
11570TIP3   OH256124   1.294   3.824   5.375  0.2323  0.4591  0.2224
11570TIP3    H156125   1.225   3.875   5.332  0.4738  0.0777 -0.6455
11570TIP3    H256126   1.375   3.870   5.352  0.5024 -0.5708 -0.9973
11571TIP3   OH256127   3.178   1.262  16.362 -0.6606  0.4218 -0.6118
11571TIP3    H156128   3.250   1.323  16.380 -1.9018  2.2268 -1.5002
11571TIP3    H256129   3.213   1.203  16.295  1.0131 -0.7927  1.2212
11572TIP3   OH256130   5.134   6.113  15.660  0.1150  0.3177 -0.2828
11572TIP3    H156131   5.147   6.093  15.567 -0.8658 -0.4579 -0.2669
11572TIP3    H256132   5.093   6.199  15.660 -0.4940  0.0383 -0.6171
11573TIP3   OH256133   4.197   3.844  10.031 -0.0423 -0.0193 -0.4130
11573TIP3    H156134   4.206   3.773   9.969  3.1902  1.0020 -1.2908
11573TIP3    H256135   4.208   3.924   9.979 -0.9223  1.0373  0.9369
11574TIP3   OH256136   0.418   1.689  11.366  0.6132 -0.3703 -0.0622
11574TIP3    H156137   0.391   1.740  11.290  0.5750  0.5328  0.5448
11574TIP3    H256138   0.391   1.599  11.345 -3.5021  0.4879  0.6882
11575TIP3   OH256139   1.014   5.322   0.182  0.3087  0.2320 -0.0614
11575TIP3    H156140   1.000   5.389   0.115 -1.1019 -0.1277 -0.1605
11575TIP3    H256141   0.932   5.273   0.184  1.5045 -1.9197 -0.4498
11576TIP3   OH256142   4.010   4.842  10.391  0.3611  0.6879 -0.6532
11576TIP3    H156143   3.967   4.897  10.457 -0.2206 -0.4445 -0.0415
11576TIP3    H256144   3.953   4.847  10.314 -1.1790 -1.0809  0.2631
11577TIP3   OH256145   3.350   1.995   0.545 -0.1455 -0.0333  0.6661
11577TIP3    H156146   3.368   1.914   0.593  1.2527 -1.2554 -1.7449
11577TIP3    H256147   3.270   1.976   0.496  0.9066 -0.5231 -0.9382
11578TIP3   OH256148   3.456   2.027   3.724  0.1230  0.5956  0.4249
11578TIP3    H156149   3.390   2.087   3.689 -0.6693 -0.1051  0.6902
11578TIP3    H256150   3.539   2.073   3.711 -0.4929  1.9598  1.0411
11579TIP3   OH256151   0.695   1.697   0.607 -0.0553  0.3512 -0.0047
11579TIP3    H156152   0.788   1.715   0.607  0.0614 -0.2165  0.2828
11579TIP3    H256153   0.660   1.749   0.535  0.2088  1.9078  0.9553
11580TIP3   OH256154   2.228   4.186   4.081  0.0758 -0.2131 -0.2137
11580TIP3    H156155   2.245   4.198   4.174 -0.0819 -2.3790  0.1472
11580TIP3    H256156   2.309   4.215   4.038  0.6412 -0.3831  0.6999
11581TIP3   OH256157   1.387   1.168   1.846 -0.3244 -0.0903 -0.5221
11581TIP3    H156158   1.312   1.120   1.882  0.2194 -1.1822 -0.8171
11581TIP3    H256159   1.444   1.182   1.921 -0.5953  0.3252 -0.3886
11582TIP3   OH256160   1.468   5.520   0.586 -0.0324  0.7495 -0.9282
11582TIP3    H156161   1.438   5.429   0.586 -2.1570  1.3881 -1.2643
11582TIP3    H256162   1.510   5.531   0.671 -0.6195 -0.3034 -0.4769
11583TIP3   OH256163   3.768   4.932  10.888 -0.7703  0.0930  0.1224
11583TIP3    H156164   3.716   4.854  10.907  1.2689 -1.1210  1.0456
11583TIP3    H256165   3.740   4.995  10.955 -1.8691 -0.1052 -0.1262
11584TIP3   OH256166   6.230   4.468   2.712 -1.0403 -0.0145  0.6600
11584TIP3    H156167   6.315   4.497   2.681 -2.1307  0.2915 -2.3221
11584TIP3    H256168   6.244   4.445   2.804  2.4305 -0.8109  0.0470
11585TIP3   OH256169   0.694   6.333  15.671  0.4770 -0.1347 -0.3083
11585TIP3    H156170   0.600   6.337  15.655  0.2874  1.7874  0.9100
11585TIP3    H256171   0.702   6.272  15.745  0.1664 -0.2088 -0.3318
11586TIP3   OH256172   4.331   5.224   1.223  0.5293  0.4140  0.7017
11586TIP3    H156173   4.249   5.237   1.271  0.5835  0.2381  0.8478
11586TIP3    H256174   4.320   5.272   1.141  0.4251  0.6979  0.8810
11587TIP3   OH256175   5.514   4.230  16.541 -0.3355 -0.4607  0.2927
11587TIP3    H156176   5.420   4.244  16.528 -0.2630 -1.6601 -1.8968
11587TIP3    H256177   5.534   4.153  16.489  2.1935  0.7325 -0.6550
11588TIP3   OH256178   3.014   1.248   4.195 -0.2641  0.1665  0.1326
11588TIP3    H156179   2.944   1.237   4.259 -1.4558 -1.2078 -1.3148
11588TIP3    H256180   3.024   1.343   4.186 -0.2854  0.3912  2.0598
11589TIP3   OH256181   3.851   4.042  11.647 -0.7705  0.3863 -0.0360
11589TIP3    H156182   3.818   4.042  11.557 -3.7752  1.4501  0.9676
11589TIP3    H256183   3.870   3.950  11.666 -2.3597 -0.1668 -0.9889
11590TIP3   OH256184   4.973   5.305  12.892  0.5256 -0.7115  0.6654
11590TIP3    H156185   4.919   5.375  12.855 -1.1532 -1.4549  1.5529
11590TIP3    H256186   4.993   5.334  12.981  0.1341 -1.1762  0.9110
11591TIP3   OH256187   4.814   2.095   1.229  0.7856 -0.2241 -0.1987
11591TIP3    H156188   4.886   2.046   1.190  1.4124  1.3315 -1.1275
11591TIP3    H256189   4.766   2.130   1.154  0.5920  0.8574  0.4084
11592TIP3   OH256190   3.911   6.733  11.253 -0.2488 -0.1033 -0.1344
11592TIP3    H156191   3.930   6.694  11.338  0.5104  0.7476  0.1045
11592TIP3    H256192   3.819   6.712  11.237  0.2194 -2.3733 -0.2443
11593TIP3   OH256193   6.426   0.917   5.078  0.3845  0.2429 -0.3756
11593TIP3    H156194   6.367   0.844   5.096 -0.2363  0.5788 -0.9911
11593TIP3    H256195   6.461   0.899   4.991 -0.6075  1.2007 -1.0044
11594TIP3   OH256196   1.571   5.171  14.456  0.4379  0.5120 -0.3234
11594TIP3    H156197   1.621   5.097  14.423  0.5237 -0.1513  1.1887
11594TIP3    H256198   1.495   5.132  14.499 -0.0125  1.3621 -0.3154
11595TIP3   OH256199   3.189   3.573   1.563  0.4563  0.4860  0.3236
11595TIP3    H156200   3.226   3.658   1.589 -0.5185  0.3823  2.2772
11595TIP3    H256201   3.253   3.509   1.593 -0.2388  0.4175  1.7769
11596TIP3   OH256202   1.008   2.865   5.152  0.0026  0.0193  0.4645
11596TIP3    H156203   0.922   2.828   5.170 -0.4671  0.9213  0.1432
11596TIP3    H256204   1.040   2.894   5.237  1.2837 -2.8921  1.1007
11597TIP3   OH256205   2.627   1.920   5.826 -0.0144 -0.7290 -0.0483
11597TIP3    H156206   2.684   1.892   5.754 -0.1184 -1.6142  0.2011
11597TIP3    H256207   2.688   1.948   5.895  0.1173  2.3497 -1.2426
11598TIP3   OH256208   1.062   0.428   2.274 -0.2210 -0.0433 -0.0298
11598TIP3    H156209   1.114   0.424   2.354  0.1264 -2.1818 -0.3033
11598TIP3    H256210   0.972   0.425   2.304 -0.1208  0.1950  0.3047
11599TIP3   OH256211   2.958   0.781  14.210 -0.0822  0.3928  0.3023
11599TIP3    H156212   2.869   0.778  14.246  0.1182 -0.0140  0.7830
11599TIP3    H256213   2.972   0.873  14.188 -0.9226  0.3330 -0.5590
11600TIP3   OH256214   0.700   4.709  16.064 -0.1102 -0.5946 -0.1419
11600TIP3    H156215   0.795   4.706  16.056 -0.0292  0.7948  0.0868
11600TIP3    H256216   0.669   4.697  15.974  0.2720 -1.0198 -0.2236
11601TIP3   OH256217   6.632   4.262  11.945 -0.9542  1.0715 -0.0072
11601TIP3    H156218   6.605   4.179  11.906 -0.4537  0.2870  1.2416
11601TIP3    H256219   6.585   4.266  12.028 -0.4441  1.6946  0.2668
11602TIP3   OH256220   0.467   2.207  15.631  0.0489 -0.1712  0.3202
11602TIP3    H156221   0.386   2.258  15.631 -0.2151 -0.5785 -0.3377
11602TIP3    H256222   0.441   2.120  15.602  0.6505 -0.4310  0.5368
11603TIP3   OH256223   0.519   1.841   3.934  0.2612  0.5967 -0.1991
11603TIP3    H156224   0.465   1.857   4.012  0.1300  2.1568 -0.5742
11603TIP3    H256225   0.597   1.893   3.948 -0.3095  1.9041 -1.6358
11604TIP3   OH256226   2.503   2.007  16.233 -0.0714 -0.0263 -0.5521
11604TIP3    H156227   2.426   2.011  16.291  0.6226  2.1122  0.3471
11604TIP3    H256228   2.476   2.054  16.154  0.8363  2.7166  0.6097
11605TIP3   OH256229   3.165   3.868   1.161  0.4373  0.0572  0.1979
11605TIP3    H156230   3.086   3.823   1.131 -0.1422  0.5792  0.9089
11605TIP3    H256231   3.150   3.884   1.254  1.6914 -0.4777  0.5200
11606TIP3   OH256232   2.866   3.375   6.593 -0.9718  0.3611  0.1241
11606TIP3    H156233   2.892   3.459   6.554  1.0853  0.2413  1.1069
11606TIP3    H256234   2.859   3.315   6.519  0.5698  0.6990 -0.3271
11607TIP3   OH256235   6.847   6.719   1.413 -0.2630  0.0313 -0.6459
11607TIP3    H156236   6.759   6.747   1.389 -0.1723 -0.6177 -1.7651
11607TIP3    H256237   6.888   6.695   1.330  0.7626 -0.2708 -0.0619
11608TIP3   OH256238   5.687   5.137   4.527 -0.1045 -0.2332 -0.5453
11608TIP3    H156239   5.665   5.150   4.435  0.1088 -1.7259 -0.8273
11608TIP3    H256240   5.740   5.057   4.528 -0.1343 -0.2569  0.8714
11609TIP3   OH256241   4.493   0.519  14.923  0.1055  0.6129 -0.1134
11609TIP3    H156242   4.439   0.582  14.971  1.7772  1.7123  0.4122
11609TIP3    H256243   4.554   0.485  14.988 -1.4559 -2.5057 -0.0922
11610TIP3   OH256244   5.358   2.443   4.900  0.2571 -1.1321 -0.7407
11610TIP3    H156245   5.398   2.356   4.889  0.3499 -1.3384  0.9997
11610TIP3    H256246   5.284   2.429   4.959  0.1417 -0.0561 -0.6052
11611TIP3   OH256247   0.858   6.262   3.098 -0.0888 -0.1455 -0.5317
11611TIP3    H156248   0.867   6.348   3.057 -0.4601  0.4306  0.5491
11611TIP3    H256249   0.932   6.211   3.065  2.0807  1.6237  1.2851
11612TIP3   OH256250   0.290   5.184   4.416 -0.2479 -0.4539  0.1585
11612TIP3    H156251   0.211   5.131   4.415  0.1710 -1.1115  1.3860
11612TIP3    H256252   0.361   5.123   4.395  0.1248 -0.1949  0.6481
11613TIP3   OH256253   3.479   1.207   4.807  0.2737 -0.1818  0.3513
11613TIP3    H156254   3.448   1.194   4.718  0.3890  1.9005 -0.0540
11613TIP3    H256255   3.574   1.208   4.800  0.3008 -0.7961  0.6258
11614TIP3   OH256256   0.374   4.851   3.626  0.3419  0.6817  0.3813
11614TIP3    H156257   0.297   4.795   3.632 -0.0484  1.0679 -0.8251
11614TIP3    H256258   0.343   4.931   3.586  1.0459  1.5183  1.4420
11615TIP3   OH256259   3.427   0.861   1.920 -0.3382  0.3448  0.5926
11615TIP3    H156260   3.482   0.925   1.965 -0.9961  1.3643 -0.0173
11615TIP3    H256261   3.355   0.912   1.884 -0.8978 -0.7490  0.1158
11616TIP3   OH256262   2.510   2.518   1.325 -0.1579 -0.3022 -0.3873
11616TIP3    H156263   2.463   2.574   1.387  0.3296 -0.6422  0.3010
11616TIP3    H256264   2.600   2.519   1.355  0.2197  0.0862 -1.5125
11617TIP3   OH256265   5.162   2.914   5.611 -0.3046 -0.6062 -0.1209
11617TIP3    H156266   5.215   2.950   5.539  0.4588 -2.2437 -0.4112
11617TIP3    H256267   5.156   2.821   5.592 -0.3586 -1.0176  1.7798
11618TIP3   OH256268   4.500   4.146  11.665  0.2218  0.1699  0.1017
11618TIP3    H156269   4.594   4.157  11.655  0.3064  0.9665  1.4685
11618TIP3    H256270   4.465   4.151  11.576  1.5405 -1.0795 -0.5321
11619TIP3   OH256271   1.136   4.562   2.046  0.2700  0.8243  0.3679
11619TIP3    H156272   1.223   4.527   2.026 -0.9140 -2.4247  0.3193
11619TIP3    H256273   1.131   4.563   2.141  0.3615  1.0164  0.3707
11620TIP3   OH256274   0.817   5.653   6.607 -0.2959 -0.0659  0.3849
11620TIP3    H156275   0.818   5.557   6.610 -1.1535 -0.1841 -1.6312
11620TIP3    H256276   0.859   5.674   6.524 -0.3287  1.3151  0.7025
11621TIP3   OH256277   1.977   4.221   2.796 -0.5469 -0.6458  0.0491
11621TIP3    H156278   2.021   4.143   2.760  0.0426 -0.0452 -0.5505
11621TIP3    H256279   1.884   4.203   2.783 -0.3974 -1.0418 -0.5572
11622TIP3   OH256280   4.141   1.361   3.919  0.1752 -0.3260  0.3042
11622TIP3    H156281   4.095   1.410   3.850 -1.5043 -0.0097  1.5991
11622TIP3    H256282   4.090   1.281   3.930  2.4543 -2.1439 -1.2484
11623TIP3   OH256283   0.150   1.879  13.191 -0.2945  0.2392  0.6506
11623TIP3    H156284   0.065   1.836  13.189 -0.7068  1.0243  1.1353
11623TIP3    H256285   0.198   1.834  13.260 -0.0483 -0.6767 -0.0922
11624TIP3   OH256286   1.588   5.517   3.949 -0.3600 -0.6572 -0.1477
11624TIP3    H156287   1.630   5.533   4.033  2.5648 -0.6153 -1.4922
11624TIP3    H256288   1.585   5.604   3.908 -0.9750 -0.8154 -0.4489
11625TIP3   OH256289   0.190   2.439   4.770 -0.1625 -0.0987  0.0839
11625TIP3    H156290   0.145   2.361   4.739  1.7113 -1.2737  0.1407
11625TIP3    H256291   0.125   2.509   4.763 -0.8699 -0.8765 -3.4735
11626TIP3   OH256292   2.626   0.627   4.428  0.4575 -0.3443 -1.0210
11626TIP3    H156293   2.673   0.708   4.442 -0.8195  0.3039 -0.3108
11626TIP3    H256294   2.594   0.602   4.515 -1.6175 -0.0224 -1.6197
11627TIP3   OH256295   3.931   1.354   0.769  0.1769  0.1070 -0.1673
11627TIP3    H156296   3.961   1.337   0.858 -3.1307 -0.0577  1.0677
11627TIP3    H256297   3.841   1.386   0.780 -0.5239 -0.3604 -3.4681
11628TIP3   OH256298   3.475   2.472  11.805  0.0499 -0.5842 -0.1654
11628TIP3    H156299   3.397   2.527  11.813 -0.2280 -0.7544 -1.5367
11628TIP3    H256300   3.462   2.402  11.869  0.3174  0.8001  1.4593
11629TIP3   OH256301   1.313   5.455   4.350  0.0463 -0.2455  0.2431
11629TIP3    H156302   1.242   5.429   4.408 -1.7230 -1.3310 -2.2579
11629TIP3    H256303   1.383   5.391   4.367 -1.0950 -1.5947  0.0164
11630TIP3   OH256304   4.596   3.895  11.762 -0.4431 -0.5379  0.1246
11630TIP3    H156305   4.572   3.864  11.850  0.1407  0.7217  0.7662
11630TIP3    H256306   4.551   3.980  11.754  1.4881  0.5480  0.2419
11631TIP3   OH256307   5.681   3.241   5.572 -0.3199  0.7982  0.5322
11631TIP3    H156308   5.611   3.204   5.519  0.1430  0.2934  0.2647
11631TIP3    H256309   5.654   3.332   5.588 -1.0973  0.5666  0.5591
11632TIP3   OH256310   6.595   5.785  14.713 -0.0513 -0.2799 -0.1193
11632TIP3    H156311   6.669   5.786  14.773  0.4692 -0.5668 -0.7395
11632TIP3    H256312   6.519   5.801  14.768  0.4802  0.1169  0.5148
11633TIP3   OH256313   6.686   2.013  13.718 -0.0974  0.2643  0.1143
11633TIP3    H156314   6.764   1.992  13.769 -0.1389 -1.2345 -0.3880
11633TIP3    H256315   6.668   2.105  13.738 -0.1919 -0.2770  2.8933
11634TIP3   OH256316   6.170   0.736   4.024 -0.0897  0.5976  0.5346
11634TIP3    H156317   6.231   0.710   3.956  0.0737 -0.3601  1.0232
11634TIP3    H256318   6.215   0.804   4.073  0.3656  0.2757  0.5626
11635TIP3   OH256319   3.048   1.893   3.746 -0.3699  0.2649 -0.3844
11635TIP3    H156320   3.096   1.971   3.773 -1.3169 -0.0541  2.7422
11635TIP3    H256321   3.114   1.825   3.737  0.2223  0.8974 -0.8541
11636TIP3   OH256322   2.272   1.368   5.190 -0.1655  0.1024 -0.1731
11636TIP3    H156323   2.338   1.302   5.214 -1.8849 -1.3761  0.7749
11636TIP3    H256324   2.265   1.424   5.268 -1.9989 -1.5066  0.9154
11637TIP3   OH256325   2.394   1.137  10.684  0.0702 -0.3764 -0.3320
11637TIP3    H156326   2.322   1.200  10.678 -0.5124 -1.0741 -0.8734
11637TIP3    H256327   2.466   1.178  10.636 -0.7424 -0.6822 -1.8973
11638TIP3   OH256328   3.906   6.498   4.584 -0.5530  0.3242 -0.4665
11638TIP3    H156329   3.941   6.545   4.508 -0.0827 -0.9763 -1.0804
11638TIP3    H256330   3.969   6.428   4.600 -1.3174 -0.2088  0.3110
11639TIP3   OH256331   1.771   0.934   1.398 -0.2168  0.4824 -0.2121
11639TIP3    H156332   1.742   0.843   1.388 -0.8705  0.5731  0.6665
11639TIP3    H256333   1.811   0.936   1.485 -1.4656  1.3372  0.3718
11640TIP3   OH256334   4.421   0.979   1.636  0.0663  0.2031 -0.2884
11640TIP3    H156335   4.390   1.055   1.685 -1.0449 -0.5999  0.3024
11640TIP3    H256336   4.441   0.914   1.704 -0.3214 -0.4986 -0.8330
11641TIP3   OH256337   2.505   2.464   4.667 -0.1049  0.8813 -0.0068
11641TIP3    H156338   2.447   2.475   4.592  0.7308 -0.8498 -0.9700
11641TIP3    H256339   2.590   2.494   4.636  0.9760 -2.7162 -0.9147
11642TIP3   OH256340   2.815   5.642   3.818 -0.5849  0.0310  0.6293
11642TIP3    H156341   2.869   5.582   3.767 -0.8283  0.7995 -0.5899
11642TIP3    H256342   2.743   5.588   3.851 -0.4846 -0.4703  0.0460
11643TIP3   OH256343   1.049   0.840  11.398  0.2569  0.2200 -0.1685
11643TIP3    H156344   1.140   0.815  11.410  0.3768  0.0684 -1.3551
11643TIP3    H256345   1.011   0.770  11.345 -0.0042  1.3018 -1.4704
11644TIP3   OH256346   6.147   3.031   5.189 -0.3850  0.2805  0.4358
11644TIP3    H156347   6.132   3.009   5.281 -2.3055 -0.0814  0.0953
11644TIP3    H256348   6.234   2.998   5.169 -0.6975 -1.3660  1.6329
11645TIP3   OH256349   3.219   0.235   0.142 -0.5525 -0.1429  0.1941
11645TIP3    H156350   3.180   0.306   0.091 -0.8986 -0.5295 -0.0888
11645TIP3    H256351   3.279   0.192   0.081 -1.4972 -1.0518 -0.1223
11646TIP3   OH256352   2.162   1.836  16.170 -0.2166 -0.2803 -0.1251
11646TIP3    H156353   2.242   1.861  16.123 -0.9246 -0.8178 -1.6830
11646TIP3    H256354   2.150   1.906  16.234 -0.4859  1.8433 -2.3397
11647TIP3   OH256355   0.076   5.922  12.046 -0.1569 -0.0164  0.2227
11647TIP3    H156356   0.149   5.967  12.003  0.0394  0.6000  1.1784
11647TIP3    H256357   0.001   5.941  11.991 -0.0136  1.2388  0.4453
11648TIP3   OH256358   5.866   0.242  12.906 -0.2986  0.0876 -0.1585
11648TIP3    H156359   5.839   0.157  12.941  2.3372 -1.9019 -2.4636
11648TIP3    H256360   5.914   0.284  12.978 -1.6804 -0.2727  1.0293
11649TIP3   OH256361   6.816   5.673   2.205  0.0912 -0.5780  0.0001
11649TIP3    H156362   6.847   5.705   2.289  1.1599  2.2679 -1.3375
11649TIP3    H256363   6.875   5.602   2.182  1.3038  0.2044  0.6037
11650TIP3   OH256364   6.397   6.523  12.800 -0.5008  0.1981 -0.5762
11650TIP3    H156365   6.442   6.602  12.828 -1.1345  0.5034 -0.4092
11650TIP3    H256366   6.466   6.457  12.794 -0.3998 -0.0756  2.3481
11651TIP3   OH256367   1.022   1.215   1.130 -0.0212 -0.0449 -0.7009
11651TIP3    H156368   1.086   1.242   1.196 -0.4399  0.7316 -0.5954
11651TIP3    H256369   0.938   1.238   1.168 -0.2704  0.3497 -1.4700
11652TIP3   OH256370   5.246   1.457  15.389 -1.0067 -0.3343  0.1302
11652TIP3    H156371   5.191   1.487  15.461  0.3595 -1.5899  1.8161
11652TIP3    H256372   5.284   1.536  15.352 -1.9967  0.3570  0.5583
11653TIP3   OH256373   0.857   6.115   0.603  0.2878  0.1097 -0.2007
11653TIP3    H156374   0.888   6.181   0.542 -1.5296  0.3320 -0.9502
11653TIP3    H256375   0.818   6.165   0.675 -0.8998 -0.0906 -0.6698
11654TIP3   OH256376   1.186   1.699  13.270 -0.1180 -0.4290  0.3666
11654TIP3    H156377   1.125   1.627  13.252  0.4336 -0.8553  0.1878
11654TIP3    H256378   1.212   1.684  13.361  1.2536 -1.4173 -0.1630
11655TIP3   OH256379   4.407   6.711   3.800 -0.1073  0.3766  0.3729
11655TIP3    H156380   4.465   6.686   3.872  1.0828  0.3429 -0.5668
11655TIP3    H256381   4.320   6.685   3.830  0.6446 -1.7991  0.8604
11656TIP3   OH256382   3.103   6.249   4.502  0.2058  0.0217  0.1244
11656TIP3    H156383   3.102   6.158   4.532  0.9410  0.2041  0.6987
11656TIP3    H256384   3.177   6.289   4.547  0.5080  0.6508 -0.8966
11657TIP3   OH256385   6.001   4.742  11.120  0.7688 -0.2112 -0.3226
11657TIP3    H156386   6.077   4.800  11.124  0.4801  0.0875  1.0818
11657TIP3    H256387   5.942   4.773  11.188 -1.0432  0.1090 -1.9396
11658TIP3   OH256388   0.759   6.078   4.778  0.0867  0.0894  0.1402
11658TIP3    H156389   0.853   6.089   4.792  0.1321  0.2500 -0.2615
11658TIP3    H256390   0.749   5.987   4.748  0.0684 -0.0431  0.5464
11659TIP3   OH256391   2.120   3.771  16.323  0.2723 -0.3407 -0.4550
11659TIP3    H156392   2.084   3.682  16.320  0.4061 -0.3857 -0.7302
11659TIP3    H256393   2.082   3.814  16.246 -0.2750  0.0255  0.0076
11660TIP3   OH256394   0.109   5.182   4.687  0.6812  0.6261  0.1090
11660TIP3    H156395   0.175   5.242   4.723  0.9503  0.0273  0.6213
11660TIP3    H256396   0.132   5.096   4.722 -0.1641  0.3460  0.0070
11661TIP3   OH256397   5.730   2.297  15.424 -0.1432 -0.4977  0.1828
11661TIP3    H156398   5.673   2.343  15.362 -1.3696 -1.0334  0.8875
11661TIP3    H256399   5.681   2.218  15.448  0.4544 -0.4732  1.5705
11662TIP3   OH256400   0.827   6.207  15.450 -0.4591  0.8638 -0.4115
11662TIP3    H156401   0.779   6.238  15.527 -0.2723  2.2268 -0.8285
11662TIP3    H256402   0.766   6.214  15.378 -0.1128  1.1641 -0.6791
11663TIP3   OH256403   3.393   4.551   4.298  0.0838 -0.2643 -0.1155
11663TIP3    H156404   3.337   4.500   4.239 -0.4622 -1.1524  1.1008
11663TIP3    H256405   3.362   4.641   4.289 -0.2781 -0.4574 -0.8612
11664TIP3   OH256406   5.861   6.790  14.819 -0.4318 -0.0097 -0.0514
11664TIP3    H156407   5.952   6.761  14.818 -0.5975 -0.5325 -0.1531
11664TIP3    H256408   5.829   6.765  14.906 -0.3598  0.5536  0.1410
11665TIP3   OH256409   6.243   5.007  14.286 -0.0936 -0.0355  0.2367
11665TIP3    H156410   6.270   5.096  14.305  2.0625 -0.5434 -0.2640
11665TIP3    H256411   6.260   4.959  14.367  2.4715 -0.7440 -0.6347
11666TIP3   OH256412   5.478   1.688  14.527 -0.3619  0.0359 -0.5256
11666TIP3    H156413   5.460   1.634  14.605 -0.2405 -1.1942 -1.3131
11666TIP3    H256414   5.571   1.710  14.534 -0.4551  0.3060 -0.1035
11667TIP3   OH256415   1.151   0.713   2.778  0.7351  0.4884 -0.1061
11667TIP3    H156416   1.136   0.803   2.809  0.3954  0.5056 -0.3143
11667TIP3    H256417   1.152   0.722   2.683  0.2368  0.1986 -0.1395
11668TIP3   OH256418   3.663   5.484   2.813 -0.4832  0.5256 -0.4023
11668TIP3    H156419   3.630   5.417   2.753 -0.1201  0.9833 -1.1286
11668TIP3    H256420   3.688   5.557   2.756 -2.3788  1.9378  0.4850
11669TIP3   OH256421   0.654   2.958   6.021 -0.1769  0.7743  0.5127
11669TIP3    H156422   0.578   2.905   6.046  0.1152  0.0000 -0.2145
11669TIP3    H256423   0.643   3.039   6.072 -0.6291  0.0349  1.6540
11670TIP3   OH256424   6.524   2.866  14.904 -0.6212  0.1186 -0.2115
11670TIP3    H156425   6.568   2.942  14.939 -0.1857  0.0935 -0.6964
11670TIP3    H256426   6.478   2.898  14.826  1.5662 -0.5553 -1.8887
11671TIP3   OH256427   2.694   1.124  15.327 -0.5402  0.1246 -0.3815
11671TIP3    H156428   2.697   1.106  15.421 -1.7780 -0.6395 -0.4567
11671TIP3    H256429   2.778   1.094  15.294 -1.0021 -1.8912  0.1407
11672TIP3   OH256430   5.318   2.913   2.306  0.2015 -0.0397 -0.4200
11672TIP3    H156431   5.306   2.924   2.211  0.8805 -0.1377 -0.5164
11672TIP3    H256432   5.347   2.822   2.316 -2.6803 -1.0171  0.1448
11673TIP3   OH256433   2.455   4.001   6.421 -0.0613 -0.2864 -0.0938
11673TIP3    H156434   2.540   3.958   6.427  1.0365  1.9014  1.6492
11673TIP3    H256435   2.426   4.010   6.512 -0.5440  1.8660 -0.3914
11674TIP3   OH256436   1.008   2.650  12.328 -0.3560  0.5425  0.2091
11674TIP3    H156437   1.053   2.566  12.333 -1.3342 -0.0673 -0.7861
11674TIP3    H256438   1.060   2.709  12.383  0.5327 -0.6205  0.6460
11675TIP3   OH256439   6.652   0.386  15.307 -0.1293  0.3750 -0.0146
11675TIP3    H156440   6.568   0.343  15.321  0.5248 -1.1213 -0.4662
11675TIP3    H256441   6.715   0.332  15.355  0.9149 -0.0205 -1.7237
11676TIP3   OH256442   2.865   6.792  12.012 -0.0405 -0.0845  0.1846
11676TIP3    H156443   2.913   6.791  12.095 -1.4698  0.8062  1.0732
11676TIP3    H256444   2.868   6.702  11.981  1.6745 -0.1656  0.4889
11677TIP3   OH256445   6.623   0.718  16.350  0.0777  0.1828  0.5162
11677TIP3    H156446   6.562   0.668  16.404 -1.3068  0.7950 -0.4162
11677TIP3    H256447   6.636   0.800  16.398  0.3447 -0.0438  0.8296
11678TIP3   OH256448   1.742   3.366   5.386  0.3380 -0.1606 -0.6642
11678TIP3    H156449   1.750   3.461   5.376 -1.7625  0.2138  0.6099
11678TIP3    H256450   1.699   3.337   5.306  1.2916 -0.1199 -1.2089
11679TIP3   OH256451   0.572   0.959   5.708 -0.8595  0.1676  1.0764
11679TIP3    H156452   0.537   0.870   5.705  1.0750 -0.6985  2.1180
11679TIP3    H256453   0.645   0.954   5.769  0.8414  1.9014 -0.6514
11680TIP3   OH256454   1.895   1.014   2.718  0.3032 -0.0832 -0.4130
11680TIP3    H156455   1.820   0.987   2.665  1.0675  1.5695 -2.4535
11680TIP3    H256456   1.927   1.094   2.676  0.4604  1.8618  3.0454
11681TIP3   OH256457   4.413   3.665  11.030 -0.1408 -0.2288 -0.3759
11681TIP3    H156458   4.460   3.679  11.113 -0.3789  0.4102 -0.3470
11681TIP3    H256459   4.481   3.673  10.963  0.0303 -0.6189 -0.2532
11682TIP3   OH256460   3.652   5.073  12.049  0.3932  0.2271  0.1154
11682TIP3    H156461   3.593   5.128  11.996  0.3700 -1.8240 -2.2051
11682TIP3    H256462   3.603   4.992  12.061  0.9477  0.1691  2.2976
11683TIP3   OH256463   1.228   1.225   3.817  0.2348 -0.3654 -0.4823
11683TIP3    H156464   1.227   1.320   3.823  2.3668 -0.1574 -2.3022
11683TIP3    H256465   1.250   1.195   3.906  0.6469  0.8797 -0.1523
11684TIP3   OH256466   1.916   0.131   2.865 -0.1910 -0.1545 -0.5811
11684TIP3    H156467   1.927   0.042   2.896  1.3381  0.2278  0.0875
11684TIP3    H256468   1.884   0.122   2.775  1.4591 -1.4370 -1.1023
11685TIP3   OH256469   2.099   6.031   4.857 -0.3808  0.5113  0.2720
11685TIP3    H156470   2.150   6.111   4.868  0.3896  0.0841 -0.0833
11685TIP3    H256471   2.039   6.050   4.786 -1.2918  1.2926  1.2267
11686TIP3   OH256472   2.432   3.910   1.645  0.2775 -0.4242  0.1919
11686TIP3    H156473   2.432   3.945   1.557 -2.0489 -2.5832 -0.8093
11686TIP3    H256474   2.501   3.843   1.645  0.7146  0.0258  0.2266
11687TIP3   OH256475   6.505   0.458  14.722 -0.0203 -0.3095  0.0291
11687TIP3    H156476   6.516   0.547  14.756 -0.3078 -0.2763  0.0418
11687TIP3    H256477   6.571   0.450  14.653  0.3868 -0.2852  0.4132
11688TIP3   OH256478   0.687   1.719   2.251  0.3054 -0.3122 -0.6272
11688TIP3    H156479   0.662   1.812   2.252 -0.5432 -0.5276 -0.4805
11688TIP3    H256480   0.736   1.707   2.332  1.1288  0.1868 -1.0427
11689TIP3   OH256481   5.215   3.987  10.747  0.0561  0.1366  0.2189
11689TIP3    H156482   5.180   3.956  10.663 -1.6570 -0.7359  1.1842
11689TIP3    H256483   5.269   3.915  10.779  1.4546  0.8261 -0.5085
11690TIP3   OH256484   4.989   0.352  16.468  0.8443  0.0050  0.4717
11690TIP3    H156485   4.981   0.258  16.485 -2.0707 -0.2218 -1.4573
11690TIP3    H256486   5.017   0.389  16.552 -2.8017 -2.0820  2.9193
11691TIP3   OH256487   1.757   5.565  11.905 -0.3531  0.2569 -0.6739
11691TIP3    H156488   1.749   5.492  11.843 -2.8456 -1.5775  1.5305
11691TIP3    H256489   1.822   5.535  11.969 -1.2345 -0.0091  0.1244
11692TIP3   OH256490   4.984   6.173  13.215 -0.0782  0.2935  0.0354
11692TIP3    H156491   5.018   6.259  13.191 -1.7053  0.9393 -0.0512
11692TIP3    H256492   4.967   6.178  13.309  1.1570 -0.4345  0.3250
11693TIP3   OH256493   0.117   4.043  15.346  0.3356  0.0538  0.0682
11693TIP3    H156494   0.090   4.100  15.419  0.5241 -0.1997  0.3420
11693TIP3    H256495   0.091   4.090  15.267 -1.0869 -0.2705  0.3193
11694TIP3   OH256496   0.562   0.873   2.563  0.0374 -0.4871 -0.2137
11694TIP3    H156497   0.575   0.929   2.639 -1.1249 -1.1775  0.5171
11694TIP3    H256498   0.597   0.788   2.590  1.8974 -0.1527 -1.3497
11695TIP3   OH256499   1.336   3.994   2.614  0.1626 -0.6652  0.1921
11695TIP3    H156500   1.408   3.953   2.566 -0.0392 -1.2855  0.4068
11695TIP3    H256501   1.378   4.059   2.670  0.3519  0.4461 -1.1896
11696TIP3   OH256502   4.892   4.045  13.043 -0.0996 -0.0458 -0.2587
11696TIP3    H156503   4.853   3.992  12.974  0.8373 -1.9374  0.5898
11696TIP3    H256504   4.864   4.003  13.124 -0.1531  1.3955  0.5085
11697TIP3   OH256505   6.371   5.383  12.935 -0.1928 -0.7145 -0.3521
11697TIP3    H156506   6.384   5.307  12.991 -0.7247 -0.5201  0.0454
11697TIP3    H256507   6.427   5.367  12.859 -0.7270 -1.7667 -0.5393
11698TIP3   OH256508   0.320   6.466   0.303  0.3631  0.2712 -0.1287
11698TIP3    H156509   0.360   6.384   0.333 -1.3729 -0.4126  0.4984
11698TIP3    H256510   0.359   6.534   0.357 -0.0705 -0.4945  1.1800
11699TIP3   OH256511   5.790   6.146  11.486 -0.0990 -0.0234 -0.3861
11699TIP3    H156512   5.860   6.116  11.544  0.9100  0.5735 -1.2613
11699TIP3    H256513   5.765   6.067  11.436 -1.8881 -0.8641  1.6963
11700TIP3   OH256514   6.378   4.373  13.868  0.4991 -0.4981 -0.4619
11700TIP3    H156515   6.352   4.290  13.908  1.1119 -0.8824 -0.8388
11700TIP3    H256516   6.357   4.439  13.935  1.0930 -1.0823  0.3288
11701TIP3   OH256517   2.940   6.722  13.248 -0.4782 -0.3484  0.0876
11701TIP3    H156518   2.983   6.674  13.178 -2.1020 -0.1245 -1.1262
11701TIP3    H256519   3.011   6.751  13.305  0.7826 -1.5394 -0.8241
11702TIP3   OH256520   0.506   6.030  13.328  0.4443  0.2887 -0.5559
11702TIP3    H156521   0.437   6.002  13.389 -0.4374  0.2914 -1.5179
11702TIP3    H256522   0.544   6.108  13.368  0.3957 -0.1448  0.3540
11703TIP3   OH256523   6.237   3.046   4.667  0.2891  0.3773  0.1119
11703TIP3    H156524   6.199   3.132   4.649 -0.7895  0.0608  0.7475
11703TIP3    H256525   6.249   3.006   4.581 -1.0970  0.3928 -0.1101
11704TIP3   OH256526   6.546   6.678  13.338  0.2047  0.3404 -0.4980
11704TIP3    H156527   6.510   6.759  13.375 -1.1098 -0.2419 -0.4670
11704TIP3    H256528   6.470   6.631  13.304  0.6727 -1.7553  1.1482
11705TIP3   OH256529   5.223   3.851   2.757 -0.2903 -0.0174  0.2572
11705TIP3    H156530   5.286   3.874   2.689  1.9892  0.0694  2.3017
11705TIP3    H256531   5.172   3.779   2.719  1.4383 -0.5062 -1.2518
11706TIP3   OH256532   0.239   4.489   5.150 -0.3459  0.4766  0.0724
11706TIP3    H156533   0.233   4.445   5.235 -1.5103 -1.0336 -0.7639
11706TIP3    H256534   0.155   4.534   5.140  0.0585  1.2387  0.0054
11707TIP3   OH256535   3.106   3.350   6.391  0.2865 -0.1208  0.4509
11707TIP3    H156536   3.198   3.346   6.419  0.5651  1.9351 -0.0071
11707TIP3    H256537   3.081   3.441   6.406 -1.9208 -0.8010  1.1994
11708TIP3   OH256538   1.607   4.255  15.098 -0.4980 -0.2673 -0.1326
11708TIP3    H156539   1.643   4.324  15.042 -1.4230  1.5204  1.3508
11708TIP3    H256540   1.560   4.198  15.037 -0.0620  0.6452 -1.3830
11709TIP3   OH256541   0.492   3.349  13.127  0.1054  0.4101  0.0295
11709TIP3    H156542   0.534   3.411  13.067  3.3913 -1.4005  0.2033
11709TIP3    H256543   0.469   3.274  13.072  0.2227  0.0247  0.4956
11710TIP3   OH256544   4.783   3.693   1.871  0.1075 -0.3529  0.1279
11710TIP3    H156545   4.812   3.630   1.937  0.8179 -0.2694 -0.1010
11710TIP3    H256546   4.729   3.641   1.811 -1.1980 -0.2762  1.1847
11711TIP3   OH256547   3.536   0.547  12.644  0.6577 -0.0394 -0.0650
11711TIP3    H156548   3.459   0.576  12.596  0.2799 -1.0872 -0.1130
11711TIP3    H256549   3.610   0.582  12.594  0.2433 -0.0808 -0.7214
11712TIP3   OH256550   1.003   4.968   6.125 -0.4404  0.1528 -0.1649
11712TIP3    H156551   0.911   4.960   6.151 -0.3813 -0.3974 -0.1170
11712TIP3    H256552   1.000   4.993   6.033 -0.6418  1.0608  0.0750
11713TIP3   OH256553   6.751   2.241  16.007 -0.6423 -0.6708 -0.6004
11713TIP3    H156554   6.838   2.280  16.012 -0.3258 -1.1848 -1.7913
11713TIP3    H256555   6.754   2.166  16.066 -1.0004  0.5808  1.0703
11714TIP3   OH256556   1.831   0.994  16.198  0.4839 -0.0170 -0.1161
11714TIP3    H156557   1.748   0.952  16.221  0.0592  0.3401 -0.9918
11714TIP3    H256558   1.894   0.922  16.196  0.1414 -0.3325  0.2404
11715TIP3   OH256559   4.935   6.342   4.511  0.2145 -0.6794  0.4579
11715TIP3    H156560   4.880   6.391   4.450 -1.0141  0.5261  2.4269
11715TIP3    H256561   4.888   6.261   4.527 -1.5300  0.6707  2.7272
11716TIP3   OH256562   6.846   0.293  15.000  0.2222  0.0415 -0.0505
11716TIP3    H156563   6.774   0.231  14.982  0.5238 -0.1358 -0.6981
11716TIP3    H256564   6.913   0.269  14.936  0.2825  1.1460 -0.4100
11717TIP3   OH256565   0.271   2.544  14.564 -0.4189  0.4339  0.2568
11717TIP3    H156566   0.259   2.539  14.659 -0.3544  2.6494  0.4289
11717TIP3    H256567   0.237   2.630  14.540 -0.5334 -0.1339 -1.7593
11718TIP3   OH256568   3.771   0.150   1.551 -0.0309  0.2774  0.3752
11718TIP3    H156569   3.749   0.118   1.638 -0.4052  0.0625  0.2009
11718TIP3    H256570   3.748   0.243   1.553  2.3032  0.9191  1.3230
11719TIP3   OH256571   1.091   4.498   4.888  0.0643 -0.4986 -0.0015
11719TIP3    H156572   1.075   4.587   4.858  0.5794 -0.8189 -1.3247
11719TIP3    H256573   1.009   4.452   4.871 -0.8820  0.1427  2.5183
11720TIP3   OH256574   0.427   5.095  16.589  1.0208 -0.6794  0.2315
11720TIP3    H156575   0.506   5.075  16.639  0.1509  0.0392  1.9818
11720TIP3    H256576   0.413   5.188  16.602  0.2424 -0.6628 -0.5958
11721TIP3   OH256577   2.879   1.243   0.681  0.6058 -0.3227 -0.7925
11721TIP3    H156578   2.834   1.320   0.716  0.9968 -1.0232  1.3697
11721TIP3    H256579   2.968   1.249   0.715  0.2244 -2.5318  0.8007
11722TIP3   OH256580   1.715   3.623  11.133  0.3004  0.0828  0.0721
11722TIP3    H156581   1.688   3.681  11.204 -1.9243  0.3806 -0.9082
11722TIP3    H256582   1.658   3.546  11.142  0.0712  0.0650 -1.2608
11723TIP3   OH256583   6.483   0.133  14.434  0.2816  0.5238  0.7571
11723TIP3    H156584   6.558   0.192  14.421  0.3057  0.5453  0.9944
11723TIP3    H256585   6.412   0.190  14.462  0.2219  0.4795  0.6968
11724TIP3   OH256586   0.442   2.033  12.590  0.4809  0.0333 -0.0161
11724TIP3    H156587   0.479   1.961  12.641  1.0310  0.4792  0.2273
11724TIP3    H256588   0.347   2.022  12.597  0.4551  1.0213  2.5089
11725TIP3   OH256589   6.222   0.147   0.008  0.0430 -0.5473 -0.0890
11725TIP3    H156590   6.161   0.078  -0.019  0.6856 -0.6010 -1.4963
11725TIP3    H256591   6.171   0.228   0.004 -0.2075 -0.7124 -0.2489
11726TIP3   OH256592   6.260   0.198   5.174  0.4742 -0.1126 -0.0772
11726TIP3    H156593   6.239   0.106   5.189 -0.9598  0.1551 -0.3651
11726TIP3    H256594   6.178   0.244   5.186  0.7549  0.9163 -1.7869
11727TIP3   OH256595   4.587   4.978  15.039 -0.3603  0.0770 -0.2138
11727TIP3    H156596   4.627   5.058  15.074 -1.9284  0.7047  0.2685
11727TIP3    H256597   4.612   4.909  15.101  0.5276  0.2999 -0.3123
11728TIP3   OH256598   3.389   5.093  13.974  0.3016 -0.3913  0.4404
11728TIP3    H156599   3.420   5.023  13.917  3.6690  0.3049  1.1850
11728TIP3    H256600   3.378   5.168  13.915 -0.8142 -0.8562  0.0378
11729TIP3   OH256601   1.131   1.658   1.713  0.1410  0.4938 -0.1688
11729TIP3    H156602   1.112   1.657   1.807 -1.3382 -1.4467 -0.4208
11729TIP3    H256603   1.068   1.720   1.677  0.4786  0.9838  0.0823
11730TIP3   OH256604   2.355   5.722   3.815 -0.3739 -0.0652 -0.0943
11730TIP3    H156605   2.434   5.775   3.818  0.2672 -1.0443  1.2700
11730TIP3    H256606   2.382   5.636   3.849 -2.0127 -0.4253  0.4049
11731TIP3   OH256607   3.750   3.359   0.017  0.1334 -0.1939 -0.0537
11731TIP3    H156608   3.735   3.399   0.102  1.1447 -0.5806  0.3233
11731TIP3    H256609   3.758   3.265   0.035  2.6347 -0.0725 -0.2159
11732TIP3   OH256610   2.264   4.351  14.892 -0.1820 -0.2142 -0.0901
11732TIP3    H156611   2.314   4.309  14.823 -0.6793 -0.4151 -0.3326
11732TIP3    H256612   2.328   4.366  14.962  0.0240 -1.3276 -0.0160
11733TIP3   OH256613   4.712   6.710  11.794 -0.6607  0.5628 -0.4063
11733TIP3    H156614   4.756   6.631  11.826  0.9035  1.1774 -0.9235
11733TIP3    H256615   4.696   6.692  11.701  0.2098  1.0379 -0.6629
11734TIP3   OH256616   2.132   1.231   3.179 -0.0902  0.0008  0.8035
11734TIP3    H156617   2.219   1.268   3.192 -0.2377  0.3364  0.8486
11734TIP3    H256618   2.137   1.186   3.094 -0.0247  0.4760  0.5493
11735TIP3   OH256619   0.036   1.139  15.867  0.1146  0.5987 -0.1073
11735TIP3    H156620   0.041   1.106  15.778  1.2003 -0.3849  0.2831
11735TIP3    H256621  -0.056   1.131  15.891 -0.3896  1.8624 -1.4705
11736TIP3   OH256622   5.522   2.665   3.355  0.3898 -0.5242  0.1484
11736TIP3    H156623   5.598   2.687   3.409  1.4798 -0.3606 -1.3689
11736TIP3    H256624   5.455   2.639   3.417  1.2089  0.7351  1.6407
11737TIP3   OH256625   4.085   4.330   3.246 -0.1103  0.6705 -0.0432
11737TIP3    H156626   4.135   4.395   3.295  0.1856  0.8076 -0.5253
11737TIP3    H256627   4.132   4.248   3.260  0.9154  1.0001 -1.4254
11738TIP3   OH256628   6.707   4.437   4.960  0.3001 -0.0120 -0.3087
11738TIP3    H156629   6.704   4.494   4.883  0.7167 -1.5671 -1.5315
11738TIP3    H256630   6.678   4.352   4.928  1.0310 -0.8428  1.1233
11739TIP3   OH256631   5.364   4.968  11.894 -0.5490  0.7054  0.3284
11739TIP3    H156632   5.302   4.945  11.962 -2.6846  0.6539 -1.5149
11739TIP3    H256633   5.433   4.902  11.900 -0.9629  0.4063  2.0593
11740TIP3   OH256634   3.064   3.159  15.248  0.2024  0.1972 -0.2718
11740TIP3    H156635   3.075   3.117  15.334 -0.1342  0.2555 -0.1974
11740TIP3    H256636   3.080   3.089  15.185 -0.4477 -0.0726 -0.1473
11741TIP3   OH256637   4.352   3.491  12.762  0.0527 -0.7910 -0.2236
11741TIP3    H156638   4.311   3.458  12.841 -0.5898  0.3677 -0.0512
11741TIP3    H256639   4.398   3.570  12.790 -0.1356 -0.4020 -0.9940
11742TIP3   OH256640   5.524   1.260   1.232  0.0927  0.6782  0.0864
11742TIP3    H156641   5.500   1.179   1.277 -1.4746  1.6962  1.1771
11742TIP3    H256642   5.508   1.241   1.140 -0.2134 -0.2598  0.3114
11743TIP3   OH256643   5.092   1.056   0.858  0.1549  0.5540 -0.5262
11743TIP3    H156644   5.150   1.050   0.933  1.7483  0.9019 -1.6839
11743TIP3    H256645   5.004   1.052   0.896  0.8837 -1.3672  1.1479
11744TIP3   OH256646   3.018   2.065   1.832 -0.0885 -0.1994  0.4970
11744TIP3    H156647   2.985   2.155   1.832 -0.0798 -0.1706  1.9778
11744TIP3    H256648   3.093   2.068   1.773  0.9686  1.2122  1.8112
11745TIP3   OH256649   4.432   3.888   4.349 -0.0721 -0.0864 -0.4906
11745TIP3    H156650   4.452   3.819   4.412  0.2412 -0.3852 -0.9130
11745TIP3    H256651   4.473   3.859   4.267  0.9009  1.0338 -0.4446
11746TIP3   OH256652   0.105   2.581  13.910 -0.0572 -0.5671  0.0727
11746TIP3    H156653   0.101   2.491  13.877 -0.6709 -0.7095  0.4928
11746TIP3    H256654   0.050   2.631  13.850  1.8173 -0.0762 -1.2870
11747TIP3   OH256655   1.042   1.942   9.844 -0.0562  0.1443  0.6451
11747TIP3    H156656   1.053   1.991   9.925  1.6856  2.1746 -0.6949
11747TIP3    H256657   1.022   2.009   9.778 -0.4025 -1.3007 -0.7845
11748TIP3   OH256658   2.934   1.564   0.512  0.0113  0.4333  0.8109
11748TIP3    H156659   2.940   1.589   0.604  1.3690  0.5100  0.7232
11748TIP3    H256660   2.977   1.635   0.465 -0.6250  0.3678  0.1047
11749TIP3   OH256661   3.976   2.826  15.507 -0.1313 -0.6888  0.0618
11749TIP3    H156662   3.988   2.861  15.596  1.0288 -1.1117  0.0893
11749TIP3    H256663   3.922   2.748  15.520  1.5089 -1.7855  0.6598
11750TIP3   OH256664   6.819   3.893  10.902 -0.1405 -0.0383  0.5401
11750TIP3    H156665   6.759   3.839  10.851  1.4371 -0.1913 -1.2586
11750TIP3    H256666   6.901   3.891  10.853  1.3956  0.0992  2.9161
11751TIP3   OH256667   2.783   4.122   6.081 -0.5189 -0.0297 -0.0971
11751TIP3    H156668   2.851   4.092   6.020  0.1014  1.1781 -0.0231
11751TIP3    H256669   2.766   4.045   6.137  0.8049 -0.3513 -0.1051
11752TIP3   OH256670   4.275   5.034  15.014 -0.0286  0.1674  0.0051
11752TIP3    H156671   4.363   4.998  15.028 -0.3014 -0.2921  0.6172
11752TIP3    H256672   4.226   4.962  14.974 -0.2376  0.2804  0.0590
11753TIP3   OH256673   5.674   4.286  12.424 -0.5556 -0.0134  0.1637
11753TIP3    H156674   5.701   4.197  12.399  2.8631  1.3095 -1.4463
11753TIP3    H256675   5.658   4.330  12.341  1.7739  1.9199  0.6470
11754TIP3   OH256676   0.500   5.903   5.331 -0.4564 -0.2858  0.0532
11754TIP3    H156677   0.591   5.909   5.360 -0.0963  1.2404 -1.2227
11754TIP3    H256678   0.498   5.950   5.247 -2.2649 -0.9507 -0.3331
11755TIP3   OH256679   3.264   0.894  16.095  0.1114  0.2777 -0.0921
11755TIP3    H156680   3.328   0.859  16.157  1.4201  2.2849 -0.1882
11755TIP3    H256681   3.270   0.989  16.106 -1.2046  0.6099 -1.7567
11756TIP3   OH256682   1.403   1.266   5.411  0.1474  0.1947 -0.0335
11756TIP3    H156683   1.410   1.356   5.379 -0.0322  0.6144  1.0331
11756TIP3    H256684   1.492   1.241   5.433  0.3004 -0.1785 -1.0672
11757TIP3   OH256685   5.455   1.283  16.444  0.4212 -0.1319  0.2548
11757TIP3    H156686   5.379   1.243  16.403  0.2713  1.1574 -0.7886
11757TIP3    H256687   5.458   1.372  16.408  2.4111 -0.1510  0.2551
11758TIP3   OH256688   0.605   3.900  16.418  0.7203 -0.3061 -0.2828
11758TIP3    H156689   0.526   3.866  16.460  1.3931 -0.0588  1.2481
11758TIP3    H256690   0.663   3.924  16.491  1.1171  2.1317 -1.3183
11759TIP3   OH256691   1.322   4.659   1.155  0.1750  0.4477  0.2262
11759TIP3    H156692   1.326   4.564   1.155  0.1269  0.4455 -0.1451
11759TIP3    H256693   1.334   4.684   1.247 -1.6648  0.0118  0.6318
11760TIP3   OH256694   0.803   6.183   4.334  0.3115  0.1445  0.4215
11760TIP3    H156695   0.893   6.215   4.342  0.5562 -0.4358  0.0536
11760TIP3    H256696   0.811   6.101   4.286 -0.3004 -0.5203  1.4232
11761TIP3   OH256697   0.900   5.129   3.062 -0.7213  0.3206 -0.0343
11761TIP3    H156698   0.902   5.204   3.122 -1.7982  0.4575 -0.1350
11761TIP3    H256699   0.977   5.078   3.084  0.4994  1.8727 -0.5118
11762TIP3   OH256700   1.097   2.572  13.945  0.2885 -0.2721 -0.7314
11762TIP3    H156701   1.134   2.657  13.967  1.6584 -1.0125 -0.0515
11762TIP3    H256702   1.043   2.548  14.020 -2.2008  1.0543 -1.9466
11763TIP3   OH256703   2.000   1.213  16.434  0.3510  0.1840  0.4347
11763TIP3    H156704   2.031   1.209  16.344  0.7773 -0.6115  0.6022
11763TIP3    H256705   2.030   1.299  16.466  1.5351 -0.1466  0.2739
11764TIP3   OH256706   4.702   1.974  11.647  0.5825 -0.0599 -0.2648
11764TIP3    H156707   4.609   1.978  11.626  0.1722  2.1536  1.5591
11764TIP3    H256708   4.747   1.994  11.565 -0.5029 -1.5665 -1.2547
11765TIP3   OH256709   0.386   3.456   3.722  0.2425  0.0850  0.5847
11765TIP3    H156710   0.306   3.422   3.682  0.3005 -0.1675  0.6833
11765TIP3    H256711   0.415   3.387   3.781  2.2169 -1.1584 -1.6814
11766TIP3   OH256712   0.511   2.122   1.560  0.0704 -0.1526  0.1276
11766TIP3    H156713   0.525   2.045   1.616 -1.6418 -0.8099 -0.3035
11766TIP3    H256714   0.596   2.135   1.516  0.0122 -2.7316 -0.9317
11767TIP3   OH256715   2.897   4.260   2.698  0.0611 -0.0782 -0.3266
11767TIP3    H156716   2.860   4.330   2.644  0.9056  0.3011 -0.4238
11767TIP3    H256717   2.848   4.264   2.780 -5.4169 -4.2901 -2.7580
11768TIP3   OH256718   0.408   1.348  10.073 -0.1166 -0.7002  0.1330
11768TIP3    H156719   0.492   1.302  10.072 -0.6326 -1.6693  0.6980
11768TIP3    H256720   0.402   1.389   9.987  0.0546 -2.2583 -0.6497
11769TIP3   OH256721   5.553   6.382   2.065 -0.2121 -0.6142 -0.0080
11769TIP3    H156722   5.628   6.405   2.119 -0.3355 -0.5605  0.1421
11769TIP3    H256723   5.554   6.445   1.994 -0.3891 -0.3169  0.2524
11770TIP3   OH256724   3.381   2.310   5.521 -0.2973  0.0010 -0.2402
11770TIP3    H156725   3.475   2.304   5.503  0.1698 -1.3563  2.1903
11770TIP3    H256726   3.373   2.387   5.578 -0.4306 -0.6242  0.6065
11771TIP3   OH256727   1.234   4.300   3.444  0.2215 -0.0395  0.2007
11771TIP3    H156728   1.306   4.354   3.412  1.3520 -2.4574 -1.7216
11771TIP3    H256729   1.276   4.216   3.465 -1.9170 -1.3256 -0.3909
11772TIP3   OH256730   2.110   1.748   3.601  0.1953 -0.0849  1.0584
11772TIP3    H156731   2.102   1.820   3.664 -1.1180 -0.3863  1.2734
11772TIP3    H256732   2.032   1.694   3.617  0.7877 -1.1637  0.4142
11773TIP3   OH256733   0.708   2.012  10.110  0.2720 -0.0933  0.2967
11773TIP3    H156734   0.670   1.981  10.192  0.0421 -0.2055  0.1495
11773TIP3    H256735   0.640   2.067  10.071  1.1532  1.6659  1.1710
11774TIP3   OH256736   3.718   2.684  11.889 -0.2692  0.6916  1.1545
11774TIP3    H156737   3.737   2.706  11.980 -2.3488 -0.5676  1.9645
11774TIP3    H256738   3.628   2.714  11.876  0.6566  2.8416 -1.2349
11775TIP3   OH256739   3.510   4.355  14.258  0.4133 -0.2054  0.1573
11775TIP3    H156740   3.417   4.357  14.235  0.8727  0.1099 -1.9067
11775TIP3    H256741   3.537   4.265  14.243  0.2789 -0.4999  1.5822
11776TIP3   OH256742   3.444   4.234   1.788 -0.1380 -0.1528  0.1527
11776TIP3    H156743   3.492   4.252   1.708  0.8321 -0.7747  0.5737
11776TIP3    H256744   3.508   4.246   1.858 -0.8357 -0.0962  0.7988
11777TIP3   OH256745   6.845   3.455   1.155 -0.4761 -0.4059  0.4447
11777TIP3    H156746   6.926   3.497   1.181  1.3804 -2.0975 -2.1225
11777TIP3    H256747   6.804   3.517   1.095  0.0284 -0.4534  0.0505
11778TIP3   OH256748   0.115   1.568   5.491 -0.2198 -0.9146 -0.3387
11778TIP3    H156749   0.069   1.575   5.575  1.0430 -1.3269  0.4129
11778TIP3    H256750   0.208   1.561   5.514  0.2217 -0.3632 -1.8016
11779TIP3   OH256751   3.558   4.423   5.593 -0.5598  0.1976 -0.0700
11779TIP3    H156752   3.616   4.353   5.563 -0.7830 -0.7916  1.6718
11779TIP3    H256753   3.617   4.492   5.624 -0.3299  0.2177 -0.5514
11780TIP3   OH256754   3.561   2.140  11.289  1.2934 -0.4828 -0.0114
11780TIP3    H156755   3.564   2.198  11.366  2.5731 -1.4177  0.6907
11780TIP3    H256756   3.538   2.197  11.216  2.1899  0.8550  0.7177
11781TIP3   OH256757   2.752   0.110   1.173 -0.4435 -0.1295  0.3305
11781TIP3    H156758   2.674   0.079   1.127 -0.6042  0.9715 -0.1773
11781TIP3    H256759   2.792   0.172   1.112  0.6872 -0.4757  0.6934
11782TIP3   OH256760   6.842   1.626  13.695  0.5518 -0.4468 -0.3626
11782TIP3    H156761   6.815   1.535  13.704  0.8559 -0.5393 -0.3818
11782TIP3    H256762   6.935   1.626  13.715  0.2819  0.0813  0.9815
11783TIP3   OH256763   0.412   0.825  15.850  0.0588  0.0728 -0.6688
11783TIP3    H156764   0.460   0.757  15.898  0.0909  1.9370  2.1989
11783TIP3    H256765   0.329   0.832  15.896  0.6207  2.8759  0.1118
11784TIP3   OH256766   5.144   1.362  11.537  0.2169  0.2793  0.1743
11784TIP3    H156767   5.110   1.420  11.469  0.4335  1.0203  0.6887
11784TIP3    H256768   5.187   1.420  11.599 -1.1173 -0.2519  1.6401
11785TIP3   OH256769   0.412   2.791   4.876 -0.2591 -0.3323 -0.2726
11785TIP3    H156770   0.320   2.793   4.902 -0.4225 -0.6000 -0.8124
11785TIP3    H256771   0.415   2.726   4.805  0.4800 -0.9016  0.2689
11786TIP3   OH256772   1.174   0.528  10.854 -0.2418 -0.4477  0.2299
11786TIP3    H156773   1.236   0.478  10.802  1.9675  1.6485  0.6753
11786TIP3    H256774   1.106   0.554  10.792  0.1022 -1.5196 -0.6207
11787TIP3   OH256775   2.647   2.597   3.776  0.1479  0.5090  0.1123
11787TIP3    H156776   2.652   2.603   3.872  0.0348 -0.8566  0.2283
11787TIP3    H256777   2.559   2.628   3.755 -0.1019  0.1100  0.5354
11788TIP3   OH256778   0.076   3.569   5.985 -0.1423  0.5777 -0.0116
11788TIP3    H156779  -0.007   3.525   5.963 -0.0562  1.0846 -1.4137
11788TIP3    H256780   0.140   3.498   5.988  0.2066  0.5924 -3.3141
11789TIP3   OH256781   4.456   1.923  11.483 -0.6081 -0.4446 -0.2492
11789TIP3    H156782   4.420   1.963  11.563  0.5578 -0.6361  0.3973
11789TIP3    H256783   4.428   1.831  11.488  0.3427 -0.7115  0.5040
11790TIP3   OH256784   4.440   6.722  11.786  0.0167 -0.3315 -0.1020
11790TIP3    H156785   4.536   6.724  11.791  0.1051 -1.4557 -1.0948
11790TIP3    H256786   4.412   6.719  11.877  0.9017  0.5420  0.2206
11791TIP3   OH256787   3.515   0.020   1.994 -0.2808  0.5328  0.1717
11791TIP3    H156788   3.537  -0.003   2.084  0.4300 -0.1252 -0.1627
11791TIP3    H256789   3.435  -0.029   1.975  0.5580 -0.7748 -0.1326
11792TIP3   OH256790   1.018   3.004   4.917  0.5123 -0.3411 -0.0934
11792TIP3    H156791   0.945   2.953   4.883 -0.0776  0.3485  0.1388
11792TIP3    H256792   1.027   2.975   5.008 -1.2387  1.4923  0.7296
11793TIP3   OH256793   4.433   1.074   4.654  0.0762  0.6474 -0.3053
11793TIP3    H156794   4.436   1.169   4.637 -0.2634  0.7550  0.2273
11793TIP3    H256795   4.344   1.049   4.633  0.2589  0.3804 -0.7649
11794TIP3   OH256796   2.099   2.324   1.304  0.2564  0.6554 -0.1220
11794TIP3    H156797   2.040   2.318   1.228  0.2498  0.8448 -0.1311
11794TIP3    H256798   2.042   2.305   1.379  0.0561  1.4224 -0.0771
11795TIP3   OH256799   1.348   2.984  15.869  0.5330  0.5191  0.2266
11795TIP3    H156800   1.419   2.920  15.857  0.2937  0.0911  0.9587
11795TIP3    H256801   1.269   2.930  15.873  0.2445  0.9347  0.1077
11796TIP3   OH256802   4.952   1.425  14.810 -0.0288 -0.2309 -0.3732
11796TIP3    H156803   4.967   1.422  14.904 -0.8015  1.0197 -0.1954
11796TIP3    H256804   4.878   1.365  14.796  0.1134 -0.4511 -0.1977
11797TIP3   OH256805   3.527   1.849  15.816 -0.1093 -0.1496  0.0645
11797TIP3    H156806   3.487   1.763  15.799  0.1698 -0.5380  1.3032
11797TIP3    H256807   3.457   1.901  15.856  0.0065 -0.1298  0.2428
11798TIP3   OH256808   2.583   4.761  15.637  0.5036  0.3543  0.6021
11798TIP3    H156809   2.580   4.702  15.562 -1.5844  1.4268 -0.2402
11798TIP3    H256810   2.523   4.723  15.701 -1.9342  2.1405 -0.4895
11799TIP3   OH256811   1.571   0.813   6.238  0.3995 -0.3031 -0.2819
11799TIP3    H156812   1.561   0.803   6.143 -1.5822 -0.2261 -0.1216
11799TIP3    H256813   1.493   0.861   6.265  1.2891  0.3242  1.3085
11800TIP3   OH256814   5.513   3.033   3.897 -0.4870 -0.0698  0.0645
11800TIP3    H156815   5.526   2.942   3.870 -1.1340  0.4833 -2.3909
11800TIP3    H256816   5.423   3.036   3.929  0.2907 -0.7374  2.5303
11801TIP3   OH256817   4.305   1.746  15.982 -0.5655  0.2891  0.5408
11801TIP3    H156818   4.219   1.706  15.997 -0.9638  1.4908  1.5927
11801TIP3    H256819   4.318   1.738  15.887 -1.6995 -0.1644  0.4023
11802TIP3   OH256820   2.684   2.859   4.433  0.4936 -0.9445  0.2782
11802TIP3    H156821   2.644   2.935   4.391  1.8732  0.2625  1.0773
11802TIP3    H256822   2.610   2.814   4.475 -0.0868  1.2738  1.8172
11803TIP3   OH256823   5.048   3.079  14.528  0.2951 -0.0308  0.1388
11803TIP3    H156824   5.064   2.985  14.518 -2.1172 -0.6076  0.9592
11803TIP3    H256825   5.119   3.110  14.584 -0.6045 -2.0862  2.6190
11804TIP3   OH256826   3.506   2.586   0.938  0.0545  0.1518  0.1609
11804TIP3    H156827   3.583   2.530   0.934 -0.7573 -0.9405 -1.1953
11804TIP3    H256828   3.436   2.530   0.971 -0.0763  1.2743  1.8884
11805TIP3   OH256829   1.845   1.864   2.917  0.3305  0.1249 -0.1560
11805TIP3    H156830   1.836   1.918   2.995 -1.4000 -1.1643  0.6187
11805TIP3    H256831   1.867   1.777   2.951  0.3107 -0.2818 -1.1598
11806TIP3   OH256832   3.774   1.041  10.731 -0.3478 -0.6055 -0.2436
11806TIP3    H156833   3.737   1.048  10.642 -0.7683  1.0164  0.0378
11806TIP3    H256834   3.868   1.033  10.717 -0.2710  1.0312 -0.8200
11807TIP3   OH256835   0.002   5.667   4.918  0.0198  0.1162 -0.4293
11807TIP3    H156836   0.079   5.686   4.864  0.2753 -1.3718 -0.6247
11807TIP3    H256837  -0.035   5.588   4.879  0.0582 -0.8502  1.4302
11808TIP3   OH256838   3.127   0.750   5.278 -0.0451  0.2372 -0.5410
11808TIP3    H156839   3.082   0.674   5.316 -2.2260  0.8775 -1.6411
11808TIP3    H256840   3.164   0.796   5.353 -1.5369 -0.1955  0.5229
11809TIP3   OH256841   6.165   3.948   2.910 -0.4532 -0.5187  0.8608
11809TIP3    H156842   6.229   4.011   2.877  0.2276 -2.4395 -1.7667
11809TIP3    H256843   6.206   3.911   2.988 -0.2657  1.2031  1.6272
11810TIP3   OH256844   3.336   0.296   3.330 -0.4929 -0.1566 -0.7442
11810TIP3    H156845   3.360   0.386   3.308  0.3973  0.0088  0.7596
11810TIP3    H256846   3.241   0.296   3.333 -0.5949  0.2472 -2.6143
11811TIP3   OH256847   2.135   0.126  12.616 -0.3288  0.2581 -0.1015
11811TIP3    H156848   2.186   0.202  12.646 -0.9408  0.4650  0.4175
11811TIP3    H256849   2.199   0.072  12.568  0.4877  0.2967  0.9157
11812TIP3   OH256850   3.047   5.086  13.195  0.3905 -0.2196  0.1245
11812TIP3    H156851   3.085   5.080  13.107 -0.0270 -0.1290 -0.0655
11812TIP3    H256852   3.108   5.142  13.243  0.4616 -0.0177 -0.1956
11813TIP3   OH256853   1.572   4.966   1.619 -0.5083 -0.2612  0.1074
11813TIP3    H156854   1.598   5.028   1.550  1.4761 -0.6177  0.4556
11813TIP3    H256855   1.635   4.981   1.689 -1.6900 -0.8079  1.3294
11814TIP3   OH256856   0.375   4.828   3.018 -0.2854  0.0544  0.0552
11814TIP3    H156857   0.391   4.889   3.090  0.0043  1.3240 -1.0573
11814TIP3    H256858   0.373   4.882   2.940 -1.5610 -1.1706 -0.8138
11815TIP3   OH256859   4.732   5.649   2.129 -0.3879  0.2040 -0.0307
11815TIP3    H156860   4.652   5.677   2.173 -1.5536  0.5382 -2.2553
11815TIP3    H256861   4.748   5.561   2.164 -0.9885  0.6046  1.3559
11816TIP3   OH256862   5.298   5.607  11.177  0.1039 -1.1531 -0.1049
11816TIP3    H156863   5.331   5.525  11.139 -1.7470 -1.3421 -1.3974
11816TIP3    H256864   5.237   5.579  11.245  1.0415 -0.8040  0.9146
11817TIP3   OH256865   2.658   0.694   0.176  0.1644  0.4756  0.5905
11817TIP3    H156866   2.662   0.599   0.162  0.7578  0.6090 -0.1616
11817TIP3    H256867   2.583   0.722   0.124  1.8614  0.8482 -1.7998
11818TIP3   OH256868   2.801   6.592  12.963 -0.9040 -0.0394  0.2441
11818TIP3    H156869   2.756   6.568  13.043 -1.1932 -1.7291 -0.3910
11818TIP3    H256870   2.733   6.592  12.896 -0.4794  0.3337 -0.2004
11819TIP3   OH256871   0.146   3.929  11.596  0.0635  0.4010  0.5462
11819TIP3    H156872   0.091   3.958  11.668 -0.1313  2.3434 -0.3235
11819TIP3    H256873   0.232   3.967  11.615  0.5158 -0.6841  0.7202
11820TIP3   OH256874   4.571   6.743   2.078  0.3662  0.2606  0.2999
11820TIP3    H156875   4.606   6.826   2.110  0.7501  0.0568  0.4083
11820TIP3    H256876   4.600   6.738   1.987  0.1990  0.3221  0.2419
11821TIP3   OH256877   6.023   6.099  11.665  0.0427 -0.1540 -0.1678
11821TIP3    H156878   6.053   6.110  11.755 -1.5747 -0.3538  0.4261
11821TIP3    H256879   6.098   6.124  11.611  1.1684 -0.4093  1.2286
11822TIP3   OH256880   2.729   4.090  13.072 -0.5954  0.1038  0.7968
11822TIP3    H156881   2.790   4.028  13.032 -0.9481 -0.5489  1.2491
11822TIP3    H256882   2.711   4.154  13.003 -0.9295 -0.8131  0.0183
11823TIP3   OH256883   4.029   0.847   4.397  0.1889  0.2942  0.7173
11823TIP3    H156884   3.975   0.824   4.322  2.5060  1.2225 -1.3798
11823TIP3    H256885   4.077   0.925   4.369  1.8385  0.1327  2.8156
11824TIP3   OH256886   0.670   3.972   1.302 -0.6042 -0.1792 -0.1315
11824TIP3    H156887   0.683   3.902   1.237  0.9067  0.8814 -1.0405
11824TIP3    H256888   0.576   3.989   1.301 -0.7547 -0.9333 -1.2557
11825TIP3   OH256889   6.750   0.486   5.417  0.0065  0.5254 -0.9170
11825TIP3    H156890   6.833   0.532   5.411 -0.0148  0.9232  1.1078
11825TIP3    H256891   6.745   0.456   5.508 -2.3037  1.0184 -0.8083
11826TIP3   OH256892   3.875   5.515   3.348  0.4444  0.0290 -0.4452
11826TIP3    H156893   3.876   5.426   3.314  0.1674  0.0859 -0.6025
11826TIP3    H256894   3.888   5.570   3.271 -0.9791  0.1984 -0.5926
11827TIP3   OH256895   6.569   6.389  12.015  0.0752  0.4655 -0.1781
11827TIP3    H156896   6.625   6.361  12.087  0.6492  0.7762 -0.4955
11827TIP3    H256897   6.485   6.409  12.057 -0.7489 -2.6889 -0.0621
11828TIP3   OH256898   4.977   0.491   2.160  0.4336  0.1411  0.0937
11828TIP3    H156899   5.057   0.509   2.210  0.9384 -1.8348  0.0996
11828TIP3    H256900   4.907   0.491   2.225  0.2580  2.5602 -0.0080
11829TIP3   OH256901   1.920   0.351  14.442  0.1538  0.1318  0.3443
11829TIP3    H156902   2.000   0.321  14.399 -0.0492  1.6045 -1.1896
11829TIP3    H256903   1.850   0.320  14.386 -0.1685  1.3718  0.0217
11830TIP3   OH256904   0.949   1.202   2.985  0.5229  0.2192 -0.2497
11830TIP3    H156905   1.002   1.257   2.927  0.3395  0.0853 -0.5469
11830TIP3    H256906   0.972   1.231   3.073  0.2885  0.9118 -0.4045
11831TIP3   OH256907   6.734   5.607  14.257  0.3168  0.3470 -0.0594
11831TIP3    H156908   6.655   5.608  14.311 -0.3053 -2.6263 -0.7376
11831TIP3    H256909   6.805   5.628  14.318 -0.8758  2.5467  0.6719
11832TIP3   OH256910   4.422   3.255  14.906 -0.6544 -0.1035  0.2051
11832TIP3    H156911   4.386   3.298  14.829  1.5587  0.6572 -0.4810
11832TIP3    H256912   4.382   3.301  14.980 -0.6335  1.1134 -0.5098
11833TIP3   OH256913   5.675   6.331  16.073  0.6084 -0.4375  0.7903
11833TIP3    H156914   5.650   6.244  16.044 -0.0595 -0.1567  0.4915
11833TIP3    H256915   5.592   6.380  16.077  1.1085  0.5483 -0.2904
11834TIP3   OH256916   2.366   1.077  16.653 -0.1117 -0.5263 -0.4612
11834TIP3    H156917   2.280   1.070  16.611 -0.9144 -1.8317  1.2559
11834TIP3    H256918   2.402   0.988  16.648 -0.9237 -1.1695  2.8147
11835TIP3   OH256919   3.178   1.317  10.819 -0.1301  0.3345 -0.3306
11835TIP3    H156920   3.188   1.351  10.907  1.6775 -0.4595 -0.1932
11835TIP3    H256921   3.251   1.355  10.770  0.2492 -1.0753 -0.8871
11836TIP3   OH256922   5.683   5.021   4.197  0.6523  0.2416  0.6736
11836TIP3    H156923   5.724   5.024   4.111 -0.7548  0.1580 -0.0333
11836TIP3    H256924   5.653   5.111   4.212  1.7770  0.4999  1.5596
11837TIP3   OH256925   5.929   6.275  14.900  0.2308  0.0551 -0.3732
11837TIP3    H156926   5.887   6.336  14.839 -1.1161 -0.0956  0.3682
11837TIP3    H256927   5.968   6.331  14.967 -0.6411  0.1304  0.0805
11838TIP3   OH256928   6.692   5.468  13.013 -0.1289 -0.5032  0.0177
11838TIP3    H156929   6.630   5.537  13.037 -2.4128 -2.3063 -0.3501
11838TIP3    H256930   6.706   5.480  12.919  0.6725  0.3316  0.2325
11839TIP3   OH256931   6.719   1.831   0.841  0.2140 -0.1024  0.1446
11839TIP3    H156932   6.792   1.833   0.780 -0.5233  0.9795 -0.7485
11839TIP3    H256933   6.760   1.836   0.927  1.2158 -0.3324 -0.3007
11840TIP3   OH256934   2.632   6.280  11.145  0.1653 -0.5491  0.1538
11840TIP3    H156935   2.556   6.224  11.128 -1.4225  1.8342 -1.2695
11840TIP3    H256936   2.690   6.265  11.071  0.2439 -1.0602  0.3151
11841TIP3   OH256937   4.202   4.642   2.384  0.4154 -0.0627  0.7856
11841TIP3    H156938   4.135   4.700   2.419  2.3908  1.5397  2.1017
11841TIP3    H256939   4.153   4.564   2.355 -2.0478  1.2862  1.0288
11842TIP3   OH256940   0.520   0.174  12.048 -0.3376  0.1228 -0.6865
11842TIP3    H156941   0.594   0.221  12.088  1.0429 -0.4192 -2.4567
11842TIP3    H256942   0.489   0.232  11.979 -0.8567 -0.1257 -0.6652
11843TIP3   OH256943   6.387   1.839   3.971 -0.0065 -0.1608 -0.2740
11843TIP3    H156944   6.447   1.800   3.908  2.4689  2.6714  0.0884
11843TIP3    H256945   6.322   1.885   3.918 -0.5450 -1.3203 -0.6668
11844TIP3   OH256946   4.407   1.697  11.733  0.3482 -0.2990 -0.1639
11844TIP3    H156947   4.420   1.659  11.646 -1.2738 -1.2605 -0.0423
11844TIP3    H256948   4.324   1.659  11.763  1.8512 -1.6471  2.6758
11845TIP3   OH256949   6.258   1.154   1.431  0.3126 -0.1041 -0.2824
11845TIP3    H156950   6.218   1.237   1.405  0.6576 -0.2959 -1.4455
11845TIP3    H256951   6.350   1.176   1.447 -0.0154  0.1471  1.4841
11846TIP3   OH256952   0.887   0.204   3.243 -0.5461  0.0189  0.1596
11846TIP3    H156953   0.858   0.121   3.203 -1.6031 -0.1232  1.1825
11846TIP3    H256954   0.982   0.203   3.232 -0.7334 -0.1787 -2.0105
11847TIP3   OH256955   1.320   4.923   1.538 -0.5022 -0.0930 -0.1386
11847TIP3    H156956   1.409   4.933   1.571 -0.7103 -0.9752  0.7448
11847TIP3    H256957   1.325   4.950   1.446  0.2530  1.6683  0.3813
11848TIP3   OH256958   2.802   2.747  14.747  0.7130 -0.1693  0.2354
11848TIP3    H156959   2.792   2.796  14.665 -0.8898 -0.6062  0.1313
11848TIP3    H256960   2.838   2.810  14.809  2.1011  0.1368 -0.8100
11849TIP3   OH256961   2.586   3.276   5.051 -0.3817  0.2403  0.0758
11849TIP3    H156962   2.528   3.336   5.002 -0.2163  0.8555  0.6234
11849TIP3    H256963   2.529   3.202   5.074 -0.7747  0.5104 -0.0041
11850TIP3   OH256964   5.262   4.544   5.378 -0.0826 -0.1991 -0.3389
11850TIP3    H156965   5.286   4.452   5.388  0.4898 -0.1535 -1.2516
11850TIP3    H256966   5.310   4.589   5.448 -0.3779 -0.5862  0.1216
11851TIP3   OH256967   2.994   2.356  15.144  0.4204  0.0553 -0.5118
11851TIP3    H156968   3.060   2.363  15.075  0.3242  1.4422 -0.4796
11851TIP3    H256969   3.028   2.288  15.202  1.1446 -0.2153 -1.2295
11852TIP3   OH256970   2.898   6.113  10.041  0.5968  0.0030 -0.4350
11852TIP3    H156971   2.860   6.194  10.008 -0.6067 -0.0051  0.8563
11852TIP3    H256972   2.972   6.141  10.095  0.3556  0.2325 -0.2203
11853TIP3   OH256973   2.697   4.316   1.098  0.0813  0.7944 -0.2819
11853TIP3    H156974   2.780   4.355   1.125 -0.4366  2.3575 -0.8289
11853TIP3    H256975   2.716   4.277   1.012  0.7279 -0.6931  0.4901
11854TIP3   OH256976   3.965   4.656   3.457 -0.3431  0.3729 -0.1792
11854TIP3    H156977   4.049   4.672   3.415 -0.1337  1.4040  0.6125
11854TIP3    H256978   3.940   4.740   3.495 -0.6248 -0.4830  1.5938
11855TIP3   OH256979   1.895   5.718  11.733  0.5181 -0.2529  0.0633
11855TIP3    H156980   1.884   5.808  11.762  0.5031 -0.4612  0.7284
11855TIP3    H256981   1.826   5.670  11.779 -0.8410 -0.2779 -1.8869
11856TIP3   OH256982   3.163   3.505   5.368 -0.0573 -0.7369  0.1521
11856TIP3    H156983   3.242   3.502   5.315 -0.9657 -0.8111 -1.2311
11856TIP3    H256984   3.188   3.557   5.445  1.2544 -0.5669 -0.3693
11857TIP3   OH256985   5.678   3.555   0.693  0.0208  0.2865  0.7998
11857TIP3    H156986   5.598   3.504   0.699 -1.6620  2.2159 -2.3366
11857TIP3    H256987   5.660   3.634   0.744 -0.6507  1.2671 -0.8799
11858TIP3   OH256988   1.916   2.426  14.528 -0.2126 -0.0067  0.8007
11858TIP3    H156989   1.862   2.505  14.529  0.0765  0.2678 -0.9937
11858TIP3    H256990   1.914   2.397  14.437  0.2488 -1.6958  1.2858
11859TIP3   OH256991   2.794   0.908   2.794 -0.1917  0.0721  0.2410
11859TIP3    H156992   2.728   0.865   2.849 -1.2898 -0.7102 -1.6130
11859TIP3    H256993   2.748   0.982   2.754  0.2461 -0.0940 -0.5769
11860TIP3   OH256994   0.355   6.858   1.903  0.0953  0.1309 -0.7688
11860TIP3    H156995   0.362   6.947   1.867  0.7143  1.1557  1.6884
11860TIP3    H256996   0.271   6.857   1.948  0.1452 -0.4871 -0.6804
11861TIP3   OH256997   3.182   2.583  15.894  0.0387 -0.2673 -0.1511
11861TIP3    H156998   3.132   2.510  15.932 -1.2927  0.5766 -0.2329
11861TIP3    H256999   3.126   2.616  15.824  0.0498  1.6016  0.6663
11862TIP3   OH257000   6.174   4.341  14.232  0.4532  0.2200 -0.5413
11862TIP3    H157001   6.100   4.329  14.291  0.3473  1.0063 -0.5050
11862TIP3    H257002   6.251   4.321  14.285  0.3259  0.3350 -0.3149
11863TIP3   OH257003   1.140   4.341   5.587 -0.1703  0.1494 -0.3837
11863TIP3    H157004   1.068   4.398   5.560  0.7854  1.5585 -0.0811
11863TIP3    H257005   1.113   4.253   5.559 -1.4382  0.8171 -1.3789
11864TIP3   OH257006   6.406   0.387   2.156  0.0218  0.2511 -0.3231
11864TIP3    H157007   6.372   0.433   2.233  0.0303  0.8128 -0.6542
11864TIP3    H257008   6.338   0.322   2.135  0.5219 -0.6815  0.8322
11865TIP3   OH257009   0.105   4.384  13.888 -0.2233  0.0364  0.3331
11865TIP3    H157010   0.154   4.302  13.897 -1.3460 -0.7183 -0.2172
11865TIP3    H257011   0.168   4.445  13.850  0.8310 -0.3525  1.3946
11866TIP3   OH257012   5.606   0.346   4.796  0.4516 -0.1566  0.8539
11866TIP3    H157013   5.646   0.358   4.709  1.8579  1.4835  1.6560
11866TIP3    H257014   5.641   0.262   4.827 -2.0515 -2.0612 -1.1017
11867TIP3   OH257015   3.467   4.439  15.525 -0.0536 -0.1319 -0.4353
11867TIP3    H157016   3.409   4.494  15.473  0.1604 -1.2855 -1.9556
11867TIP3    H257017   3.415   4.361  15.544  0.5628 -0.6119 -0.7065
11868TIP3   OH257018   5.938   5.139  14.092  0.3212 -0.0826  0.3781
11868TIP3    H157019   6.018   5.163  14.045 -0.3780 -0.4293 -1.0281
11868TIP3    H257020   5.899   5.222  14.118 -0.2943  0.2268 -1.4152
11869TIP3   OH257021   0.256   0.505  11.966  0.1893 -0.3131  0.1834
11869TIP3    H157022   0.309   0.542  11.895  0.4656  0.4121  0.7514
11869TIP3    H257023   0.195   0.446  11.922  0.6376 -0.2000 -0.6129
11870TIP3   OH257024   2.208   6.871  14.836 -0.3349 -0.1319  0.0603
11870TIP3    H157025   2.121   6.888  14.800  0.2922  2.9248 -0.3553
11870TIP3    H257026   2.268   6.910  14.772  1.3893 -2.1079  0.3670
11871TIP3   OH257027   0.915   5.952  14.788  0.2383  0.6563 -0.1883
11871TIP3    H157028   0.960   5.983  14.709  0.2648  1.4179  0.1128
11871TIP3    H257029   0.826   5.932  14.759 -0.1694  2.2703 -0.1627
11872TIP3   OH257030   2.161   3.006  14.648  0.3415  0.3728 -0.3893
11872TIP3    H157031   2.170   3.062  14.726  0.4071 -1.0036  0.6413
11872TIP3    H257032   2.195   2.921  14.676 -0.5311 -0.4186 -1.6374
11873TIP3   OH257033   5.508   5.798   3.123 -0.2811 -0.1594  0.1841
11873TIP3    H157034   5.418   5.815   3.097  0.5149  3.8833 -0.5610
11873TIP3    H257035   5.501   5.767   3.214 -2.4273  3.3819  1.4474
11874TIP3   OH257036   0.466   3.738  13.730  0.2047 -0.0825 -0.3699
11874TIP3    H157037   0.492   3.699  13.647  4.2152  1.1260  0.1008
11874TIP3    H257038   0.413   3.813  13.705 -0.3001 -0.8343 -1.6957
11875TIP3   OH257039   1.064   3.504  16.373 -0.1229  0.4626  0.2723
11875TIP3    H157040   1.013   3.584  16.364 -1.2541 -0.4385 -2.3418
11875TIP3    H257041   1.003   3.434  16.352  1.5443 -0.8688 -0.4035
11876TIP3   OH257042   0.443   4.268  11.050  0.6107  0.5097 -0.7670
11876TIP3    H157043   0.363   4.304  11.010 -0.3317 -1.4649 -0.7513
11876TIP3    H257044   0.471   4.200  10.989 -0.1019 -1.6722  1.2169
11877TIP3   OH257045   1.377   4.887   3.186 -0.1116  0.3612 -0.2563
11877TIP3    H157046   1.406   4.796   3.178 -0.2492  0.2438  0.5418
11877TIP3    H257047   1.434   4.925   3.253 -1.0298  0.4375  0.5087
11878TIP3   OH257048   3.362   3.750   1.019  0.6266  0.1856 -0.2133
11878TIP3    H157049   3.316   3.770   1.101  0.2607  0.4964 -0.4892
11878TIP3    H257050   3.297   3.701   0.968  0.2291  1.5094 -1.0213
11879TIP3   OH257051   0.929   0.779  10.797 -0.0344  0.4628 -0.1191
11879TIP3    H157052   0.861   0.825  10.748 -0.9547  0.4946  1.1129
11879TIP3    H257053   0.939   0.695  10.753  1.2975  1.5812 -2.0923
11880TIP3   OH257054   0.469   0.837   0.470 -0.3574  0.6009 -0.2144
11880TIP3    H157055   0.473   0.758   0.416 -2.5369 -1.5291  2.3950
11880TIP3    H257056   0.390   0.883   0.442 -0.0420  0.9201 -0.5819
11881TIP3   OH257057   3.472   0.935  15.810 -0.2234  0.0605  0.1324
11881TIP3    H157058   3.466   0.890  15.725 -0.4018  0.7911 -0.2494
11881TIP3    H257059   3.389   0.914  15.854 -0.0377 -0.4993  0.2192
11882TIP3   OH257060   1.955   0.980   4.657 -0.2068  0.4896 -0.0512
11882TIP3    H157061   2.008   0.985   4.737 -1.3055  0.6673  0.6966
11882TIP3    H257062   1.979   1.059   4.608 -1.0834  1.5408  1.1400
11883TIP3   OH257063   3.643   4.510  12.811 -0.1289  0.4707 -0.1610
11883TIP3    H157064   3.699   4.484  12.737 -1.3265 -1.6202 -0.4251
11883TIP3    H257065   3.698   4.496  12.888 -0.3420 -2.0442 -0.3786
11884TIP3   OH257066   4.601   4.560   4.462  0.1051  0.7603 -0.1539
11884TIP3    H157067   4.690   4.554   4.494  0.9120  3.9678 -1.3920
11884TIP3    H257068   4.567   4.471   4.468  2.2078  0.0287  3.4739
11885TIP3   OH257069   6.482   6.325   5.009 -0.0197  0.2702  0.2670
11885TIP3    H157070   6.402   6.272   5.010  0.1812 -0.0290  0.9530
11885TIP3    H257071   6.525   6.302   4.926 -0.2791 -0.1183  0.2403
11886TIP3   OH257072   3.527   5.677   4.732  0.7203  0.4455 -0.1291
11886TIP3    H157073   3.501   5.585   4.730  0.5523  0.4822  0.2418
11886TIP3    H257074   3.610   5.680   4.683  0.9947  0.0071  0.2968
11887TIP3   OH257075   6.889   1.469  12.709 -0.1247  0.1864  0.1527
11887TIP3    H157076   6.862   1.535  12.646 -1.3666 -1.5462 -1.2242
11887TIP3    H257077   6.964   1.426  12.667 -0.3040 -0.3005  0.3298
11888TIP3   OH257078   1.851   6.413   2.749  0.0540  0.9480  0.2612
11888TIP3    H157079   1.810   6.332   2.719 -0.3409  0.4796  1.9495
11888TIP3    H257080   1.942   6.389   2.765 -0.1383  0.7302  1.0782
11889TIP3   OH257081   0.728   3.756  11.358  0.2969 -0.3711 -0.4590
11889TIP3    H157082   0.687   3.814  11.422  0.7438 -1.1467  0.5641
11889TIP3    H257083   0.716   3.668  11.395  1.7672 -0.7142 -0.7649
11890TIP3   OH257084   1.538   6.163   6.061 -0.4514 -0.0944 -0.4804
11890TIP3    H157085   1.578   6.221   5.997  1.7566 -0.1038  0.7752
11890TIP3    H257086   1.443   6.174   6.049 -0.0997  2.4249 -1.4485
11891TIP3   OH257087   5.231   2.943  16.077  0.0293 -0.3289 -0.1342
11891TIP3    H157088   5.156   2.999  16.099 -0.2124 -1.7885  3.4613
11891TIP3    H257089   5.293   3.001  16.034 -2.6750  1.1566 -2.3871
11892TIP3   OH257090   2.947   2.800   3.443 -0.1981  0.3230 -0.6529
11892TIP3    H157091   2.940   2.782   3.537 -0.5198  0.1828 -0.7038
11892TIP3    H257092   3.035   2.836   3.433  0.9538 -2.2293 -0.7051
11893TIP3   OH257093   1.759   5.516  13.160  0.3734 -0.7637 -0.1240
11893TIP3    H157094   1.668   5.529  13.185  1.1600  2.2183  1.6177
11893TIP3    H257095   1.810   5.568  13.222  3.3569 -2.7289 -0.6837
11894TIP3   OH257096   4.299   6.865  15.274 -0.0310  0.0026  0.0594
11894TIP3    H157097   4.343   6.921  15.210 -0.9684 -1.5319 -2.0384
11894TIP3    H257098   4.210   6.900  15.280  0.1765  0.4164  0.9210
11895TIP3   OH257099   1.622   5.914  16.053 -0.3808  0.2273  0.1599
11895TIP3    H157100   1.568   5.855  16.107  0.6583 -0.5847  0.3408
11895TIP3    H257101   1.665   5.971  16.116 -0.3414  0.2850  0.0800
11896TIP3   OH257102   3.893   0.956  13.777  0.2792 -0.3617 -0.2922
11896TIP3    H157103   3.834   0.996  13.714  0.2256  0.6788  0.3850
11896TIP3    H257104   3.840   0.891  13.823 -0.4353  0.7371  0.4797
11897TIP3   OH257105   3.805   1.752   0.794  0.1501 -0.5578  0.5301
11897TIP3    H157106   3.798   1.817   0.864  1.0282 -0.7206  0.7730
11897TIP3    H257107   3.898   1.734   0.787  0.0920 -0.4310 -0.7978
11898TIP3   OH257108   4.299   3.534   4.794 -0.2667 -0.1218  0.1692
11898TIP3    H157109   4.209   3.502   4.806 -0.1745 -0.0661  1.0127
11898TIP3    H257110   4.302   3.616   4.843  0.0563  0.2215 -0.4158
11899TIP3   OH257111   3.591   3.845   0.823  0.3571  0.0326  0.0846
11899TIP3    H157112   3.614   3.830   0.915 -0.8168  0.1368  0.4092
11899TIP3    H257113   3.498   3.867   0.825  0.1640 -0.6076 -1.2060
11900TIP3   OH257114   4.054   5.210   5.948 -0.0616  0.1277 -0.1452
11900TIP3    H157115   4.090   5.224   6.036 -1.5457 -0.5291  0.5944
11900TIP3    H257116   4.093   5.127   5.920  1.3026  0.8966 -0.6058
11901TIP3   OH257117   2.022   6.267  12.428  0.2378  0.7348 -0.1720
11901TIP3    H157118   1.968   6.345  12.443  1.1658  1.3208  0.1802
11901TIP3    H257119   2.064   6.250  12.513  0.3633  0.1054 -0.3598
11902TIP3   OH257120   6.454   0.082   0.440  0.4564 -0.4481  0.0249
11902TIP3    H157121   6.363   0.072   0.411  0.0293 -1.7839  1.6648
11902TIP3    H257122   6.459   0.172   0.472  0.6703  0.7435 -3.0025
11903TIP3   OH257123   0.772   6.810   6.129  0.0342  0.5913  0.0102
11903TIP3    H157124   0.714   6.735   6.134 -0.0580  0.7342  1.4689
11903TIP3    H257125   0.848   6.779   6.079 -0.6440 -0.0070 -0.6771
11904TIP3   OH257126   1.676   3.127  14.419 -0.3479  0.0320  0.0831
11904TIP3    H157127   1.758   3.101  14.461  0.2794  0.9429 -0.5293
11904TIP3    H257128   1.636   3.045  14.391  0.3524 -0.4244  0.3975
11905TIP3   OH257129   2.652   2.078   2.607 -0.2134  0.0323  0.0301
11905TIP3    H157130   2.694   2.148   2.557 -0.5909 -0.6285 -1.2707
11905TIP3    H257131   2.705   2.068   2.685  3.0176 -1.7252 -2.1579
11906TIP3   OH257132   1.111   3.572  11.754  0.0445  0.2040 -0.0593
11906TIP3    H157133   1.098   3.629  11.830  2.3489  0.4738  0.2015
11906TIP3    H257134   1.147   3.491  11.790  1.6204  0.5038 -0.8512
11907TIP3   OH257135   0.630   1.265  12.911  0.2225  0.0902 -0.0106
11907TIP3    H157136   0.625   1.170  12.925 -0.9689  0.0135 -0.7866
11907TIP3    H257137   0.548   1.286  12.865  1.2899  1.1972 -1.4945
11908TIP3   OH257138   5.299   5.019   4.144  0.2167 -0.0710  0.7538
11908TIP3    H157139   5.283   5.110   4.168  0.3709 -0.2313  1.4839
11908TIP3    H257140   5.359   5.024   4.070  0.6041  0.4094  1.0942
11909TIP3   OH257141   2.533   6.391   2.106 -0.6017 -0.1724  0.4959
11909TIP3    H157142   2.583   6.395   2.187 -0.0465  0.1892  0.1517
11909TIP3    H257143   2.549   6.476   2.064 -0.9044 -0.3382  0.0309
11910TIP3   OH257144   1.971   4.353   4.584 -0.1532 -0.6715  0.3150
11910TIP3    H157145   1.963   4.418   4.514  1.2889 -1.5910 -0.7771
11910TIP3    H257146   1.929   4.275   4.548  2.6352 -1.8834 -0.6091
11911TIP3   OH257147   6.786   2.896  15.485  0.4584 -0.1442  0.1210
11911TIP3    H157148   6.717   2.950  15.447 -0.6862 -2.3917 -1.2032
11911TIP3    H257149   6.865   2.922  15.439 -0.0266  0.4979 -0.3700
11912TIP3   OH257150   4.276   3.859  11.393  0.5713 -0.2341 -0.2267
11912TIP3    H157151   4.303   3.911  11.318 -1.1312  0.0347 -0.6880
11912TIP3    H257152   4.356   3.814  11.421  1.1378 -0.6931 -2.4545
11913TIP3   OH257153   0.758   2.941   2.371 -0.0379  0.1201 -0.0935
11913TIP3    H157154   0.828   2.899   2.420  1.8068  0.6177 -2.1289
11913TIP3    H257155   0.780   3.034   2.371 -0.1592  0.1827 -1.4956
11914TIP3   OH257156   5.162   1.399   0.385 -1.1619  0.0907  0.1389
11914TIP3    H157157   5.083   1.451   0.373 -1.2461  0.0134  0.3419
11914TIP3    H257158   5.195   1.384   0.297 -1.4422  0.0214  0.0447
11915TIP3   OH257159   0.749   0.777  11.348 -0.4593  0.1157 -0.0327
11915TIP3    H157160   0.768   0.858  11.301 -1.3667  1.8865  2.4443
11915TIP3    H257161   0.805   0.711  11.307  1.0717  2.2027 -1.4794
11916TIP3   OH257162   5.160   2.058   0.018 -0.6112  0.0601 -0.6113
11916TIP3    H157163   5.221   2.087   0.086 -1.0467  0.1849 -0.2692
11916TIP3    H257164   5.161   1.963   0.024 -0.1547  0.0489 -0.8677
11917TIP3   OH257165   1.879   3.968   4.011 -0.1771  0.0069  0.3089
11917TIP3    H157166   1.877   3.873   4.020 -0.0033  0.1047  1.5937
11917TIP3    H257167   1.805   3.999   4.064  0.6552  0.6479  1.1261
11918TIP3   OH257168   4.424   6.517   2.164 -0.4420  0.1071 -0.6467
11918TIP3    H157169   4.502   6.571   2.152  0.6161 -1.3994 -0.9073
11918TIP3    H257170   4.384   6.514   2.077  0.4183 -0.8464 -1.0263
11919TIP3   OH257171   3.435   5.778   2.429  0.2099  0.3216  0.6664
11919TIP3    H157172   3.397   5.718   2.492 -0.0611  1.0439  1.2064
11919TIP3    H257173   3.512   5.815   2.473  0.3611  0.3888  0.3524
11920TIP3   OH257174   2.819   4.143  10.853  0.7296 -0.2998 -0.8696
11920TIP3    H157175   2.836   4.216  10.794 -0.4747 -0.2190 -1.1486
11920TIP3    H257176   2.734   4.164  10.893  1.3941 -0.4558  0.7339
11921TIP3   OH257177   0.955   5.838   1.765  0.0931  0.4904  0.0823
11921TIP3    H157178   0.902   5.804   1.693 -1.6116 -0.1551  1.5725
11921TIP3    H257179   1.023   5.771   1.777 -1.0146 -0.5928  0.5569
11922TIP3   OH257180   1.266   4.439   2.477  0.2841 -0.2128  0.6394
11922TIP3    H157181   1.206   4.416   2.548 -1.0013 -0.1044 -0.3868
11922TIP3    H257182   1.275   4.358   2.427  0.2893  0.0147  0.2730
11923TIP3   OH257183   4.607   3.414   0.048  0.1358 -0.3645 -0.3866
11923TIP3    H157184   4.592   3.381  -0.041  0.4425  0.7200 -0.8654
11923TIP3    H257185   4.616   3.509   0.037 -1.4700  0.0028  1.0195
11924TIP3   OH257186   0.302   5.330   4.101 -0.0730  0.6782  0.5814
11924TIP3    H157187   0.353   5.393   4.153  2.5585 -0.7438 -0.0812
11924TIP3    H257188   0.265   5.270   4.165  1.7492 -0.0866  0.9661
11925TIP3   OH257189   2.845   0.502   3.960 -0.1365 -0.1413 -0.1808
11925TIP3    H157190   2.887   0.450   3.892  1.6027  0.8657  0.0576
11925TIP3    H257191   2.781   0.443   4.000  1.4019 -1.9514 -0.2330
11926TIP3   OH257192   1.919   6.413   3.696 -0.2017  0.0074 -0.8060
11926TIP3    H157193   1.955   6.498   3.723  0.7357 -0.3715 -0.8266
11926TIP3    H257194   1.851   6.394   3.761  1.9907 -0.8804  1.3861
11927TIP3   OH257195   6.636   4.296  14.520 -0.5691 -0.0409  0.0032
11927TIP3    H157196   6.573   4.235  14.557 -2.1985  1.7690  0.3390
11927TIP3    H257197   6.694   4.318  14.593 -1.8148  1.0668  0.6957
11928TIP3   OH257198   3.624   4.425   0.701 -0.1421 -0.1143 -0.8323
11928TIP3    H157199   3.678   4.352   0.732  1.0842  0.5308 -1.3583
11928TIP3    H257200   3.547   4.424   0.758  0.4578 -1.0324  0.0041
11929TIP3   OH257201   3.323   3.124   2.161 -0.3760  0.2297 -0.1765
11929TIP3    H157202   3.395   3.064   2.176 -0.2856  0.6175  1.0097
11929TIP3    H257203   3.316   3.129   2.065  0.7041 -0.3457 -0.3005
11930TIP3   OH257204   3.721   2.056  13.887 -0.2105  0.2427 -0.0906
11930TIP3    H157205   3.776   1.979  13.875  1.4926  1.3400  0.3026
11930TIP3    H257206   3.719   2.098  13.801 -1.7168 -0.5569 -0.4854
11931TIP3   OH257207   5.041   0.367   4.736  0.2519  0.3520  0.2957
11931TIP3    H157208   5.100   0.438   4.715  0.0955  0.2207 -0.6007
11931TIP3    H257209   5.090   0.287   4.715 -0.0908  0.2318 -0.0515
11932TIP3   OH257210   2.079   0.667  15.570 -0.4454  0.4132 -0.2851
11932TIP3    H157211   2.040   0.652  15.484  0.1155 -0.2052 -0.4438
11932TIP3    H257212   2.172   0.680  15.553  0.1599 -2.2780  0.3850
11933TIP3   OH257213   0.161   5.404  11.550  0.3128 -0.2228  0.1441
11933TIP3    H157214   0.173   5.342  11.479  0.9457 -1.8224  1.5967
11933TIP3    H257215   0.142   5.351  11.627 -0.5581  1.4581  1.1715
11934TIP3   OH257216   0.188   5.994  10.225  0.4745  0.5841  0.6337
11934TIP3    H157217   0.126   6.009  10.154  0.8923 -2.0652 -0.4273
11934TIP3    H257218   0.273   6.016  10.187  1.0171 -3.0984 -0.7319
11935TIP3   OH257219   0.649   4.053  15.193  0.4069  0.0271  0.6338
11935TIP3    H157220   0.715   4.087  15.255  1.2744 -0.7680  0.1753
11935TIP3    H257221   0.651   3.958  15.207  0.9285 -0.2069 -0.8953
11936TIP3   OH257222   5.073   0.361   2.948 -0.0776  0.2949  0.2379
11936TIP3    H157223   5.081   0.395   3.038 -0.6764  2.4905 -0.4692
11936TIP3    H257224   5.011   0.289   2.956 -0.5934  0.8379  1.5103
11937TIP3   OH257225   3.341   2.023  15.956  0.3016 -0.2407  0.5668
11937TIP3    H157226   3.251   2.003  15.981 -0.4614 -0.0343 -1.8205
11937TIP3    H257227   3.366   2.094  16.015 -1.4561  0.3919  0.6189
11938TIP3   OH257228   4.825   5.079  16.356 -0.3886  0.1354 -0.0500
11938TIP3    H157229   4.839   5.166  16.319 -0.4198 -0.2028 -0.8689
11938TIP3    H257230   4.911   5.051  16.386 -0.3905  0.4725  0.2710
11939TIP3   OH257231   6.711   6.352   2.646  0.6542  0.2412 -0.4867
11939TIP3    H157232   6.656   6.424   2.614 -0.4267 -1.1809 -1.9504
11939TIP3    H257233   6.737   6.380   2.734 -1.4402  1.4970 -0.1880
11940TIP3   OH257234   0.345   4.214  13.296  0.0123 -0.3485  0.1564
11940TIP3    H157235   0.255   4.197  13.267  0.2406 -0.7656 -0.3071
11940TIP3    H257236   0.341   4.301  13.335 -0.6575 -0.4830  0.4049
11941TIP3   OH257237   3.904   2.555  11.002  0.3905  0.4281  0.7281
11941TIP3    H157238   3.825   2.533  10.952  1.2400  0.6006 -0.7787
11941TIP3    H257239   3.907   2.651  11.001  0.6236  0.4224  0.7601
11942TIP3   OH257240   6.109   5.871  15.913 -0.1548 -0.0522  0.1773
11942TIP3    H157241   6.169   5.802  15.942 -0.4055  0.0969  1.0943
11942TIP3    H257242   6.131   5.946  15.967  0.3242  0.7037 -1.0296
11943TIP3   OH257243   4.764   5.292   5.749 -0.3000 -0.2179  0.0572
11943TIP3    H157244   4.807   5.363   5.796 -1.6358  0.1827  0.7171
11943TIP3    H257245   4.836   5.233   5.724  0.7403  0.9963  0.1072
11944TIP3   OH257246   6.555   1.063   5.288  0.8250  0.1088  0.4390
11944TIP3    H157247   6.489   1.090   5.352  1.7428  0.0063  1.4563
11944TIP3    H257248   6.504   1.026   5.215 -0.1932 -1.2937  1.8013
11945TIP3   OH257249   5.933   5.725  15.705 -0.1003 -0.4407 -0.5783
11945TIP3    H157250   5.883   5.769  15.637 -0.6980 -0.2769 -0.0547
11945TIP3    H257251   5.949   5.793  15.771 -2.0963 -1.2013  0.8166
11946TIP3   OH257252   1.702   0.211  11.481  0.0290 -0.0437  0.1211
11946TIP3    H157253   1.655   0.281  11.526  0.3603  0.0476  0.3283
11946TIP3    H257254   1.647   0.133  11.492 -0.7858  0.3690 -0.8769
11947TIP3   OH257255   6.443   3.498  11.628 -0.3451 -0.6691 -0.1242
11947TIP3    H157256   6.525   3.479  11.674  1.0579 -3.0960 -3.2051
11947TIP3    H257257   6.454   3.587  11.595  0.8837 -0.7951 -0.0976
11948TIP3   OH257258   3.228   2.050   1.154 -0.0366 -0.0064  0.3778
11948TIP3    H157259   3.178   2.011   1.225  0.9765  0.2184  1.2349
11948TIP3    H257260   3.261   2.132   1.190  0.2557  0.2509 -0.4518
11949TIP3   OH257261   0.486   3.294   3.200  0.1192 -0.1911  0.3365
11949TIP3    H157262   0.574   3.333   3.204  1.0869 -2.1582 -0.2313
11949TIP3    H257263   0.433   3.359   3.153  1.0248  1.4044  1.4074
11950TIP3   OH257264   0.939   3.628  16.134  0.0512 -0.6766  0.6115
11950TIP3    H157265   0.948   3.541  16.093 -0.1475 -0.2334 -0.3903
11950TIP3    H257266   0.951   3.690  16.063  1.4018  0.1672  1.5220
11951TIP3   OH257267   3.977   2.609   1.304 -0.0920  0.1674 -0.1316
11951TIP3    H157268   4.025   2.639   1.227  0.0536  1.6696  0.5110
11951TIP3    H257269   4.039   2.620   1.376 -0.4299 -0.6513  0.2993
11952TIP3   OH257270   0.312   4.857  14.628 -0.2027 -0.1410  0.4629
11952TIP3    H157271   0.255   4.931  14.650 -2.1513 -1.1316 -0.9962
11952TIP3    H257272   0.259   4.802  14.571  1.5324 -2.2001  0.7213
11953TIP3   OH257273   3.591   2.740  15.120 -0.0747  0.2166  0.3739
11953TIP3    H157274   3.616   2.793  15.195  0.0484  0.7186 -0.0210
11953TIP3    H257275   3.640   2.776  15.047  0.3548 -0.7271  0.1807
11954TIP3   OH257276   5.197   0.494   4.374 -0.1017  0.0668  0.0425
11954TIP3    H157277   5.102   0.482   4.378 -0.5255  1.6315 -2.6735
11954TIP3    H257278   5.210   0.556   4.302  3.0581 -1.0922 -0.5548
11955TIP3   OH257279   4.989   6.610   2.490  0.1118  0.0946 -0.6304
11955TIP3    H157280   5.020   6.694   2.457 -1.6141  0.6994 -0.8292
11955TIP3    H257281   4.897   6.625   2.512  0.0809 -1.4215  0.4950
11956TIP3   OH257282   0.808   4.510  12.838  0.0067 -0.1750  0.6565
11956TIP3    H157283   0.761   4.466  12.908 -2.1685 -0.7517 -1.0435
11956TIP3    H257284   0.852   4.440  12.790  1.8350  0.2545  1.6158
11957TIP3   OH257285   4.305   2.363  13.164 -0.4312  0.6013  1.4256
11957TIP3    H157286   4.210   2.351  13.161 -0.4849  1.1775  0.5830
11957TIP3    H257287   4.338   2.281  13.201 -1.1914  0.0140  0.8464
11958TIP3   OH257288   4.933   1.635  14.529 -0.5083 -0.4978 -0.2901
11958TIP3    H157289   4.966   1.709  14.479  2.4010 -2.1955 -1.0981
11958TIP3    H257290   4.924   1.564  14.466 -0.1102 -1.7265  0.9703
11959TIP3   OH257291   2.607   0.373  15.340 -0.1898 -0.4040  0.0776
11959TIP3    H157292   2.657   0.416  15.271  0.2758 -0.4484  0.3817
11959TIP3    H257293   2.639   0.412  15.421 -0.1617 -0.9167  0.3182
11960TIP3   OH257294   5.396   6.330  15.125 -0.1700 -0.0654  0.8031
11960TIP3    H157295   5.473   6.385  15.139 -0.4865  0.4285  0.6371
11960TIP3    H257296   5.423   6.243  15.153  0.5036  0.0671  0.5846
11961TIP3   OH257297   4.503   4.413  10.705 -0.1768 -0.2363  0.6240
11961TIP3    H157298   4.506   4.502  10.668  0.6529 -0.2750  0.5846
11961TIP3    H257299   4.430   4.416  10.766  0.0097  0.5615  0.8248
11962TIP3   OH257300   1.319   4.805   5.421 -0.2968  0.0118 -0.4335
11962TIP3    H157301   1.257   4.747   5.375 -1.6204  0.1891  1.0490
11962TIP3    H257302   1.393   4.749   5.443 -1.4420 -1.0910  0.7540
11963TIP3   OH257303   6.114   3.304  12.706 -0.1336 -0.4948  0.0252
11963TIP3    H157304   6.032   3.321  12.752 -0.3617  1.1379 -0.9168
11963TIP3    H257305   6.132   3.385  12.658  1.8142 -0.9722 -0.1231
11964TIP3   OH257306   5.830   1.799  11.748 -0.0752  0.3372  0.0259
11964TIP3    H157307   5.779   1.719  11.741 -0.1212  0.4689 -1.4977
11964TIP3    H257308   5.810   1.848  11.668  1.0096  1.2409  0.2736
11965TIP3   OH257309   0.446   5.034  10.008  0.1469 -0.4498  0.1587
11965TIP3    H157310   0.410   4.973   9.943 -2.3175 -1.5383  2.3919
11965TIP3    H257311   0.530   4.996  10.032 -0.4727 -1.9364  0.0731
11966TIP3   OH257312   0.251   2.075   4.885  0.3675  0.5420  0.4981
11966TIP3    H157313   0.321   2.112   4.939  1.5833 -0.0179 -0.6397
11966TIP3    H257314   0.281   1.986   4.865 -0.4493  0.4575 -0.4179
11967TIP3   OH257315   3.572   5.915  14.960  0.5760 -0.2544 -0.1351
11967TIP3    H157316   3.545   5.847  14.899 -0.3446  0.6408 -0.7697
11967TIP3    H257317   3.640   5.964  14.912 -1.3337  1.5122 -1.2284
11968TIP3   OH257318   3.246   3.952  12.891 -0.0615 -0.0856 -0.1418
11968TIP3    H157319   3.255   3.993  12.978 -1.3671 -0.6463  0.2926
11968TIP3    H257320   3.155   3.970  12.867 -0.0784 -1.0518 -0.8211
11969TIP3   OH257321   2.697   1.762  12.229 -0.4927 -0.4698  0.1027
11969TIP3    H157322   2.645   1.729  12.156 -2.1502  0.1441  0.9598
11969TIP3    H257323   2.765   1.815  12.187 -2.2960  1.0913 -1.0034
11970TIP3   OH257324   3.071   0.292  11.893 -0.3909  0.3964 -0.1760
11970TIP3    H157325   3.030   0.378  11.898 -1.4447 -0.1109  0.2627
11970TIP3    H257326   2.998   0.230  11.903  0.5204 -0.5312  0.9150
11971TIP3   OH257327   2.177   4.758  12.766  0.0976 -0.1804 -0.1482
11971TIP3    H157328   2.134   4.686  12.720  1.6546 -0.4573 -1.2373
11971TIP3    H257329   2.211   4.814  12.696  0.2813  0.7730  0.6856
11972TIP3   OH257330   6.267   3.273   3.710  0.0489 -1.0724  0.6383
11972TIP3    H157331   6.218   3.322   3.644 -1.5783 -1.0289  1.8025
11972TIP3    H257332   6.305   3.339   3.767  0.7055 -1.1247  0.2678
11973TIP3   OH257333   6.211   5.466   0.413 -0.6095  0.1995 -0.0635
11973TIP3    H157334   6.167   5.386   0.382 -0.0802  0.1309 -0.6427
11973TIP3    H257335   6.159   5.493   0.489 -0.9581 -0.5398 -0.0287
11974TIP3   OH257336   2.038   0.571  13.398  0.0957  0.4459  0.5513
11974TIP3    H157337   1.948   0.588  13.425 -0.1224 -0.4777  0.4567
11974TIP3    H257338   2.063   0.647  13.347 -1.9412 -0.8364 -2.6567
11975TIP3   OH257339   5.046   6.398   4.184 -0.4242 -0.0493  0.0878
11975TIP3    H157340   4.980   6.447   4.232 -0.2219 -0.3373  0.6664
11975TIP3    H257341   5.080   6.460   4.119 -1.7010 -0.0885 -0.6413
11976TIP3   OH257342   4.553   0.417  11.603 -0.0225  0.0278 -0.2538
11976TIP3    H157343   4.575   0.473  11.678 -1.2167  1.0794 -0.6547
11976TIP3    H257344   4.637   0.391  11.566  0.5627  1.4560  0.0315
11977TIP3   OH257345   6.577   4.729   3.167 -0.3231  0.4151  0.0650
11977TIP3    H157346   6.618   4.749   3.251 -0.0481  1.5360 -0.3112
11977TIP3    H257347   6.650   4.724   3.106 -0.5033 -0.6252 -0.0721
11978TIP3   OH257348   6.700   0.356  16.158  0.6468 -0.0253  0.2418
11978TIP3    H157349   6.639   0.389  16.093 -0.3675 -0.9131  0.7005
11978TIP3    H257350   6.785   0.392  16.133  0.6630 -1.7561 -2.6350
11979TIP3   OH257351   1.447   3.245  15.886 -0.0754 -0.0969 -0.9810
11979TIP3    H157352   1.415   3.159  15.859 -0.9023 -0.0228 -0.2931
11979TIP3    H257353   1.458   3.238  15.981 -0.4887  0.6623 -0.8677
11980TIP3   OH257354   6.100   4.267  14.483  0.5170  0.0208 -0.2446
11980TIP3    H157355   6.130   4.183  14.518  0.9731  0.6802  1.0218
11980TIP3    H257356   6.104   4.326  14.558  0.3195  1.2048 -1.1472
11981TIP3   OH257357   3.103   5.057  16.228 -0.9169 -0.2886  0.2188
11981TIP3    H157358   3.033   5.109  16.267  0.6377  2.2446 -0.1528
11981TIP3    H257359   3.180   5.077  16.281  0.7926  1.6642 -2.7132
11982TIP3   OH257360   6.427   4.826   9.925 -0.3897 -0.5565 -0.4078
11982TIP3    H157361   6.452   4.865   9.841 -0.5566 -0.4950 -0.4298
11982TIP3    H257362   6.450   4.892   9.990 -0.8318 -0.3484 -0.4608
11983TIP3   OH257363   1.776   0.577   2.534  0.1745 -0.2544 -0.3577
11983TIP3    H157364   1.820   0.494   2.554  0.4453 -0.1846 -0.6624
11983TIP3    H257365   1.747   0.610   2.619  1.0891 -0.0874 -0.1013
11984TIP3   OH257366   1.921   5.656   3.783  0.2726 -0.2426  0.0602
11984TIP3    H157367   1.841   5.641   3.733  0.1945 -0.0461  0.1225
11984TIP3    H257368   1.945   5.570   3.818 -1.1524  0.0585  1.9021
11985TIP3   OH257369   1.044   2.938   1.781  0.0739  0.2233 -0.6058
11985TIP3    H157370   1.076   2.975   1.698  2.8156  2.0412  1.0759
11985TIP3    H257371   1.106   2.868   1.801 -0.2206  0.1765  0.1686
11986TIP3   OH257372   1.908   5.399  15.532 -0.3484  0.1548 -0.2776
11986TIP3    H157373   1.812   5.398  15.532 -0.3481 -0.3942  0.5684
11986TIP3    H257374   1.933   5.319  15.486 -0.2956  0.1932 -0.3154
11987TIP3   OH257375   2.434   5.460  10.263  0.2078  0.0584  0.1783
11987TIP3    H157376   2.524   5.440  10.237 -0.0037  0.8405 -1.2546
11987TIP3    H257377   2.379   5.418  10.196 -0.5278 -0.6471  1.1850
11988TIP3   OH257378   1.226   4.504   3.045 -0.5238  0.2035 -0.1742
11988TIP3    H157379   1.207   4.510   3.139  2.8948 -2.2318  0.8740
11988TIP3    H257380   1.147   4.465   3.008 -1.6855  0.5112  1.8121
11989TIP3   OH257381   1.373   5.763   4.482 -0.5467 -0.0394 -0.2275
11989TIP3    H157382   1.422   5.704   4.539  0.0502  0.9565  0.3331
11989TIP3    H257383   1.379   5.724   4.395  0.8661 -0.1798 -0.0849
11990TIP3   OH257384   5.539   5.454  12.060 -0.2575  0.1760  0.8022
11990TIP3    H157385   5.524   5.363  12.087 -2.4526  0.5103  0.9158
11990TIP3    H257386   5.533   5.505  12.141  1.5909  0.4009  0.8328
11991TIP3   OH257387   0.961   1.125  12.336 -0.6143  0.7104 -0.1943
11991TIP3    H157388   1.045   1.144  12.295 -0.2914 -1.4348 -0.6292
11991TIP3    H257389   0.982   1.106  12.428 -0.3981 -1.0352 -0.5658
11992TIP3   OH257390   1.258   0.897   5.054  0.2526 -0.6960  0.6478
11992TIP3    H157391   1.227   0.973   5.005 -2.6511 -1.6664  0.7688
11992TIP3    H257392   1.237   0.917   5.145 -0.3658 -1.5369  0.7026
11993TIP3   OH257393   4.012   1.290   1.004 -0.2440  0.7232  0.0551
11993TIP3    H157394   3.963   1.233   1.063  0.8815 -0.9817 -0.5813
11993TIP3    H257395   4.042   1.362   1.059  0.6765 -0.7591  1.5780
11994TIP3   OH257396   3.820   6.113   3.314 -0.2286  0.5149  0.1263
11994TIP3    H157397   3.896   6.168   3.336  0.3248 -0.6735  1.3704
11994TIP3    H257398   3.746   6.157   3.357  0.0911  0.6465  0.5544
11995TIP3   OH257399   2.225   4.361  13.748 -0.4015  0.3132 -0.0068
11995TIP3    H157400   2.132   4.370  13.764 -0.3784 -0.1601  0.4193
11995TIP3    H257401   2.237   4.391  13.658 -0.8183  1.2444  0.2449
11996TIP3   OH257402   0.382   1.098   0.690 -0.2444  0.4687  0.2609
11996TIP3    H157403   0.331   1.042   0.632 -0.7864  0.5730  0.6214
11996TIP3    H257404   0.390   1.181   0.642  0.4396  0.1371 -0.2117
11997TIP3   OH257405   0.016   4.146  15.582 -0.2154 -0.3551 -0.6871
11997TIP3    H157406  -0.022   4.069  15.625 -1.6518  2.6503  4.0502
11997TIP3    H257407  -0.060   4.197  15.553  0.4978  1.2916  0.2505
11998TIP3   OH257408   4.648   3.226   0.512  0.4870  0.1419 -0.2737
11998TIP3    H157409   4.700   3.253   0.436 -0.7459  2.1586 -0.5066
11998TIP3    H257410   4.607   3.307   0.542 -0.3385 -0.8973  1.5641
11999TIP3   OH257411   1.251   3.927  12.180  0.1906  0.0497  0.0797
11999TIP3    H157412   1.208   3.842  12.187 -0.5065  0.4861  1.5491
11999TIP3    H257413   1.187   3.989  12.214  0.9535  1.0849 -0.3096
12000TIP3   OH257414   1.167   4.980  11.684 -0.0982 -0.0192  0.5162
12000TIP3    H157415   1.086   5.025  11.663 -0.4720  0.7062  3.1386
12000TIP3    H257416   1.231   5.016  11.623 -1.3420  0.8138 -0.3338
12001TIP3   OH257417   1.461   2.126   0.253 -0.4275 -0.5004 -1.0575
12001TIP3    H157418   1.397   2.099   0.319  1.0192 -0.0257  0.6409
12001TIP3    H257419   1.510   2.046   0.233  0.2170 -0.3138 -0.2664
12002TIP3   OH257420   4.447   2.871  16.265 -0.0869  0.3696  0.2852
12002TIP3    H157421   4.410   2.784  16.277  1.2812 -0.2032  0.6225
12002TIP3    H257422   4.393   2.928  16.318  0.6920 -0.7621  2.4138
12003TIP3   OH257423   0.990   3.197  14.304  0.0081 -0.3430  0.5564
12003TIP3    H157424   0.917   3.157  14.258  0.6831 -1.9995  0.8780
12003TIP3    H257425   0.951   3.270  14.352 -1.3051 -0.7782  0.1781
12004TIP3   OH257426   1.848   4.330   0.501 -0.0078  0.9088  0.5063
12004TIP3    H157427   1.806   4.407   0.540 -1.5940  0.1081  0.4841
12004TIP3    H257428   1.864   4.356   0.410  0.2330  1.4848  0.7069
12005TIP3   OH257429   2.043   1.013   2.035 -0.6239  0.2693 -0.0152
12005TIP3    H157430   2.045   0.921   2.006  1.4829 -0.0184  0.8977
12005TIP3    H257431   2.077   1.010   2.124 -2.6898  1.6970  0.8921
12006TIP3   OH257432   2.562   1.869  12.930 -0.0471 -0.1641  0.7125
12006TIP3    H157433   2.571   1.952  12.976  0.7355 -0.7326  1.6334
12006TIP3    H257434   2.597   1.804  12.991  0.0626 -1.0744 -0.2869
12007TIP3   OH257435   4.039   4.244   5.702  0.0076 -0.1559 -0.2223
12007TIP3    H157436   4.078   4.180   5.762  1.6287  0.6681 -0.3415
12007TIP3    H257437   4.103   4.254   5.632  0.5228  2.6693  0.5280
12008TIP3   OH257438   1.333   3.659  14.401  0.4184 -0.1481 -0.4985
12008TIP3    H157439   1.246   3.667  14.360 -0.0407  0.2801  0.5102
12008TIP3    H257440   1.325   3.583  14.459  0.1584  0.8750  0.8579
12009TIP3   OH257441   6.292   4.703   2.435 -0.2304  0.0609  0.0629
12009TIP3    H157442   6.203   4.668   2.442 -0.6043  1.0537  0.5643
12009TIP3    H257443   6.285   4.775   2.373  0.6140 -0.9855 -1.2905
12010TIP3   OH257444   0.398   3.048  11.285  0.4247  0.1914 -0.3013
12010TIP3    H157445   0.366   2.972  11.334 -0.2838  1.5564  1.4806
12010TIP3    H257446   0.333   3.116  11.303  1.2077  1.3213 -1.5930
12011TIP3   OH257447   6.878   4.839  14.736 -0.0676 -0.1842  0.1265
12011TIP3    H157448   6.876   4.755  14.690  0.4639  0.0055 -0.2530
12011TIP3    H257449   6.897   4.816  14.827 -0.3922 -0.5063  0.1143
12012TIP3   OH257450   3.103   2.116  14.498  0.1937 -0.0865 -0.2398
12012TIP3    H157451   3.120   2.039  14.552 -0.7797 -0.3360 -0.2636
12012TIP3    H257452   3.105   2.083  14.408 -1.1587 -0.3082 -0.2171
12013TIP3   OH257453   0.754   0.050  16.033 -0.2506  0.5663 -0.5090
12013TIP3    H157454   0.792   0.083  15.951 -0.4050 -0.4880 -1.0214
12013TIP3    H257455   0.777   0.116  16.098  0.3625  1.1474 -1.2910
12014TIP3   OH257456   5.211   0.778  16.218 -0.4523 -0.0138 -0.1063
12014TIP3    H157457   5.251   0.694  16.195 -0.6253 -0.4671  1.1959
12014TIP3    H257458   5.149   0.794  16.147 -1.1982 -1.5287  0.1513
12015TIP3   OH257459   0.779   2.039  14.252 -0.0197  0.3742  1.0610
12015TIP3    H157460   0.835   2.012  14.180  0.4405  2.5038  0.5271
12015TIP3    H257461   0.791   1.972  14.319 -1.2228 -2.1938 -1.1506
12016TIP3   OH257462   2.623   2.626  14.493  0.3871  0.0623  0.0194
12016TIP3    H157463   2.627   2.692  14.423  0.1781  0.4724  0.3878
12016TIP3    H257464   2.648   2.674  14.572 -2.4718  0.4576  0.8130
12017TIP3   OH257465   5.615   4.476  12.012 -0.0344 -0.4248 -0.1464
12017TIP3    H157466   5.624   4.546  12.078  2.0917 -0.2903 -0.5156
12017TIP3    H257467   5.686   4.415  12.032 -0.4336 -1.2832 -1.2628
12018TIP3   OH257468   2.524   4.771   4.588 -0.2196 -0.6627 -0.2797
12018TIP3    H157469   2.614   4.763   4.558 -0.5364 -2.0494 -0.9738
12018TIP3    H257470   2.519   4.858   4.628  1.2807 -0.3735 -0.6623
12019TIP3   OH257471   0.869   0.286   0.177  0.3007 -0.2146 -0.0274
12019TIP3    H157472   0.836   0.374   0.193  1.2335  0.0797  0.3475
12019TIP3    H257473   0.884   0.282   0.083  0.5872  0.1526  0.0018
12020TIP3   OH257474   0.249   4.763   4.234 -0.1121 -0.2072  0.3548
12020TIP3    H157475   0.174   4.770   4.293  0.0174  0.4693  0.4446
12020TIP3    H257476   0.284   4.675   4.249 -0.9247 -0.5507  0.2620
12021TIP3   OH257477   2.673   2.212  16.362  0.1224  0.1937  0.2911
12021TIP3    H157478   2.652   2.297  16.323  0.0963 -0.0744 -0.2825
12021TIP3    H257479   2.604   2.154  16.332  0.6023 -0.2300  0.0032
12022TIP3   OH257480   1.337   5.992  11.599 -0.2166  0.1390 -0.3750
12022TIP3    H157481   1.307   5.984  11.689 -1.3102  3.0582 -0.3747
12022TIP3    H257482   1.325   6.085  11.578  3.8125  0.4860 -2.1852
12023TIP3   OH257483   2.457   2.481   5.190  0.1845  0.4984  0.6029
12023TIP3    H157484   2.431   2.456   5.101 -0.5001 -0.2602  1.0139
12023TIP3    H257485   2.472   2.399   5.235  2.2471  0.8902  0.7156
12024TIP3   OH257486   3.327   5.305   0.159  0.0919 -0.3196 -0.2655
12024TIP3    H157487   3.293   5.216   0.163  0.0510 -0.3033 -0.2544
12024TIP3    H257488   3.417   5.295   0.127 -0.0532 -0.3292 -0.6735
12025TIP3   OH257489   5.439   2.938   3.314  0.7391  0.3143  0.0485
12025TIP3    H157490   5.481   2.853   3.320  2.0365  0.8783 -0.5591
12025TIP3    H257491   5.502   2.993   3.267 -0.8678  1.0966 -1.3161
12026TIP3   OH257492   2.517   6.038  11.031  0.5409  0.5728 -0.6615
12026TIP3    H157493   2.536   5.958  10.982  1.1695 -0.7400  1.5785
12026TIP3    H257494   2.426   6.058  11.010  0.5917 -0.3167 -1.8227
12027TIP3   OH257495   1.357   4.096  10.881  0.3705 -0.1072  0.6584
12027TIP3    H157496   1.451   4.107  10.866 -0.1558  0.1333 -3.6988
12027TIP3    H257497   1.337   4.158  10.951  2.8995  2.8444 -0.9735
12028TIP3   OH257498   4.062   0.393  13.254  0.0750  0.0801  0.4499
12028TIP3    H157499   4.098   0.305  13.248  0.8745  0.5026 -2.4059
12028TIP3    H257500   4.120   0.439  13.315  1.6747 -0.4841 -0.6049
12029TIP3   OH257501   2.708   0.528  12.838 -0.1334 -0.8336  0.0073
12029TIP3    H157502   2.617   0.529  12.808 -0.5601 -1.2838  1.2282
12029TIP3    H257503   2.701   0.532  12.934  1.1164 -1.4864  0.1345
12030TIP3   OH257504   0.564   3.959  11.486 -0.6366  0.1422 -0.4021
12030TIP3    H157505   0.549   4.053  11.496 -0.3576  0.0706  0.9033
12030TIP3    H257506   0.484   3.918  11.518  0.0119 -0.0939  0.9850
12031TIP3   OH257507   5.192   0.656  13.873 -0.2755  0.4324  0.1172
12031TIP3    H157508   5.153   0.569  13.871  1.1568 -0.2474 -2.0251
12031TIP3    H257509   5.119   0.716  13.860 -0.9303 -0.6656 -1.5510
12032TIP3   OH257510   0.091   0.463  12.800 -0.2053 -0.7064  0.3497
12032TIP3    H157511   0.027   0.508  12.855 -0.9945  2.1355 -2.5722
12032TIP3    H257512   0.038   0.414  12.737  0.4873 -0.0499 -0.7766
12033TIP3   OH257513   6.332   5.310  10.508  0.0935 -0.3539  0.1322
12033TIP3    H157514   6.396   5.242  10.530 -0.3618 -0.9203 -0.2573
12033TIP3    H257515   6.301   5.286  10.421 -1.4774 -0.7530  0.7641
12034TIP3   OH257516   1.018   2.928   1.503 -0.0042  0.7236  0.3250
12034TIP3    H157517   1.079   2.969   1.442 -0.0114  1.9187  1.0968
12034TIP3    H257518   0.933   2.966   1.480 -0.5778 -1.1990 -0.9851
12035TIP3   OH257519   1.811   0.771  14.658 -0.0911 -0.4659  0.4538
12035TIP3    H157520   1.781   0.688  14.620  0.1755 -0.9206  1.2258
12035TIP3    H257521   1.821   0.829  14.583  1.1573 -1.5734 -0.2797
12036TIP3   OH257522   2.190   4.431  12.762 -0.3592  0.0727 -0.5028
12036TIP3    H157523   2.193   4.425  12.857 -0.7847 -1.3519 -0.5599
12036TIP3    H257524   2.098   4.452  12.743 -0.2147  0.6364 -0.5940
12037TIP3   OH257525   6.121   6.307   4.871  0.3312 -0.2458  0.3014
12037TIP3    H157526   6.052   6.307   4.804  0.9121 -0.4786 -0.3006
12037TIP3    H257527   6.083   6.357   4.943 -0.2130  0.2315 -0.2950
12038TIP3   OH257528   5.015   3.402   5.394  0.1936  0.0089  0.1419
12038TIP3    H157529   5.022   3.462   5.319 -0.2634 -2.5604 -2.1299
12038TIP3    H257530   5.102   3.363   5.401  0.2385  0.2507  1.0018
12039TIP3   OH257531   6.665   3.331   2.903  0.5037  0.2963  0.6038
12039TIP3    H157532   6.703   3.316   2.817  2.3349 -0.4301  1.4864
12039TIP3    H257533   6.574   3.302   2.895  1.0826 -1.2752 -0.6550
12040TIP3   OH257534   5.211   1.641   5.206 -0.2158  0.4985 -0.2267
12040TIP3    H157535   5.206   1.727   5.249 -0.1950  0.9686 -1.1445
12040TIP3    H257536   5.135   1.594   5.240 -0.2271  0.8710  0.2944
12041TIP3   OH257537   3.081   2.062   2.831 -0.1357  0.0583 -0.0395
12041TIP3    H157538   3.150   2.104   2.883  0.2999  1.8555 -1.9075
12041TIP3    H257539   3.016   2.034   2.895  0.1549  2.5184  1.4543
12042TIP3   OH257540   2.389   1.333   3.151  0.6322  0.8376 -0.5167
12042TIP3    H157541   2.414   1.249   3.112 -2.2887 -0.3765 -0.0523
12042TIP3    H257542   2.447   1.343   3.226  0.0382 -1.6000  0.3555
12043TIP3   OH257543   5.898   4.279   0.442  0.6241  0.3860  0.4253
12043TIP3    H157544   5.899   4.294   0.347 -1.1632  0.6238  0.4160
12043TIP3    H257545   5.814   4.313   0.471  1.0971  0.2143  2.1055
12044TIP3   OH257546   4.926   3.217  12.561 -0.6069  0.0478  0.3977
12044TIP3    H157547   4.911   3.130  12.524 -1.0092  0.5402 -0.6084
12044TIP3    H257548   4.984   3.201  12.636  2.0793 -0.7489 -1.6943
12045TIP3   OH257549   4.328   2.979  12.886 -0.0673 -0.2056  0.0296
12045TIP3    H157550   4.343   2.977  12.980  0.3141 -0.5590 -0.0368
12045TIP3    H257551   4.240   3.017  12.877  0.6571  1.6999  0.4451
12046TIP3   OH257552   1.327   2.372  11.696 -0.2662  0.7828 -0.4251
12046TIP3    H157553   1.379   2.300  11.661 -0.7792  0.7209 -1.0958
12046TIP3    H257554   1.283   2.409  11.619 -0.8377  1.1290  0.0566
12047TIP3   OH257555   2.695   4.176   0.382 -0.7828  0.0326 -0.3206
12047TIP3    H157556   2.739   4.187   0.297 -0.0261 -1.9485 -0.2490
12047TIP3    H257557   2.610   4.218   0.371 -0.0873  1.2119 -1.5128
12048TIP3   OH257558   1.278   5.384  16.654  0.1893 -0.5113  0.8902
12048TIP3    H157559   1.354   5.439  16.674 -0.4057  0.2282  1.1734
12048TIP3    H257560   1.218   5.399  16.727  0.4978 -2.4898  1.6171
12049TIP3   OH257561   2.640   6.718  15.237  0.4043 -0.7544 -0.0506
12049TIP3    H157562   2.614   6.658  15.307  2.0607 -1.7504 -0.2406
12049TIP3    H257563   2.728   6.746  15.260 -0.1890  1.3998 -0.1564
12050TIP3   OH257564   6.018   0.685  11.194 -0.4791  0.5954  0.1739
12050TIP3    H157565   5.928   0.661  11.215 -0.3948  1.7304  2.0663
12050TIP3    H257566   6.021   0.780  11.207  1.3324  0.3866  1.6734
12051TIP3   OH257567   6.177   1.019   0.316 -0.2426 -0.3905  0.1743
12051TIP3    H157568   6.129   1.022   0.234 -1.3910 -0.5354  0.8311
12051TIP3    H257569   6.138   1.088   0.370 -0.4120 -1.1757  1.0850
12052TIP3   OH257570   3.771   3.214   3.864  0.1843 -0.2121  0.1346
12052TIP3    H157571   3.701   3.173   3.814 -0.3667  1.9991 -1.0200
12052TIP3    H257572   3.725   3.266   3.930  0.7469  0.8513 -0.3070
12053TIP3   OH257573   1.062   3.771  13.666 -0.1389  0.1805 -0.0419
12053TIP3    H157574   1.044   3.757  13.759  0.4983  0.7993  0.1878
12053TIP3    H257575   0.978   3.795  13.628 -0.5501 -0.8339  0.2215
12054TIP3   OH257576   2.897   2.808  16.430  0.7896  0.6093  0.9952
12054TIP3    H157577   2.986   2.819  16.398  0.2085  0.3891 -0.8159
12054TIP3    H257578   2.846   2.875  16.384 -0.8130 -2.2472 -1.8546
12055TIP3   OH257579   6.017   0.211  14.840  0.0977  0.2749  0.2846
12055TIP3    H157580   6.085   0.145  14.830  0.7566  0.9361  0.3710
12055TIP3    H257581   6.012   0.253  14.754  1.4985  1.8501  0.9411
12056TIP3   OH257582   3.166   5.903  15.451 -0.5402  0.1877 -0.0133
12056TIP3    H157583   3.240   5.948  15.410  0.1108 -0.6721  0.1997
12056TIP3    H257584   3.203   5.864  15.531 -0.9555 -1.1924 -0.4762
12057TIP3   OH257585   0.277   0.464  16.382 -0.1205 -0.1607 -0.1620
12057TIP3    H157586   0.333   0.387  16.375  2.1717  1.3555  0.2642
12057TIP3    H257587   0.302   0.505  16.465 -0.2331  1.7687 -1.0133
12058TIP3   OH257588   2.323   1.803   1.556  0.1464  0.3076 -0.2296
12058TIP3    H157589   2.237   1.839   1.576  0.4516  0.9906 -0.0779
12058TIP3    H257590   2.316   1.710   1.576  0.2397  0.7938  2.5672
12059TIP3   OH257591   2.136   2.489  15.451 -0.5128  0.3633 -0.4638
12059TIP3    H157592   2.137   2.447  15.365 -0.1956  1.3643 -0.9639
12059TIP3    H257593   2.227   2.508  15.469 -0.5352 -0.2113  0.2982
12060TIP3   OH257594   3.943   4.180  10.529 -0.1223  0.5003 -0.3032
12060TIP3    H157595   4.036   4.195  10.548 -0.1554  0.4600 -0.1083
12060TIP3    H257596   3.928   4.224  10.446  0.0538  0.5764 -0.2950
12061TIP3   OH257597   0.635   6.295  13.165  0.4759  0.2373 -0.6087
12061TIP3    H157598   0.573   6.233  13.204  1.8493 -1.6454 -1.3138
12061TIP3    H257599   0.652   6.359  13.235 -0.7392 -0.3338  0.2440
12062TIP3   OH257600   1.435   0.220   1.338  0.0758 -0.7186  0.7405
12062TIP3    H157601   1.506   0.282   1.324 -1.7671  1.0687 -1.6288
12062TIP3    H257602   1.391   0.251   1.417 -0.2130  0.4504  0.1484
12063TIP3   OH257603   6.257   2.538   2.585  0.6016 -0.2467 -0.4723
12063TIP3    H157604   6.174   2.577   2.614  0.1857 -1.0907 -0.5114
12063TIP3    H257605   6.274   2.468   2.648  0.4211 -1.1765 -1.4297
12064TIP3   OH257606   4.174   3.353   5.426  0.1986 -0.4038 -0.7026
12064TIP3    H157607   4.115   3.279   5.431  0.1244 -0.2499  1.2602
12064TIP3    H257608   4.226   3.349   5.507  1.2861  0.7756 -1.2946
12065TIP3   OH257609   0.911   5.213   4.663 -0.2957 -0.0292  0.2740
12065TIP3    H157610   0.846   5.222   4.733 -1.4667 -1.3379 -0.5835
12065TIP3    H257611   0.915   5.119   4.646 -0.6032  0.2995 -1.8976
12066TIP3   OH257612   6.005   4.458  11.055 -0.0742  0.7269 -0.0399
12066TIP3    H157613   6.017   4.552  11.040  1.1018  0.3811 -1.4241
12066TIP3    H257614   5.910   4.447  11.055 -0.2214  1.7910 -0.7580
12067TIP3   OH257615   5.524   5.568   0.851 -0.2550 -0.0568 -0.1130
12067TIP3    H157616   5.545   5.477   0.832  1.4573  0.0774  0.8943
12067TIP3    H257617   5.456   5.564   0.919  1.7777 -0.7034  2.0383
12068TIP3   OH257618   3.697   4.485  13.149 -0.6495 -0.4000 -0.0037
12068TIP3    H157619   3.732   4.446  13.228 -0.1992 -1.6319 -0.7914
12068TIP3    H257620   3.628   4.425  13.120 -1.6711  0.6737  0.1180
12069TIP3   OH257621   5.708   5.207   3.854  0.6582 -0.1003 -0.1147
12069TIP3    H157622   5.748   5.124   3.878  0.3318 -0.6472 -1.3759
12069TIP3    H257623   5.780   5.258   3.816  1.0938  0.6259  1.6056
12070TIP3   OH257624   1.986   0.940  15.305  0.0812 -0.1954  0.0530
12070TIP3    H157625   2.044   0.867  15.286 -1.1797 -1.1330 -0.3601
12070TIP3    H257626   1.901   0.899  15.320 -0.3155  1.0688  1.4240
12071TIP3   OH257627   6.354   3.697  13.543  0.6866  0.2557 -0.2244
12071TIP3    H157628   6.329   3.760  13.475  1.9616  0.0641 -0.9016
12071TIP3    H257629   6.436   3.659  13.511  0.6212 -0.7897  0.8090
12072TIP3   OH257630   0.117   4.634  13.002  0.0200 -0.2579  0.5096
12072TIP3    H157631   0.080   4.546  12.993  0.8313 -0.7198  1.5346
12072TIP3    H257632   0.208   4.619  13.028  0.8747  0.8513 -1.5776
12073TIP3   OH257633   2.326   3.267   4.253  0.1090  0.0252 -0.0374
12073TIP3    H157634   2.313   3.341   4.313 -1.6673 -0.5913  0.4109
12073TIP3    H257635   2.415   3.238   4.270  0.3387  1.1482  0.8337
12074TIP3   OH257636   0.712   0.920   0.881  0.2871  0.3227 -0.4980
12074TIP3    H157637   0.782   0.972   0.843  0.4052 -0.3800 -1.3001
12074TIP3    H257638   0.723   0.928   0.975  0.1593  1.9145 -0.5904
12075TIP3   OH257639   5.078   3.054   3.743 -0.3975 -0.0572  0.1344
12075TIP3    H157640   5.032   3.136   3.757 -0.9452 -0.3418  0.0249
12075TIP3    H257641   5.123   3.037   3.826 -1.3899 -0.3370  0.6273
12076TIP3   OH257642   3.700   1.283  14.718 -0.4109 -0.2255  0.2628
12076TIP3    H157643   3.624   1.264  14.663  0.1285  0.0862 -0.6056
12076TIP3    H257644   3.725   1.372  14.694 -0.8597  0.3654  1.8446
12077TIP3   OH257645   0.197   6.614  12.378 -0.1548 -0.5918 -0.2548
12077TIP3    H157646   0.133   6.628  12.447 -0.1599 -1.4839 -0.0748
12077TIP3    H257647   0.190   6.522  12.356 -0.7786 -0.1433 -2.0855
12078TIP3   OH257648   1.231   1.052   3.193  0.2807 -0.1932  0.1924
12078TIP3    H157649   1.206   0.960   3.196 -1.7548  0.2932  0.0642
12078TIP3    H257650   1.215   1.078   3.102 -0.4453  0.5652  0.5157
12079TIP3   OH257651   2.775   0.717  14.979  0.3574 -0.2991 -0.2275
12079TIP3    H157652   2.832   0.743  15.052  1.1159 -0.2380 -0.8347
12079TIP3    H257653   2.814   0.758  14.902 -0.8741  0.2849 -0.5713
12080TIP3   OH257654   3.199   3.235  11.781 -0.2110 -0.2543 -0.5685
12080TIP3    H157655   3.211   3.192  11.865 -0.6308 -1.3117 -1.0264
12080TIP3    H257656   3.106   3.221  11.761 -0.0559 -0.2494 -1.3199
12081TIP3   OH257657   1.060   2.199  13.628 -0.0726  0.0725  0.3719
12081TIP3    H157658   1.122   2.219  13.698 -1.2103  0.8697  1.1764
12081TIP3    H257659   1.114   2.157  13.560  0.7766 -2.4494  2.4302
12082TIP3   OH257660   4.737   4.603  15.273 -0.5922  0.3275 -0.0322
12082TIP3    H157661   4.832   4.613  15.266 -0.4469 -1.9118 -2.9928
12082TIP3    H257662   4.724   4.532  15.335 -0.2026 -0.4767 -0.8526
12083TIP3   OH257663   3.316   0.159   3.553  0.6730 -0.2212 -0.1647
12083TIP3    H157664   3.370   0.235   3.528  0.5994 -0.2444 -0.4032
12083TIP3    H257665   3.337   0.093   3.487  0.7574 -0.4185  0.0588
12084TIP3   OH257666   4.454   3.209  11.290  0.3268 -0.5498  0.0105
12084TIP3    H157667   4.455   3.141  11.223  1.0612 -0.5001 -0.0395
12084TIP3    H257668   4.366   3.206  11.327 -0.6159  0.4238 -1.9830
12085TIP3   OH257669   6.073   0.890  13.918  0.3021  0.5852  0.3483
12085TIP3    H157670   6.092   0.892  13.824 -0.6659 -1.1472  0.0664
12085TIP3    H257671   6.150   0.929  13.959  0.3218  2.3067 -1.1849
12086TIP3   OH257672   3.297   1.812  14.815  0.4999 -0.3228  0.1371
12086TIP3    H157673   3.358   1.814  14.741 -1.8236 -1.8743 -1.9737
12086TIP3    H257674   3.293   1.903  14.845  2.2906  0.1688 -0.9284
12087TIP3   OH257675   0.708   1.387   1.524  0.1916 -0.1176 -0.6263
12087TIP3    H157676   0.738   1.419   1.609 -0.4475 -0.0023 -0.4422
12087TIP3    H257677   0.632   1.333   1.544 -0.5285  0.6631 -1.2112
12088TIP3   OH257678   4.684   0.909  10.605 -0.6399  0.6237  0.0211
12088TIP3    H157679   4.745   0.937  10.537  1.4352 -2.3333  0.4599
12088TIP3    H257680   4.630   0.843  10.563 -1.0594  0.5999  0.5881
12089TIP3   OH257681   0.497   1.413  14.751  0.3273 -0.5979 -0.2218
12089TIP3    H157682   0.572   1.438  14.805  1.4704  1.0641 -2.3714
12089TIP3    H257683   0.465   1.331  14.788  2.3532 -0.6294  1.5980
12090TIP3   OH257684   3.689   2.384  10.873 -0.2626 -0.1835 -0.3847
12090TIP3    H157685   3.630   2.457  10.891 -0.6087 -0.7133  0.7294
12090TIP3    H257686   3.693   2.379  10.777 -2.1526 -0.2246 -0.5000
12091TIP3   OH257687   4.119   5.758   1.936 -0.0108 -0.3697  0.3501
12091TIP3    H157688   4.047   5.696   1.922 -1.0819  0.2186  2.7861
12091TIP3    H257689   4.195   5.702   1.950 -0.8725 -1.1986  2.0771
12092TIP3   OH257690   3.648   0.855   2.149 -0.1630 -0.3266  0.5245
12092TIP3    H157691   3.686   0.942   2.135 -0.7700  0.1144  1.4603
12092TIP3    H257692   3.635   0.850   2.244  0.0188 -1.5134  0.5019
12093TIP3   OH257693   6.012   4.487  13.420 -0.6248  0.0565 -0.2385
12093TIP3    H157694   5.939   4.439  13.457 -0.3156 -1.5904 -1.6017
12093TIP3    H257695   6.086   4.467  13.477 -0.6055 -0.7527 -0.5326
12094TIP3   OH257696   1.140   3.715   2.998 -0.6098  0.7365 -0.1585
12094TIP3    H157697   1.159   3.665   3.077 -0.2437  0.4301 -0.4385
12094TIP3    H257698   1.051   3.748   3.011 -0.4839  0.8484  0.4631
12095TIP3   OH257699   4.421   4.828  13.512  0.3166 -0.5182  0.0213
12095TIP3    H157700   4.507   4.870  13.517  0.4236 -0.8295  0.8263
12095TIP3    H257701   4.376   4.875  13.441  0.1510  1.4775  1.3414
12096TIP3   OH257702   5.762   4.466  11.604  0.7096 -0.3444  0.1101
12096TIP3    H157703   5.678   4.509  11.615 -0.3421 -1.5016 -2.5244
12096TIP3    H257704   5.810   4.521  11.542  0.9757 -0.8550 -0.1500
12097TIP3   OH257705   2.167   4.007   6.452 -0.0608 -0.5161  0.2733
12097TIP3    H157706   2.175   4.102   6.450  1.4068 -0.5241  2.1021
12097TIP3    H257707   2.247   3.976   6.410 -0.0698 -0.9058  0.5391
12098TIP3   OH257708   4.525   2.144  10.581 -0.6768 -0.4314 -0.4599
12098TIP3    H157709   4.486   2.057  10.592  0.3122 -0.7340  0.8896
12098TIP3    H257710   4.604   2.128  10.529 -0.1766 -0.4403  0.2921
12099TIP3   OH257711   5.871   5.313   2.816  0.1748 -0.2511 -0.1927
12099TIP3    H157712   5.956   5.268   2.820  0.5358  0.3590 -0.7531
12099TIP3    H257713   5.887   5.388   2.760 -1.0539 -0.7874 -1.2927
12100TIP3   OH257714   5.038   0.897   3.136 -0.6280 -0.3837  0.2425
12100TIP3    H157715   5.043   0.883   3.230 -0.5633  0.5500  0.3933
12100TIP3    H257716   5.128   0.920   3.111 -0.8567  0.4665  0.1562
12101TIP3   OH257717   6.769   4.943   4.879 -0.2243 -0.4348  0.2849
12101TIP3    H157718   6.789   4.967   4.789 -0.2167 -1.2620  0.0529
12101TIP3    H257719   6.676   4.918   4.877 -0.7115  1.2207  0.8807
12102TIP3   OH257720   0.890   1.575  12.342 -0.0136 -0.0860  0.3859
12102TIP3    H157721   0.917   1.508  12.279  1.1669  0.5290  0.1964
12102TIP3    H257722   0.808   1.543  12.379 -1.1047 -0.1658 -1.9219
12103TIP3   OH257723   3.249   0.660  11.670 -0.8478 -0.5870  0.0533
12103TIP3    H157724   3.160   0.670  11.706 -0.8188 -0.2359  0.0343
12103TIP3    H257725   3.235   0.638  11.578 -0.9902  3.7972 -1.2147
12104TIP3   OH257726   6.500   4.256   5.546  0.3921  0.0565  0.2260
12104TIP3    H157727   6.537   4.181   5.593  1.2450  1.0286  1.1576
12104TIP3    H257728   6.566   4.324   5.553 -0.9847  1.4004  0.7164
12105TIP3   OH257729   6.606   4.549  14.913 -0.7255  0.5477 -0.7919
12105TIP3    H157730   6.526   4.502  14.889 -1.3099  0.4209  1.2461
12105TIP3    H257731   6.582   4.642  14.908 -1.0562  0.5085 -0.0811
12106TIP3   OH257732   4.096   6.278   1.635  0.3019  0.0122  0.3991
12106TIP3    H157733   4.123   6.319   1.553 -0.9161  0.5120  0.2342
12106TIP3    H257734   4.076   6.187   1.610 -0.5803  0.3024  0.0360
12107TIP3   OH257735   4.188   6.043  14.189  0.1716 -0.6605 -0.4684
12107TIP3    H157736   4.113   5.992  14.217  0.9688 -2.0021 -0.6988
12107TIP3    H257737   4.232   6.068  14.270 -0.5439  0.1792 -0.3335
12108TIP3   OH257738   2.844   4.906   3.928  0.0541  0.7609 -0.2088
12108TIP3    H157739   2.851   4.903   4.024 -1.4692  0.2576 -0.0766
12108TIP3    H257740   2.933   4.919   3.897  0.7699 -0.4132  1.2343
12109TIP3   OH257741   6.238   6.603  13.259 -0.2927 -0.5936  0.0537
12109TIP3    H157742   6.225   6.592  13.164  0.2225  2.0501 -0.4038
12109TIP3    H257743   6.272   6.518  13.288  1.9690 -0.7620 -2.6110
12110TIP3   OH257744   0.237   6.247  16.289  0.1042 -0.7152 -0.4390
12110TIP3    H157745   0.286   6.306  16.231  0.5000 -1.8094 -1.2620
12110TIP3    H257746   0.145   6.270  16.274  0.2274 -0.6496 -1.1312
12111TIP3   OH257747   6.701   0.851  13.281  0.1075  0.4059  0.6538
12111TIP3    H157748   6.679   0.835  13.189  0.3608 -0.2388  0.6977
12111TIP3    H257749   6.712   0.763  13.318 -0.2681  0.6537  1.3702
12112TIP3   OH257750   1.156   4.828  15.766 -0.0561  0.0269 -0.4536
12112TIP3    H157751   1.109   4.778  15.832 -1.4123  2.9003  0.9259
12112TIP3    H257752   1.169   4.766  15.694 -1.3139 -2.3441  1.2260
12113TIP3   OH257753   4.450   4.319  12.896  0.0336 -0.1742  0.0535
12113TIP3    H157754   4.377   4.349  12.842  0.1958 -1.6201 -1.0360
12113TIP3    H257755   4.413   4.247  12.947  0.2747  0.1841  0.7364
12114TIP3   OH257756   6.087   6.767   3.620 -0.0329 -0.2561 -0.3368
12114TIP3    H157757   6.044   6.850   3.599  1.2151  0.6929  0.6701
12114TIP3    H257758   6.015   6.706   3.633 -0.9590  0.2300 -2.6483
12115TIP3   OH257759   1.896   1.800   3.942 -0.3025  0.0487 -0.5634
12115TIP3    H157760   1.982   1.835   3.963 -0.8274  1.4855 -0.7352
12115TIP3    H257761   1.875   1.837   3.856 -1.3985  0.3088 -0.1986
12116TIP3   OH257762   3.672   5.892  16.467  0.5457 -0.1933 -0.1400
12116TIP3    H157763   3.585   5.931  16.468  1.1564  1.4885 -2.1738
12116TIP3    H257764   3.660   5.802  16.497 -1.6986  0.2810  0.5313
12117TIP3   OH257765   4.519   5.120   4.097  0.1730  0.4150  0.1694
12117TIP3    H157766   4.581   5.059   4.137  0.4338  0.0886 -0.7105
12117TIP3    H257767   4.451   5.064   4.060  0.1612  0.6812 -0.2141
12118TIP3   OH257768   1.333   4.066   5.643  0.0125  0.7070  0.1048
12118TIP3    H157769   1.340   4.122   5.566 -1.5084 -1.0395 -1.3645
12118TIP3    H257770   1.415   4.018   5.646  0.0537  0.7404 -0.4656
12119TIP3   OH257771   5.505   2.402   0.976 -0.0070  0.1060  0.4438
12119TIP3    H157772   5.471   2.336   1.035 -1.9924  0.6803  0.0215
12119TIP3    H257773   5.600   2.397   0.986  0.0223 -3.5710 -0.4379
12120TIP3   OH257774   0.717   2.216  16.602  0.1241  0.2536 -0.0773
12120TIP3    H157775   0.804   2.182  16.582 -0.1138 -0.2799 -0.2443
12120TIP3    H257776   0.730   2.278  16.673  0.5587 -0.3045  0.3299
12121TIP3   OH257777   5.395   3.368  15.224  0.0867  0.3887  0.3314
12121TIP3    H157778   5.321   3.428  15.230  0.0609  0.6456 -1.8382
12121TIP3    H257779   5.463   3.407  15.280 -0.0734  2.2542 -0.7018
12122TIP3   OH257780   1.102   3.017   4.262  0.2470 -0.4589 -0.2116
12122TIP3    H157781   1.052   3.072   4.201  3.5157  1.6124 -1.2433
12122TIP3    H257782   1.146   3.079   4.320  3.2920 -1.9359 -0.7527
12123TIP3   OH257783   1.123   0.275  12.682 -0.2577 -0.1712 -0.0690
12123TIP3    H157784   1.191   0.246  12.743  0.0169  0.1517 -0.2221
12123TIP3    H257785   1.079   0.347  12.727  0.0744  0.1991 -0.3305
12124TIP3   OH257786   5.121   5.289   3.871 -0.3459  0.4352  0.0628
12124TIP3    H157787   5.128   5.384   3.866 -1.9536  0.5294 -1.3651
12124TIP3    H257788   5.093   5.272   3.961 -1.8490  1.4997 -0.1639
12125TIP3   OH257789   4.350   0.175  12.627  0.0383  0.1220  0.7904
12125TIP3    H157790   4.271   0.149  12.579 -0.3074  0.9980  0.8735
12125TIP3    H257791   4.330   0.262  12.661  1.8755  1.3956 -1.1447
12126TIP3   OH257792   2.895   4.837   4.181  0.4471 -0.1896  0.7152
12126TIP3    H157793   2.893   4.867   4.272 -0.0024  1.9662  0.0672
12126TIP3    H257794   2.888   4.742   4.186 -2.3238 -0.0017  2.8725
12127TIP3   OH257795   2.433   5.051  13.623 -0.3391  0.1397  0.1971
12127TIP3    H157796   2.501   5.012  13.567  0.4409  2.1509 -0.3457
12127TIP3    H257797   2.482   5.098  13.690 -1.2586 -0.1232  1.0760
12128TIP3   OH257798   4.993   0.997   3.644 -0.1753 -0.5427 -0.0162
12128TIP3    H157799   5.051   0.944   3.699 -0.4005  0.3159  1.0914
12128TIP3    H257800   4.996   1.084   3.684  0.1432  0.2790 -1.7637
12129TIP3   OH257801   3.385   3.560  12.177  0.0028 -0.1118  0.2134
12129TIP3    H157802   3.476   3.572  12.206 -0.5095 -0.0619  1.9293
12129TIP3    H257803   3.355   3.648  12.155  0.4566 -0.1707 -0.6813
12130TIP3   OH257804   3.638   2.366   5.349  0.1066  0.2203  0.0139
12130TIP3    H157805   3.600   2.282   5.327 -0.2707  0.0394  1.2632
12130TIP3    H257806   3.675   2.399   5.267 -3.0519  0.5995 -1.3813
12131TIP3   OH257807   5.103   4.255  11.167  0.2050 -0.7710 -0.1252
12131TIP3    H157808   5.189   4.292  11.182  1.3979 -2.7747 -1.5202
12131TIP3    H257809   5.096   4.183  11.230 -0.0555 -1.1607 -0.5862
12132TIP3   OH257810   0.194   2.064  15.346  0.4769  0.3706 -0.4839
12132TIP3    H157811   0.121   2.002  15.341 -0.2256  0.9693  1.4343
12132TIP3    H257812   0.253   2.036  15.276 -1.3547 -0.4134 -1.8099
12133TIP3   OH257813   6.117   4.426   4.635 -0.4901  0.0347  0.3551
12133TIP3    H157814   6.195   4.454   4.681 -2.7998  0.4346  4.4886
12133TIP3    H257815   6.069   4.507   4.617 -1.1700 -0.3631  0.3237
12134TIP3   OH257816   6.511   2.974  16.091 -0.2848  0.2139  0.4503
12134TIP3    H157817   6.550   2.888  16.106 -0.8888  0.4718  4.3773
12134TIP3    H257818   6.558   3.009  16.015  0.5810 -3.1424 -0.7459
12135TIP3   OH257819   1.514   3.523   0.923 -0.5165  0.3149 -0.1028
12135TIP3    H157820   1.562   3.606   0.913  0.9087 -0.4035  0.3702
12135TIP3    H257821   1.482   3.503   0.835  0.1561  0.7900 -0.4728
12136TIP3   OH257822   6.195   1.255  14.330  0.2606  0.0339 -0.4125
12136TIP3    H157823   6.177   1.199  14.405  0.5611 -1.8127 -1.6628
12136TIP3    H257824   6.109   1.285  14.301  0.0412 -0.3010 -0.1150
12137TIP3   OH257825   0.583   6.658   2.840 -0.2484 -0.6266  0.4482
12137TIP3    H157826   0.590   6.567   2.811 -1.2617 -0.5730 -0.0068
12137TIP3    H257827   0.520   6.655   2.912  0.0366 -0.3417  0.7111
12138TIP3   OH257828   0.041   2.340  11.650 -0.0583  0.1441 -0.1825
12138TIP3    H157829   0.012   2.249  11.662 -1.2174  0.7229  1.9596
12138TIP3    H257830   0.133   2.339  11.676  0.0265 -0.4686 -0.4894
12139TIP3   OH257831   1.589   6.589  15.030 -0.3586 -0.0484  0.0651
12139TIP3    H157832   1.668   6.616  14.985 -0.7439 -0.0322 -0.6216
12139TIP3    H257833   1.599   6.494  15.041  0.3348  0.1363  1.1643
12140TIP3   OH257834   2.086   3.096   6.126 -0.5132  0.2625 -0.0876
12140TIP3    H157835   2.090   3.191   6.119 -0.8294  0.2807 -0.0155
12140TIP3    H257836   2.034   3.079   6.204  1.9911  0.0359  1.6238
12141TIP3   OH257837   4.010   4.640   0.024  0.2449 -0.5752 -0.0902
12141TIP3    H157838   4.042   4.554  -0.003 -0.3978 -0.8471 -0.0097
12141TIP3    H257839   3.956   4.669  -0.050  3.2274  1.3539 -1.7161
12142TIP3   OH257840   3.694   1.551   0.092  0.3417  0.0735 -0.6914
12142TIP3    H157841   3.729   1.607   0.023  2.0505 -0.3293 -0.2056
12142TIP3    H257842   3.756   1.560   0.165 -0.9977 -0.1046  0.5131
12143TIP3   OH257843   3.652   6.428  16.411 -0.0718 -0.2383  0.1189
12143TIP3    H157844   3.592   6.353  16.410  1.4112 -1.4857 -0.8304
12143TIP3    H257845   3.645   6.463  16.500 -1.0323 -1.3033  0.4909
12144TIP3   OH257846   3.378   0.535  15.857 -0.0590 -0.1398  0.4798
12144TIP3    H157847   3.349   0.491  15.777  0.3615  1.3892 -0.5699
12144TIP3    H257848   3.308   0.598  15.876  0.4067  0.3468  0.6055
12145TIP3   OH257849   2.796   3.428   2.367  0.5464  0.6920  0.6415
12145TIP3    H157850   2.849   3.380   2.431 -1.0352 -1.1603  0.6520
12145TIP3    H257851   2.831   3.402   2.282 -0.0215 -0.1818  0.6616
12146TIP3   OH257852   5.307   2.475  14.764  0.8035  0.0210 -0.2489
12146TIP3    H157853   5.324   2.520  14.847 -1.3202 -0.6973  0.6400
12146TIP3    H257854   5.390   2.432  14.743  1.0966 -0.7647  2.1512
12147TIP3   OH257855   4.546   5.462  12.620  0.5730 -0.2536 -0.0797
12147TIP3    H157856   4.593   5.544  12.615 -1.7934  1.2537  0.5686
12147TIP3    H257857   4.498   5.455  12.537 -1.0994  0.3097  0.7829
12148TIP3   OH257858   3.953   5.326   5.194  0.2168  0.7305 -0.0226
12148TIP3    H157859   3.900   5.248   5.214 -1.7601  2.0911  0.4312
12148TIP3    H257860   4.028   5.319   5.253  1.0839 -1.7241 -1.3007
12149TIP3   OH257861   4.671   0.188  14.237  0.1980  0.5900 -0.0410
12149TIP3    H157862   4.652   0.100  14.270  0.3863  0.2741 -0.7728
12149TIP3    H257863   4.723   0.228  14.307  2.2712 -0.7537 -0.7187
12150TIP3   OH257864   1.266   4.409  12.900  0.0612  0.0821 -0.3152
12150TIP3    H157865   1.253   4.416  12.994  1.8989  0.0227 -0.0170
12150TIP3    H257866   1.221   4.486  12.864  1.7456  1.7367  0.9125
12151TIP3   OH257867   4.972   4.516  14.124 -0.8611  0.3755 -0.1997
12151TIP3    H157868   5.036   4.532  14.055 -1.8219  1.0069 -0.9832
12151TIP3    H257869   4.981   4.591  14.183  0.4794 -0.5381  0.8084
12152TIP3   OH257870   2.032   0.419  15.851  0.0216 -0.1852  0.4590
12152TIP3    H157871   1.987   0.335  15.862  1.1377 -0.7353  0.9957
12152TIP3    H257872   2.104   0.400  15.792 -1.0918  0.9501 -1.3598
12153TIP3   OH257873   3.525   6.096   4.093 -0.6683 -0.5463  0.2908
12153TIP3    H157874   3.553   6.148   4.018 -2.3576 -1.6327 -1.1751
12153TIP3    H257875   3.578   6.129   4.166 -0.6029  2.1283 -0.8497
12154TIP3   OH257876   3.766   6.406   1.098  0.4171 -0.1786 -0.6784
12154TIP3    H157877   3.762   6.497   1.126  5.5029 -0.0252  0.6324
12154TIP3    H257878   3.793   6.410   1.006  1.2240 -0.2818 -0.4576
12155TIP3   OH257879   2.562   5.026  14.407  0.1874  0.2262  0.3994
12155TIP3    H157880   2.572   4.931  14.416  1.2422  0.3754  0.9210
12155TIP3    H257881   2.560   5.058  14.498 -1.5326  0.5938  0.2789
12156TIP3   OH257882   0.736   3.071   4.342  0.7209  0.3651  0.1055
12156TIP3    H157883   0.806   3.100   4.284  1.5432 -0.2490  0.7609
12156TIP3    H257884   0.665   3.046   4.283  0.2743  2.8793 -0.5051
12157TIP3   OH257885   2.152   4.839  10.312  0.5750 -0.1767  1.2999
12157TIP3    H157886   2.221   4.878  10.258 -0.7934  1.5378  0.7008
12157TIP3    H257887   2.134   4.755  10.271 -0.3102  0.9952 -0.8847
12158TIP3   OH257888   4.227   6.466  14.155  0.0347 -0.3060  0.1104
12158TIP3    H157889   4.143   6.454  14.112 -0.0473  1.5948 -0.3209
12158TIP3    H257890   4.233   6.560  14.173  1.2633 -0.6422  1.8049
12159TIP3   OH257891   1.824   0.308  15.545  0.0413 -0.3584 -0.4372
12159TIP3    H157892   1.899   0.367  15.534  0.0305  0.3739  2.5825
12159TIP3    H257893   1.752   0.355  15.503  0.1416  1.6900  1.4585
12160TIP3   OH257894   6.168   3.948  14.243  0.0101  0.3607 -0.2563
12160TIP3    H157895   6.253   3.955  14.201 -0.7188  0.0529 -1.8609
12160TIP3    H257896   6.122   3.880  14.194 -1.1113  0.4007  0.6738
12161TIP3   OH257897   6.669   1.133   3.588  0.5459 -0.0977 -0.7465
12161TIP3    H157898   6.723   1.193   3.535  1.0226  1.0754  0.9917
12161TIP3    H257899   6.708   1.047   3.574  1.6944  0.4451 -1.0023
12162TIP3   OH257900   2.159   1.408  10.009  0.8921 -0.0902  0.0594
12162TIP3    H157901   2.205   1.357  10.076  1.9276  1.1258  0.3166
12162TIP3    H257902   2.168   1.499  10.037 -0.2558  0.3127 -0.7800
12163TIP3   OH257903   5.758   2.400  15.679  0.5009 -0.1960 -0.6711
12163TIP3    H157904   5.757   2.371  15.588  1.2140 -0.1697 -0.6900
12163TIP3    H257905   5.668   2.387  15.709  0.4108 -0.8012 -1.1867
12164TIP3   OH257906   0.657   3.078  15.144  0.0469 -0.2414 -0.0498
12164TIP3    H157907   0.697   3.088  15.230  3.0609 -0.9787 -1.2595
12164TIP3    H257908   0.705   3.139  15.088 -0.8571 -0.8400 -1.5339
12165TIP3   OH257909   3.485   4.674  15.650  0.3073 -0.5274 -0.0341
12165TIP3    H157910   3.487   4.658  15.745 -3.8309  0.5861  0.4543
12165TIP3    H257911   3.501   4.589  15.611 -1.3452 -1.8164  1.8539
12166TIP3   OH257912   2.214   6.362   3.119 -0.0287 -0.1492 -0.2962
12166TIP3    H157913   2.264   6.417   3.179 -1.7833  0.0824  1.0442
12166TIP3    H257914   2.278   6.301   3.083  1.1343 -0.1843  1.6936
12167TIP3   OH257915   1.652   2.008   0.544  0.1069 -0.1414 -0.2778
12167TIP3    H157916   1.735   1.968   0.517 -0.5920 -1.0150 -1.2019
12167TIP3    H257917   1.597   1.934   0.569 -0.9878  0.2690 -1.3738
12168TIP3   OH257918   3.989   0.361   4.119 -0.0093  0.1745  0.1287
12168TIP3    H157919   4.077   0.398   4.123  0.3084 -0.5439 -0.0008
12168TIP3    H257920   3.944   0.398   4.196  0.4967  0.3142  0.3624
12169TIP3   OH257921   5.531   3.459  12.738  0.6865  0.6523 -0.2832
12169TIP3    H157922   5.526   3.378  12.687  0.5283  0.7131 -0.3623
12169TIP3    H257923   5.569   3.432  12.822  3.6614  0.9728 -1.3977
12170TIP3   OH257924   3.275   4.526   3.102  0.3740 -0.1084 -0.3663
12170TIP3    H157925   3.212   4.522   3.030  0.5341 -0.7971 -0.4707
12170TIP3    H257926   3.356   4.492   3.066  0.8247  0.7871 -0.2311
12171TIP3   OH257927   0.415   6.671  11.742  0.1696 -0.0605 -0.0942
12171TIP3    H157928   0.331   6.639  11.776  0.5415 -1.0445 -0.0661
12171TIP3    H257929   0.413   6.765  11.758 -0.7188 -0.1445  0.3633
12172TIP3   OH257930   6.838   6.690  15.808  0.4349 -0.0116 -0.1248
12172TIP3    H157931   6.826   6.771  15.757  1.4087 -0.7539 -1.6066
12172TIP3    H257932   6.749   6.661  15.826  0.0162  0.0073 -1.9155
12173TIP3   OH257933   5.700   0.245   0.136  0.0375 -0.2375 -0.2218
12173TIP3    H157934   5.661   0.264   0.222  1.1941 -0.4147  0.3579
12173TIP3    H257935   5.788   0.213   0.156  0.1024 -0.8829 -1.4532
12174TIP3   OH257936   2.429   3.682  12.040  0.3874 -0.6253  0.3248
12174TIP3    H157937   2.418   3.629  12.119 -0.5464 -2.8150 -1.2144
12174TIP3    H257938   2.372   3.758  12.054 -1.5043 -2.0880  0.8318
12175TIP3   OH257939   6.316   1.936   5.214  0.7026  0.2616  0.0584
12175TIP3    H157940   6.367   1.858   5.231  0.5768  0.0103 -0.6949
12175TIP3    H257941   6.298   1.973   5.301  2.3690  0.5025  0.3289
12176TIP3   OH257942   5.073   2.059  10.323 -0.9463  0.2309  0.5168
12176TIP3    H157943   5.090   2.058  10.229 -0.7622 -0.8372  0.5508
12176TIP3    H257944   5.104   1.974  10.355 -0.8932  0.6216  1.5670
12177TIP3   OH257945   1.620   0.119   4.885  0.4879  0.1234 -0.0890
12177TIP3    H157946   1.699   0.067   4.873  0.1620 -0.5695  0.6600
12177TIP3    H257947   1.631   0.161   4.970 -0.2367 -0.5149  0.3330
12178TIP3   OH257948   4.177   3.001  14.277 -0.0400 -0.2594  0.0956
12178TIP3    H157949   4.193   3.085  14.319  0.5479 -1.0242  1.4655
12178TIP3    H257950   4.233   3.001  14.199 -0.8179  1.0026 -0.4987
12179TIP3   OH257951   6.421   2.037   4.746  0.2902 -0.2670 -0.3342
12179TIP3    H157952   6.426   2.122   4.702 -1.7463  2.0258  3.2915
12179TIP3    H257953   6.504   2.031   4.795  0.3989 -0.3416 -0.5260
12180TIP3   OH257954   6.701   0.052  11.593 -0.3474 -0.2116  0.3563
12180TIP3    H157955   6.668   0.097  11.515 -0.4365 -0.4266  0.2701
12180TIP3    H257956   6.690   0.116  11.663 -0.0959  0.0494  0.1605
12181TIP3   OH257957   4.547   5.448  16.165 -0.5744  0.3755  0.2569
12181TIP3    H157958   4.597   5.509  16.111 -0.5932  1.5769  1.5204
12181TIP3    H257959   4.586   5.362  16.148  0.2324  0.9160 -0.6880
12182TIP3   OH257960   0.988   6.564   4.642 -0.2610 -0.5075 -0.1754
12182TIP3    H157961   1.007   6.499   4.709  0.1688 -0.1680  0.0361
12182TIP3    H257962   0.931   6.627   4.685 -0.7451 -0.7796 -0.4042
12183TIP3   OH257963   2.855   2.649  15.368 -0.5321  0.3580 -0.0122
12183TIP3    H157964   2.943   2.630  15.334 -1.2866 -0.7501 -1.4801
12183TIP3    H257965   2.830   2.731  15.326 -0.6536  0.0570 -0.5361
12184TIP3   OH257966   6.883   2.994  12.631  0.2497 -0.0416  0.8177
12184TIP3    H157967   6.919   3.077  12.664 -0.9530  0.3325  1.2191
12184TIP3    H257968   6.908   2.930  12.697  1.8136 -0.1726  0.1575
12185TIP3   OH257969   5.440   3.645   2.747  0.7464 -0.1412  0.6846
12185TIP3    H157970   5.449   3.738   2.771  1.3083  0.2490 -0.9127
12185TIP3    H257971   5.349   3.636   2.719  0.0076 -0.6587  2.9961
12186TIP3   OH257972   5.787   5.584  10.372 -0.3093 -0.1040 -0.4497
12186TIP3    H157973   5.821   5.624  10.292  0.3718  1.6554  0.6761
12186TIP3    H257974   5.865   5.562  10.423 -0.7721  0.8159  0.6793
12187TIP3   OH257975   0.020   6.560  10.249  0.2659  0.0222 -0.0030
12187TIP3    H157976   0.100   6.597  10.287  0.2761 -1.5927  1.6986
12187TIP3    H257977  -0.042   6.632  10.248  0.6721  0.4469  1.9856
12188TIP3   OH257978   0.923   2.216   0.517 -0.3068 -0.5966 -0.5492
12188TIP3    H157979   0.864   2.263   0.457 -2.3019 -0.5364  1.3357
12188TIP3    H257980   1.002   2.202   0.465 -1.3698  0.7059 -2.7188
12189TIP3   OH257981   5.740   1.912   1.199  0.0639  0.2039  0.2219
12189TIP3    H157982   5.669   1.864   1.243 -0.4924  1.8794  1.2518
12189TIP3    H257983   5.812   1.849   1.195 -0.7676 -0.8528  1.1284
12190TIP3   OH257984   4.856   4.172  12.181  0.6196  0.3383  0.6381
12190TIP3    H157985   4.930   4.213  12.137 -1.1870  1.3917 -1.6242
12190TIP3    H257986   4.783   4.232  12.166 -0.6066 -0.3204  3.3414
12191TIP3   OH257987   0.290   3.988   4.335 -0.4250 -0.5801 -0.0783
12191TIP3    H157988   0.360   3.944   4.383 -1.2549 -1.8899  0.0090
12191TIP3    H257989   0.327   4.071   4.307  0.3481 -0.1267  2.1292
12192TIP3   OH257990   2.409   4.360   5.422 -0.4936 -0.3475  0.4305
12192TIP3    H157991   2.361   4.427   5.471  2.8559  0.8180  2.5119
12192TIP3    H257992   2.384   4.277   5.464 -3.8345 -0.4713 -1.4481
12193TIP3   OH257993   2.213   0.294   5.748  0.0875  0.4541 -0.8026
12193TIP3    H157994   2.181   0.235   5.816  2.8895 -2.4855 -1.7515
12193TIP3    H257995   2.148   0.289   5.679 -0.7345  0.1797 -0.0325
12194TIP3   OH257996   5.554   0.026   4.420 -0.0647  0.5692  0.3727
12194TIP3    H157997   5.613  -0.040   4.384  2.0547  1.3568  2.2204
12194TIP3    H257998   5.571   0.105   4.367 -2.1840 -0.0867 -1.4572
12195TIP3   OH257999   3.800   1.146  12.127  0.8672 -0.3950 -0.2005
12195TIP3    H158000   3.765   1.223  12.081  2.1600  0.9538  0.9757
12195TIP3    H258001   3.891   1.140  12.098  1.1460 -0.6823  0.7007
12196TIP3   OH258002   5.930   6.400   0.898  0.0317  0.5185  0.3018
12196TIP3    H158003   5.883   6.317   0.908  0.6648 -0.1545 -1.7719
12196TIP3    H258004   5.861   6.466   0.890 -0.5818 -0.2569 -1.2041
12197TIP3   OH258005   5.655   0.787   2.590  0.0397  0.2667  0.5771
12197TIP3    H158006   5.740   0.824   2.614  0.5991 -1.4313  1.3712
12197TIP3    H258007   5.591   0.850   2.624  0.9656  1.4790  0.1259
12198TIP3   OH258008   4.516   3.283   1.112 -0.3871  0.1405  0.8594
12198TIP3    H158009   4.598   3.276   1.064 -0.9186 -0.0219 -0.0499
12198TIP3    H258010   4.471   3.200   1.095 -0.6970  0.1841  1.4369
12199TIP3   OH258011   2.369   6.244  15.029 -0.0715  0.2139  0.5631
12199TIP3    H158012   2.398   6.171  14.975 -1.9200  0.3845 -0.7500
12199TIP3    H258013   2.331   6.203  15.107  0.1540 -0.1579  0.4779
12200TIP3   OH258014   5.114   0.136  10.774  0.1149  0.6240  0.9311
12200TIP3    H158015   5.166   0.215  10.762  0.3827  0.1296 -1.6961
12200TIP3    H258016   5.032   0.166  10.814  0.3471  2.1691  0.2778
12201TIP3   OH258017   5.520   6.383  14.865  0.3559  0.4605  0.2220
12201TIP3    H158018   5.572   6.313  14.825  1.1832  0.4988  1.1830
12201TIP3    H258019   5.522   6.454  14.802 -0.0775 -0.2049 -0.5528
12202TIP3   OH258020   6.678   6.176   0.349 -0.4704  0.4151 -0.6441
12202TIP3    H158021   6.590   6.150   0.376 -0.9266  0.4924 -2.0009
12202TIP3    H258022   6.701   6.246   0.410 -1.9220  1.3785 -1.1474
12203TIP3   OH258023   4.036   3.027  11.585  0.0927 -0.4013  0.3705
12203TIP3    H158024   4.003   2.939  11.604 -0.3930 -0.3620 -0.2526
12203TIP3    H258025   3.985   3.055  11.510 -0.8789  1.0422  1.5164
12204TIP3   OH258026   6.531   2.042   5.060  0.1662 -0.1588  0.6308
12204TIP3    H158027   6.606   1.997   5.098 -0.2315 -1.9869 -0.5947
12204TIP3    H258028   6.455   1.995   5.094 -0.2232 -1.4349 -1.7534
12205TIP3   OH258029   1.391   0.042   4.639  0.2247  0.1435  0.1317
12205TIP3    H158030   1.412  -0.023   4.707  1.7676 -2.2319 -2.3950
12205TIP3    H258031   1.448   0.019   4.566 -1.4718  2.4399 -2.0748
12206TIP3   OH258032   4.524   3.228  14.020  0.2556 -0.1699 -0.4961
12206TIP3    H158033   4.577   3.291  14.069 -1.0985  0.5600  0.1039
12206TIP3    H258034   4.539   3.250  13.928  0.6356  0.3259 -0.3185
12207TIP3   OH258035   6.278   0.557   2.787  0.4922  0.3121 -0.5777
12207TIP3    H158036   6.361   0.573   2.742 -0.3845  0.8291 -2.1016
12207TIP3    H258037   6.264   0.635   2.840  1.6047 -0.3594  0.7649
12208TIP3   OH258038   2.521   5.013  13.160 -0.3500 -0.0230  0.0689
12208TIP3    H158039   2.461   5.087  13.162  0.2109  0.4232  1.1479
12208TIP3    H258040   2.464   4.936  13.154 -1.1735  0.2764  2.8147
12209TIP3   OH258041   1.413   0.896   2.643  0.3183 -0.5937 -0.8445
12209TIP3    H158042   1.383   0.825   2.586 -1.0739 -0.4585 -0.3278
12209TIP3    H258043   1.346   0.902   2.712  0.0877  1.5679 -1.1683
12210TIP3   OH258044   0.998   3.930  16.325 -0.6566  0.1620 -0.1659
12210TIP3    H158045   0.935   3.861  16.348 -1.0772  0.5487 -0.1533
12210TIP3    H258046   1.079   3.882  16.305 -0.9192 -0.3309 -0.0722
12211TIP3   OH258047   3.316   6.023  10.743  0.2109 -0.4575  0.6482
12211TIP3    H158048   3.408   5.998  10.744  0.4944  0.5537  2.1949
12211TIP3    H258049   3.268   5.943  10.764  0.8062 -0.7330  0.9474
12212TIP3   OH258050   4.792   5.447  15.402  0.0921 -0.0908 -0.0776
12212TIP3    H158051   4.871   5.464  15.452 -1.4565  1.9453  1.8364
12212TIP3    H258052   4.792   5.352  15.389  2.4096 -0.2259  0.5408
12213TIP3   OH258053   2.653   0.577  13.091  0.0274 -0.4498 -0.0626
12213TIP3    H158054   2.686   0.596  13.179  0.7828  1.1559 -0.6612
12213TIP3    H258055   2.562   0.552  13.104 -0.5801  2.0476  1.0065
12214TIP3   OH258056   6.773   6.642   3.300  0.1932 -0.1352 -0.3970
12214TIP3    H158057   6.790   6.548   3.291 -1.4214 -0.4326 -0.5667
12214TIP3    H258058   6.682   6.653   3.272  0.2319  1.4254  0.0078
12215TIP3   OH258059   0.461   0.168  14.931  0.6152  0.2222  0.0398
12215TIP3    H158060   0.510   0.152  14.851  1.1394  0.5231  0.2967
12215TIP3    H258061   0.372   0.186  14.901  0.6200 -0.4726 -0.4182
12216TIP3   OH258062   3.020   6.262   4.842  0.1005 -0.0106 -0.5724
12216TIP3    H158063   3.095   6.211   4.810  0.6948 -0.4748  1.4049
12216TIP3    H258064   3.002   6.225   4.929 -0.5447  2.0444  0.2156
12217TIP3   OH258065   0.853   3.505   3.843  0.3743  0.6373 -0.2246
12217TIP3    H158066   0.898   3.420   3.837 -0.4408  0.2203 -0.5864
12217TIP3    H258067   0.777   3.496   3.786 -0.1579  1.3456  0.3557
12218TIP3   OH258068   4.579   6.849   4.528  0.2223 -0.2017  0.1772
12218TIP3    H158069   4.511   6.784   4.547 -1.0739  0.8751 -0.5687
12218TIP3    H258070   4.632   6.853   4.607 -0.4844 -1.1943  0.7207
12219TIP3   OH258071   1.382   1.207  13.982  0.1650 -0.1381  0.6102
12219TIP3    H158072   1.372   1.173  14.071  0.1930 -0.1761  0.5981
12219TIP3    H258073   1.465   1.254  13.983 -0.2486  0.6061  0.8428
12220TIP3   OH258074   5.967   1.078   2.497 -0.2946  0.4285  0.2514
12220TIP3    H158075   5.999   1.091   2.586 -0.4185 -0.8633  0.5100
12220TIP3    H258076   6.046   1.056   2.446 -0.2045  1.2944  0.0013
12221TIP3   OH258077   0.015   1.648   6.302 -0.1487  0.2722  0.0400
12221TIP3    H158078   0.102   1.664   6.265  0.6507  4.0058  2.9113
12221TIP3    H258079  -0.045   1.668   6.231  1.2271 -1.3206 -1.6883
12222TIP3   OH258080   2.539   6.569  10.460  0.2511  0.3017  0.3767
12222TIP3    H158081   2.512   6.490  10.413  1.3846 -0.9026  1.6588
12222TIP3    H258082   2.622   6.593  10.420 -0.3974  1.2597 -0.4422
12223TIP3   OH258083   5.402   5.192  13.650 -0.5687  0.5149 -0.3182
12223TIP3    H158084   5.450   5.208  13.569 -1.5766 -0.7965 -1.2145
12223TIP3    H258085   5.469   5.169  13.714  0.0646 -0.9452 -1.4578
12224TIP3   OH258086   6.032   2.458  13.722  0.2469 -0.1122 -1.2408
12224TIP3    H158087   6.119   2.450  13.761  0.2044 -1.3361 -1.3700
12224TIP3    H258088   6.039   2.534  13.664  0.9641  0.3418 -0.5849
12225TIP3   OH258089   6.354   5.149   1.191  0.3710  0.5144  0.1294
12225TIP3    H158090   6.364   5.098   1.111  1.3966 -0.5915  0.9404
12225TIP3    H258091   6.275   5.201   1.176 -1.6580 -2.4308 -0.1352
12226TIP3   OH258092   4.077   5.209  14.937 -0.3189 -0.1606  0.4387
12226TIP3    H158093   4.149   5.156  14.973  0.6983 -0.5200 -1.9414
12226TIP3    H258094   4.093   5.210  14.843 -0.7814  3.7178  0.2770
12227TIP3   OH258095   4.728   6.564   2.608  0.1642  0.0620  0.1007
12227TIP3    H158096   4.696   6.485   2.651  1.2321  0.4420  1.7047
12227TIP3    H258097   4.771   6.613   2.678  0.0749  1.7725 -0.9916
12228TIP3   OH258098   6.591   4.046  11.744  0.1039  0.3931  0.3306
12228TIP3    H158099   6.531   3.971  11.745 -1.2410  1.4015  2.6570
12228TIP3    H258100   6.569   4.094  11.665 -0.0135 -0.8493 -0.4244
12229TIP3   OH258101   0.810   5.496  15.267  0.3860 -0.2484 -0.2632
12229TIP3    H158102   0.841   5.489  15.357 -1.8289 -0.0048  0.5868
12229TIP3    H258103   0.725   5.539  15.274 -0.2516 -1.0147 -2.3976
12230TIP3   OH258104   4.241   1.372   4.177  0.2818  0.3612  0.4688
12230TIP3    H158105   4.247   1.461   4.213 -1.5936  1.0000 -0.6211
12230TIP3    H258106   4.201   1.384   4.091 -2.5061 -1.6936  1.3273
12231TIP3   OH258107   6.543   4.812  14.916  0.4384  0.2018 -0.0802
12231TIP3    H158108   6.527   4.875  14.846 -1.9057 -0.3633 -0.1518
12231TIP3    H258109   6.489   4.843  14.989  0.5451 -0.8124  0.4501
12232TIP3   OH258110   1.613   0.579   5.985  0.0158 -0.2809  0.0067
12232TIP3    H158111   1.603   0.674   5.981 -0.5116 -0.2971  0.7313
12232TIP3    H258112   1.524   0.546   5.977  0.3516 -0.8088 -2.1507
12233TIP3   OH258113   5.745   5.056  11.225 -0.2919 -0.6644  0.1082
12233TIP3    H158114   5.676   5.122  11.218 -0.3243 -0.6944  0.1487
12233TIP3    H258115   5.809   5.082  11.158  0.1576 -0.0281  0.7603
12234TIP3   OH258116   5.824   4.644  10.255  0.2031  0.1971  0.1817
12234TIP3    H158117   5.862   4.728  10.231  1.0659 -0.0647  0.5581
12234TIP3    H258118   5.769   4.663  10.331  1.9315  0.1579  1.5232
12235TIP3   OH258119   1.984   5.841  16.338 -0.2140 -0.0320  0.0453
12235TIP3    H158120   1.941   5.819  16.421 -0.4183 -0.8945 -0.2735
12235TIP3    H258121   2.040   5.915  16.358 -0.4544 -0.0764  0.9011
12236TIP3   OH258122   2.836   5.777  12.063 -0.2239  0.6609 -0.8779
12236TIP3    H158123   2.896   5.842  12.027  0.0809  0.3520 -0.9317
12236TIP3    H258124   2.892   5.706  12.092 -0.2663  1.5884  1.7691
12237TIP3   OH258125   0.039   6.369   3.048  0.5156 -0.2740 -0.0729
12237TIP3    H158126   0.099   6.298   3.027  1.4025  0.1688  0.8414
12237TIP3    H258127  -0.037   6.326   3.087  0.4423 -0.8043 -0.7817
12238TIP3   OH258128   2.966   0.403   3.746  0.2017  0.1115 -0.0858
12238TIP3    H158129   2.945   0.450   3.666 -1.0905 -0.8701 -0.3590
12238TIP3    H258130   2.941   0.312   3.728  1.6238 -0.4901  0.7947
12239TIP3   OH258131   5.088   2.902   2.958 -0.1213  0.4633 -0.3149
12239TIP3    H158132   5.006   2.854   2.941  0.3673 -0.3053 -0.5842
12239TIP3    H258133   5.081   2.981   2.905 -0.7921  0.5169 -0.1552
12240TIP3   OH258134   1.082   4.191   1.829 -0.4394 -0.1902 -0.1647
12240TIP3    H158135   1.007   4.132   1.834 -0.8802  0.3061 -0.7462
12240TIP3    H258136   1.043   4.278   1.813  0.3286 -0.2775 -3.1401
12241TIP3   OH258137   0.736   4.837  13.749 -0.5590  0.3445 -0.1809
12241TIP3    H158138   0.736   4.794  13.834 -0.5937  1.5161  0.4305
12241TIP3    H258139   0.721   4.766  13.686  1.9830 -0.9998  0.5461
12242TIP3   OH258140   6.568   4.635  15.249  0.0104  0.4356 -0.4504
12242TIP3    H158141   6.630   4.672  15.187  0.0313  0.5592 -0.3577
12242TIP3    H258142   6.588   4.542  15.252 -1.0724  0.1183 -1.8866
12243TIP3   OH258143   4.873   4.360   5.245  0.1686  0.0120 -0.8581
12243TIP3    H158144   4.940   4.307   5.288  0.3172  0.8581 -0.0170
12243TIP3    H258145   4.790   4.324   5.278  0.2632  0.1822 -0.4271
12244TIP3   OH258146   2.794   5.530  11.516 -0.3371  0.0451  0.5781
12244TIP3    H158147   2.755   5.473  11.582 -2.0074  2.2914  1.6475
12244TIP3    H258148   2.735   5.605  11.511  0.9764  1.0261 -1.8341
12245TIP3   OH258149   5.485   1.952   1.884 -0.5634 -0.7162  0.4372
12245TIP3    H158150   5.405   1.918   1.844  0.0760 -0.3984 -1.1792
12245TIP3    H258151   5.454   2.015   1.950 -1.6482 -0.2675 -0.4748
12246TIP3   OH258152   4.551   5.212  14.397  0.1842  0.3414 -0.6393
12246TIP3    H158153   4.562   5.176  14.309 -0.3542 -0.2133 -0.4784
12246TIP3    H258154   4.546   5.136  14.455  1.5882  0.7020  0.0187
12247TIP3   OH258155   4.380   3.630   3.540 -0.7460  0.2017 -0.4969
12247TIP3    H158156   4.358   3.554   3.594 -3.7646  2.2444  1.4239
12247TIP3    H258157   4.298   3.651   3.495 -0.3599  2.9925 -0.0489
12248TIP3   OH258158   2.994   2.026   4.365  0.4959 -0.1040  0.4190
12248TIP3    H158159   2.928   2.010   4.297 -1.0246 -0.1144  1.8131
12248TIP3    H258160   3.003   1.942   4.410 -0.4997  0.5136  1.8547
12249TIP3   OH258161   1.137   2.771   2.864  0.2378 -0.3999  0.8430
12249TIP3    H158162   1.221   2.771   2.911  1.0075  0.3750 -0.4716
12249TIP3    H258163   1.092   2.850   2.895 -0.7748 -1.6365  2.7605
12250TIP3   OH258164   5.011   6.513   0.293  0.1337 -0.5190  0.8087
12250TIP3    H158165   5.024   6.541   0.384  0.8748 -2.7098  1.4471
12250TIP3    H258166   5.082   6.451   0.277 -0.2358 -0.4907 -1.1468
12251TIP3   OH258167   0.951   2.788  14.935 -0.0348 -0.6156  0.3098
12251TIP3    H158168   0.869   2.739  14.930  0.0477 -0.7515  0.2992
12251TIP3    H258169   0.934   2.868  14.886 -0.0392 -0.8127 -0.0079
12252TIP3   OH258170   2.544   3.889  13.586 -0.2404 -0.1333  0.2456
12252TIP3    H158171   2.506   3.807  13.617  1.2741 -0.4540  1.3613
12252TIP3    H258172   2.590   3.865  13.505 -1.8823  0.1558 -0.8218
12253TIP3   OH258173   3.393   3.079   4.335 -0.6279 -0.1004 -0.5674
12253TIP3    H158174   3.485   3.087   4.362 -0.0478 -0.7502 -2.2060
12253TIP3    H258175   3.393   3.006   4.272 -1.9867  0.8838 -1.7652
12254TIP3   OH258176   1.280   1.896   4.093 -0.0055 -0.1302  0.1151
12254TIP3    H158177   1.317   1.859   4.013 -3.2309  1.1391 -2.1686
12254TIP3    H258178   1.355   1.929   4.141  2.0466 -0.4542 -2.6410
12255TIP3   OH258179   2.987   1.054  16.564  0.7276  0.1827  0.5173
12255TIP3    H158180   3.052   1.113  16.603  0.8213 -0.6173  1.6069
12255TIP3    H258181   2.928   1.032  16.636 -0.2638  0.2122 -0.2618
12256TIP3   OH258182   1.996   4.565  11.086 -0.0249  0.1416  0.3025
12256TIP3    H158183   2.062   4.540  11.151 -0.6792 -1.5212  0.3814
12256TIP3    H258184   1.915   4.526  11.119 -0.7034  0.6799 -0.6909
12257TIP3   OH258185   0.447   0.658  13.844  0.4495 -0.1407  1.0825
12257TIP3    H158186   0.369   0.655  13.789 -0.1834 -2.2940  1.9499
12257TIP3    H258187   0.434   0.733  13.901 -1.0084 -0.4392  1.1822
12258TIP3   OH258188   1.848   6.361  10.781 -0.0043 -0.0053  0.0220
12258TIP3    H158189   1.821   6.435  10.726  1.4157 -0.0435 -0.7781
12258TIP3    H258190   1.936   6.384  10.810  0.0068 -0.8780  0.7094
12259TIP3   OH258191   0.093   3.043   3.908 -0.4569 -0.5709  0.9342
12259TIP3    H158192   0.065   2.983   3.839  0.8124 -0.7462  0.5362
12259TIP3    H258193   0.037   3.022   3.982 -2.8346  0.5938 -0.4252
12260TIP3   OH258194   5.521   0.998   4.289  0.1568 -0.3075  0.2816
12260TIP3    H158195   5.558   1.086   4.303 -0.9617  0.1267  0.6455
12260TIP3    H258196   5.506   0.994   4.195  1.3966 -0.6232  0.0719
12261TIP3   OH258197   4.921   2.139  15.231  0.0402  0.2739 -0.0293
12261TIP3    H158198   5.000   2.167  15.278 -1.4277 -0.0029  2.8082
12261TIP3    H258199   4.870   2.219  15.222  0.1669  0.2640 -0.9785
12262TIP3   OH258200   5.152   3.943  13.198 -0.1990  0.0762  0.3558
12262TIP3    H158201   5.137   3.869  13.258 -0.0053  0.4558  0.8783
12262TIP3    H258202   5.064   3.973  13.175 -0.3556 -1.4531 -1.3223
12263TIP3   OH258203   3.192   1.393   4.834 -0.3302 -0.3744 -0.1812
12263TIP3    H158204   3.241   1.473   4.815 -1.0973 -0.4862 -3.1362
12263TIP3    H258205   3.255   1.336   4.876  1.8082 -0.0280 -2.6563
12264TIP3   OH258206   2.339   5.276  12.234 -0.3826  0.4107 -0.0562
12264TIP3    H158207   2.387   5.194  12.246 -0.2787  0.2682 -1.2570
12264TIP3    H258208   2.363   5.305  12.145 -0.9854  1.3620  0.0712
12265TIP3   OH258209   6.351   4.310  13.043  0.5769  0.0661  0.1475
12265TIP3    H158210   6.362   4.248  13.115  0.7730 -1.0351 -0.8054
12265TIP3    H258211   6.279   4.273  12.990  1.9422 -0.4165 -1.4710
12266TIP3   OH258212   3.083   4.761  14.507  0.1702 -0.6037 -0.5395
12266TIP3    H158213   3.094   4.674  14.546 -1.2036 -0.3167  0.5685
12266TIP3    H258214   3.098   4.748  14.414  0.9896 -1.8292 -0.2548
12267TIP3   OH258215   4.199   3.599  14.169 -0.0982  0.0658 -0.0516
12267TIP3    H158216   4.270   3.558  14.218 -0.2834  0.9749  1.0043
12267TIP3    H258217   4.120   3.554  14.200 -0.0372 -0.7354 -1.0034
12268TIP3   OH258218   5.318   4.223  14.467 -0.6778 -0.6821 -0.4468
12268TIP3    H158219   5.265   4.280  14.411 -0.7801 -0.2592  0.0676
12268TIP3    H258220   5.407   4.233  14.434 -0.9438 -1.5953 -1.4818
12269TIP3   OH258221   6.386   0.266  14.872  0.0485 -0.7297  0.0695
12269TIP3    H158222   6.323   0.240  14.804 -0.5640  0.3702  0.1972
12269TIP3    H258223   6.448   0.322  14.827 -0.3150 -0.0594  0.3896
12270TIP3   OH258224   4.300   5.020   3.334  0.4115  0.5009  0.4413
12270TIP3    H158225   4.380   4.974   3.362 -0.1930 -0.1645  1.1324
12270TIP3    H258226   4.330   5.107   3.309  1.2582  0.5201  1.4469
12271TIP3   OH258227   1.518   4.613  13.061  0.2275 -0.6313 -0.5393
12271TIP3    H158228   1.475   4.698  13.068  2.0450  0.1576  2.7265
12271TIP3    H258229   1.504   4.572  13.146  0.5982 -3.0624 -1.5706
12272TIP3   OH258230   0.067   4.391  11.099  0.3866 -0.0624 -0.3195
12272TIP3    H158231   0.049   4.485  11.108 -1.4611 -0.0845 -2.8141
12272TIP3    H258232   0.122   4.385  11.021  1.2869 -1.0145  0.3717
12273TIP3   OH258233   3.017   4.431  15.705 -0.4355  0.2303 -0.2679
12273TIP3    H158234   3.022   4.523  15.681 -2.1568  0.5377  0.4308
12273TIP3    H258235   2.989   4.387  15.624 -1.0526  0.5337 -0.2252
12274TIP3   OH258236   1.728   1.638  12.150 -0.0656 -0.1944  1.1243
12274TIP3    H158237   1.818   1.672  12.158  0.0479 -0.2715  0.2939
12274TIP3    H258238   1.680   1.680  12.221  0.6637 -0.2645  1.6686
12275TIP3   OH258239   6.426   6.329  13.957  0.0971  0.3423 -0.0323
12275TIP3    H158240   6.438   6.243  13.998 -0.6697  0.3977  0.3255
12275TIP3    H258241   6.339   6.325  13.919  0.6084  0.4687 -1.2582
12276TIP3   OH258242   6.819   5.367   4.830 -0.3310  0.2947  0.5208
12276TIP3    H158243   6.823   5.334   4.919  1.1601  2.2232  1.2161
12276TIP3    H258244   6.910   5.375   4.802 -0.7512 -0.0224 -1.1032
12277TIP3   OH258245   5.304   4.954   1.664 -0.2577 -0.9187 -0.1166
12277TIP3    H158246   5.380   5.006   1.689  0.2496 -2.2107  1.1134
12277TIP3    H258247   5.319   4.931   1.572 -0.8737  1.6911 -0.9595
12278TIP3   OH258248   1.232   6.369  11.954  0.0772 -0.4117  0.2971
12278TIP3    H158249   1.196   6.284  11.928  1.6569 -0.7034 -1.1399
12278TIP3    H258250   1.184   6.432  11.900 -0.8235 -0.4089  1.0809
12279TIP3   OH258251   4.771   0.742   4.591 -0.3840 -0.4140  0.4410
12279TIP3    H158252   4.747   0.661   4.637 -1.1942 -1.6018 -1.9511
12279TIP3    H258253   4.866   0.739   4.587 -0.3956 -1.1806  0.5231
12280TIP3   OH258254   3.528   1.538  14.890 -0.1963  0.1507  0.3780
12280TIP3    H158255   3.440   1.539  14.929 -0.0765 -0.0913  0.6666
12280TIP3    H258256   3.582   1.585  14.953  0.1432 -0.8637  0.8779
12281TIP3   OH258257   1.138   5.083  10.109  0.0602  0.1663 -0.1449
12281TIP3    H158258   1.091   5.141  10.050  0.6130  0.5474 -0.2260
12281TIP3    H258259   1.227   5.120  10.112 -0.0523  0.3527  1.1917
12282TIP3   OH258260   4.388   1.201  12.613  0.0870 -0.0347  0.6716
12282TIP3    H158261   4.475   1.160  12.618  0.4238  0.3079 -1.5379
12282TIP3    H258262   4.398   1.284  12.659  0.3222 -0.8815  2.2328
12283TIP3   OH258263   0.794   2.618  13.296  0.3691 -0.0906  0.0929
12283TIP3    H158264   0.784   2.669  13.377 -0.2038  0.0643 -0.0677
12283TIP3    H258265   0.767   2.530  13.319  0.0618 -0.0136  0.0423
12284TIP3   OH258266   1.733   2.660   6.357 -0.2069 -0.3971  0.7528
12284TIP3    H158267   1.698   2.577   6.324 -0.3935  0.0747 -0.2827
12284TIP3    H258268   1.821   2.664   6.321 -0.7442  0.5686 -0.5511
12285TIP3   OH258269   3.917   3.084  14.228 -0.0439 -0.1321 -0.0719
12285TIP3    H158270   3.988   3.020  14.219  0.7161  0.9063 -1.7470
12285TIP3    H258271   3.954   3.154  14.282 -0.1322 -0.0313 -0.1427
12286TIP3   OH258272   0.217   1.671   2.837  0.3151  0.2158 -0.0925
12286TIP3    H158273   0.239   1.592   2.788  1.0282 -0.7998  1.7942
12286TIP3    H258274   0.246   1.653   2.927  0.3619  2.5560  0.4240
12287TIP3   OH258275   0.295   1.200  16.281 -0.1184 -0.4287  0.3794
12287TIP3    H158276   0.356   1.156  16.339  0.5745  0.2553  0.1916
12287TIP3    H258277   0.208   1.180  16.316  0.0840 -2.8478 -0.3385
12288TIP3   OH258278   2.642   1.625   3.465 -0.1893 -0.2073  0.4747
12288TIP3    H158279   2.635   1.551   3.524 -1.7315 -0.2176  0.3277
12288TIP3    H258280   2.579   1.607   3.395  2.1429 -0.6071 -1.6851
12289TIP3   OH258281   2.799   4.079   1.253 -0.0162 -0.2318 -0.3952
12289TIP3    H158282   2.739   4.154   1.257 -0.3159 -0.5170  1.3755
12289TIP3    H258283   2.883   4.115   1.283  0.2924 -0.2192 -1.2476
12290TIP3   OH258284   6.302   2.018   1.362 -0.3927 -0.0510 -0.0187
12290TIP3    H158285   6.297   2.097   1.416 -0.6336  0.6023 -0.9652
12290TIP3    H258286   6.325   1.948   1.423  1.7390  1.0612  0.5624
12291TIP3   OH258287   6.618   1.407   4.594  0.5390 -0.7104 -0.3686
12291TIP3    H158288   6.638   1.408   4.500  2.2022 -1.0435 -0.0528
12291TIP3    H258289   6.622   1.499   4.620  2.5497 -0.7886 -0.1995
12292TIP3   OH258290   2.405   5.033   0.705  0.3743  0.0690 -0.4198
12292TIP3    H158291   2.315   5.066   0.717  0.1703 -0.2706 -1.0047
12292TIP3    H258292   2.434   5.011   0.794  0.2708  1.1813 -0.0945
12293TIP3   OH258293   1.839   3.847   0.743  0.2139 -0.0450  0.8832
12293TIP3    H158294   1.792   3.785   0.799 -2.5999  0.0123 -1.1967
12293TIP3    H258295   1.867   3.794   0.668 -1.8715  0.9696 -0.7189
12294TIP3   OH258296   3.057   1.028   3.147  0.2848  0.0767  0.2708
12294TIP3    H158297   3.068   1.074   3.230 -1.2774 -1.2476  1.2894
12294TIP3    H258298   3.043   1.097   3.082 -0.4516  1.0835  1.4627
12295TIP3   OH258299   6.616   2.568  12.864 -0.3212 -0.2306  0.0436
12295TIP3    H158300   6.664   2.528  12.937  0.6108 -0.6018 -0.7444
12295TIP3    H258301   6.642   2.660  12.867  0.5767 -0.4554 -0.4586
12296TIP3   OH258302   0.487   0.753   3.284 -0.5954  0.4684  0.1183
12296TIP3    H158303   0.558   0.811   3.259 -0.9873  0.7952 -0.2401
12296TIP3    H258304   0.505   0.671   3.237 -1.3642  1.0973 -1.3279
12297TIP3   OH258305   5.912   5.451   0.978  0.2537 -0.2017 -0.3426
12297TIP3    H158306   5.934   5.467   1.069  1.6297 -3.7746  0.1248
12297TIP3    H258307   5.836   5.392   0.981  0.9269 -1.1725 -1.3959
12298TIP3   OH258308   4.624   3.250   3.300 -0.4383 -0.5488 -0.3330
12298TIP3    H158309   4.579   3.196   3.234 -1.2529 -0.3348  0.0304
12298TIP3    H258310   4.553   3.292   3.348  0.1233 -1.0423  0.9657
12299TIP3   OH258311   0.402   4.916  15.862  0.0729 -0.0459 -0.1230
12299TIP3    H158312   0.468   4.980  15.889  1.9215 -0.8824 -2.3045
12299TIP3    H258313   0.452   4.836  15.847 -1.6386 -1.0339 -0.7875
12300TIP3   OH258314   5.791   5.615  13.238  0.0054 -0.3013 -0.1083
12300TIP3    H158315   5.715   5.562  13.216  0.4709 -1.1871  0.3306
12300TIP3    H258316   5.762   5.671  13.309  0.0143 -1.3581  0.7658
12301TIP3   OH258317   2.355   6.456  13.243 -0.1440 -0.5516  0.1398
12301TIP3    H158318   2.329   6.364  13.235 -1.9265 -0.1225  0.4357
12301TIP3    H258319   2.381   6.466  13.335  0.3951 -0.8337  0.0202
12302TIP3   OH258320   4.755   4.451   0.677 -0.1119  0.6313  0.4188
12302TIP3    H158321   4.769   4.494   0.761  0.7045 -1.8696  1.6843
12302TIP3    H258322   4.661   4.435   0.673  0.0381 -0.8363  1.7892
12303TIP3   OH258323   6.130   3.062   0.763  0.0823 -0.4338 -0.1451
12303TIP3    H158324   6.087   3.013   0.693 -0.8859 -0.8094  0.6823
12303TIP3    H258325   6.106   3.154   0.745 -0.0237 -0.5086 -0.3964
12304TIP3   OH258326   3.714   4.049  11.421  0.0855  0.1116 -0.2238
12304TIP3    H158327   3.746   4.050  11.330  0.6154  0.5662 -0.0351
12304TIP3    H258328   3.636   3.994  11.418  0.3245 -0.2031 -0.8853
12305TIP3   OH258329   5.036   5.968   1.274 -0.3255  0.1377  0.2500
12305TIP3    H158330   5.068   6.042   1.325 -0.7051 -0.2376  1.0627
12305TIP3    H258331   4.970   5.927   1.331  0.4308 -1.2825  0.1595
12306TIP3   OH258332   0.033   5.942  15.129 -0.1529 -0.7947 -0.0867
12306TIP3    H158333   0.066   5.878  15.066 -0.0348 -1.8505  1.0107
12306TIP3    H258334   0.002   5.890  15.202  0.4596  0.4305  1.0948
12307TIP3   OH258335   0.433   2.063   0.598 -0.5186  0.0962  0.5294
12307TIP3    H158336   0.528   2.057   0.600 -0.5269 -0.1344  0.1783
12307TIP3    H258337   0.406   2.052   0.689 -0.2342 -0.2094  0.5758
12308TIP3   OH258338   2.078   3.731  12.205 -0.4981 -0.2020 -0.5631
12308TIP3    H158339   2.032   3.648  12.206 -2.6907  0.9300  1.5938
12308TIP3    H258340   2.122   3.736  12.290  0.9139  0.2258 -1.2724
12309TIP3   OH258341   3.049   2.524  10.690 -0.0684 -0.3454  0.0030
12309TIP3    H158342   3.110   2.527  10.616  0.4331 -0.3348  0.4076
12309TIP3    H258343   3.011   2.612  10.694  0.8112  0.0263  0.4963
12310TIP3   OH258344   1.110   6.871   4.558  0.3048  0.3700  0.3944
12310TIP3    H158345   1.089   6.929   4.485  0.8176 -0.3853 -0.3594
12310TIP3    H258346   1.192   6.906   4.593  0.7350 -0.0320 -0.2042
12311TIP3   OH258347   1.347   1.942  14.371  0.5213  0.5611 -0.2586
12311TIP3    H158348   1.349   1.851  14.401  0.0632 -0.3912 -2.8729
12311TIP3    H258349   1.438   1.964  14.353  0.8335  1.2199  1.7914
12312TIP3   OH258350   1.530   3.234  14.716  0.4163 -0.4928  0.4512
12312TIP3    H158351   1.614   3.188  14.720  1.1480  0.6928 -0.5980
12312TIP3    H258352   1.529   3.290  14.793  1.2767  0.5884 -0.3019
12313TIP3   OH258353   5.147   4.180  13.030 -0.2925 -0.6622 -0.2514
12313TIP3    H158354   5.129   4.105  13.086 -2.0199 -0.1984 -0.1332
12313TIP3    H258355   5.230   4.215  13.063 -0.2143 -1.6277  0.6421
12314TIP3   OH258356   3.424   0.874  15.500 -0.0318  0.1312 -0.6068
12314TIP3    H158357   3.503   0.831  15.466 -1.0482 -2.1733 -0.2277
12314TIP3    H258358   3.352   0.821  15.466 -1.3660  1.4558  0.0876
12315TIP3   OH258359   5.907   2.580  13.964 -0.3931  0.0517  0.1096
12315TIP3    H158360   5.919   2.528  14.043 -0.0616  0.7356  0.5253
12315TIP3    H258361   5.938   2.524  13.893  1.9610  0.4008  0.7710
12316TIP3   OH258362   1.101   6.567   4.951  0.1068 -0.2127  0.2666
12316TIP3    H158363   1.011   6.593   4.972 -0.8525 -2.7666 -0.3220
12316TIP3    H258364   1.105   6.474   4.973  2.0563 -0.6076 -1.4359
12317TIP3   OH258365   2.260   0.399  15.675  0.3576 -0.2306 -0.0668
12317TIP3    H158366   2.320   0.347  15.621 -1.4153 -3.3762  0.6815
12317TIP3    H258367   2.313   0.469  15.711  2.5143 -0.3207 -2.7477
12318TIP3   OH258368   3.739   6.499  13.602  0.4990  0.0360  0.5432
12318TIP3    H158369   3.761   6.585  13.637  0.3303 -0.6778  2.5429
12318TIP3    H258370   3.703   6.516  13.515  0.2399  2.0008  1.0013
12319TIP3   OH258371   5.665   3.341  14.494 -0.1075  0.6382  0.6668
12319TIP3    H158372   5.607   3.347  14.569 -0.0882 -0.6321  0.8019
12319TIP3    H258373   5.676   3.432  14.465 -0.6516  1.0778  1.7731
12320TIP3   OH258374   5.800   1.008   1.982 -0.0612  0.0869  0.6335
12320TIP3    H158375   5.867   0.948   1.950  0.5461  1.5992 -1.1170
12320TIP3    H258376   5.831   1.036   2.067  1.0730  0.0729  0.2386
12321TIP3   OH258377   0.003   2.961   4.192 -0.2889  0.5520  0.0372
12321TIP3    H158378  -0.016   2.970   4.285  0.5061 -2.7692  0.6557
12321TIP3    H258379   0.069   3.028   4.175 -0.8304  1.5773  1.7116
12322TIP3   OH258380   1.093   0.975   0.130  0.0542 -0.0534 -0.0003
12322TIP3    H158381   1.050   0.918   0.193  0.6190 -0.3962  0.0825
12322TIP3    H258382   1.043   1.057   0.134 -0.8556 -0.5826 -0.2380
12323TIP3   OH258383   4.387   0.560  10.970  0.6085  0.5278  0.4410
12323TIP3    H158384   4.340   0.587  10.891 -0.8762 -0.0416  1.0975
12323TIP3    H258385   4.405   0.467  10.957 -0.2757  0.2643  1.0735
12324TIP3   OH258386   5.826   1.490  14.520  0.6231  0.1761 -0.1405
12324TIP3    H158387   5.743   1.485  14.568  0.4793  1.0818 -0.2697
12324TIP3    H258388   5.834   1.404  14.478 -0.5636  0.2691 -0.6129
12325TIP3   OH258389   1.056   5.693   2.123 -0.2231  0.4614 -0.0294
12325TIP3    H158390   1.111   5.746   2.066  0.0763 -0.1080 -0.2808
12325TIP3    H258391   1.097   5.606   2.121 -0.2453  0.4162  0.9893
12326TIP3   OH258392   0.836   2.823  12.714 -0.3907  0.2089  0.1863
12326TIP3    H158393   0.815   2.736  12.682  0.8999 -0.1700  0.3326
12326TIP3    H258394   0.898   2.808  12.786  2.2576  1.3111 -1.6912
12327TIP3   OH258395   0.039   6.065   0.367  0.5571 -0.3352  0.5232
12327TIP3    H158396  -0.049   6.098   0.384  0.0482  0.5937 -2.9587
12327TIP3    H258397   0.061   6.013   0.444 -2.6146  0.2020  1.9599
12328TIP3   OH258398   6.732   5.278  13.951  0.1428  0.0869  0.5732
12328TIP3    H158399   6.774   5.220  13.888  0.7839  0.1830  0.9057
12328TIP3    H258400   6.638   5.269  13.934  0.3374  1.2022 -1.3844
12329TIP3   OH258401   5.150   1.359  12.275 -0.0689  0.0508 -0.5751
12329TIP3    H158402   5.179   1.386  12.187  0.2433  0.2756 -0.4061
12329TIP3    H258403   5.210   1.405  12.334  1.0356 -1.6612 -0.3022
12330TIP3   OH258404   0.520   5.184  10.759 -0.8561  0.0327 -0.3402
12330TIP3    H158405   0.496   5.269  10.722 -0.5290 -0.2951 -1.3405
12330TIP3    H258406   0.596   5.156  10.707  0.3095  0.0416  1.2823
12331TIP3   OH258407   6.245   6.163   5.315 -0.3290 -0.3702 -0.3834
12331TIP3    H158408   6.269   6.074   5.340 -0.7599  0.2654  2.6510
12331TIP3    H258409   6.150   6.159   5.302 -1.1825  0.3601  4.1260
12332TIP3   OH258410   0.175   3.583   4.556  0.3404 -0.4282  0.3301
12332TIP3    H158411   0.195   3.510   4.614  0.4459 -1.9207 -1.4892
12332TIP3    H258412   0.249   3.586   4.495 -0.5108  0.0192 -0.7199
12333TIP3   OH258413   1.795   5.953   3.307  0.0145 -0.3439 -0.5168
12333TIP3    H158414   1.769   5.984   3.221  1.2553  0.9751 -0.4439
12333TIP3    H258415   1.733   5.995   3.367  0.7474  0.8318 -0.5557
12334TIP3   OH258416   3.540   0.140  10.626  0.0329 -0.1239  0.5492
12334TIP3    H158417   3.548   0.057  10.578 -0.3745 -0.1845  0.5898
12334TIP3    H258418   3.476   0.122  10.695  1.9875 -0.6174  2.3593
12335TIP3   OH258419   1.377   5.732   2.479  0.4711  0.2085  0.1490
12335TIP3    H158420   1.361   5.653   2.530 -0.7252  0.0894 -0.3706
12335TIP3    H258421   1.440   5.705   2.412 -0.6668 -0.6062 -0.6425
12336TIP3   OH258422   1.859   0.553   2.886 -0.2789  0.6605  0.0500
12336TIP3    H158423   1.793   0.597   2.834 -1.1420  0.1061  0.6440
12336TIP3    H258424   1.831   0.461   2.888  0.3924  0.4564  0.4747
12337TIP3   OH258425   0.439   4.073   2.817 -0.3319  0.3451 -0.3374
12337TIP3    H158426   0.531   4.048   2.816 -0.6304 -0.9138 -2.3656
12337TIP3    H258427   0.425   4.114   2.732 -1.6929  0.3426 -0.1317
12338TIP3   OH258428   5.153   1.202  14.324  0.5629  0.3448 -0.0123
12338TIP3    H158429   5.166   1.108  14.315 -1.8017  0.0469 -1.1607
12338TIP3    H258430   5.110   1.228  14.243 -1.4895  1.8476  1.4429
12339TIP3   OH258431   5.685   3.705   0.469 -0.3394  0.0381  0.0435
12339TIP3    H158432   5.669   3.648   0.545  1.2699  1.0977  1.2331
12339TIP3    H258433   5.777   3.688   0.446 -0.7555 -0.1422 -1.6037
12340TIP3   OH258434   2.561   0.681   3.171  0.2499  0.1230  0.4780
12340TIP3    H158435   2.559   0.725   3.256  1.5014  0.5665  0.2948
12340TIP3    H258436   2.631   0.725   3.123 -1.8832  1.4174 -1.6349
12341TIP3   OH258437   1.802   5.184   2.112 -0.5120  0.0342  0.4174
12341TIP3    H158438   1.889   5.164   2.077 -0.7474  0.9133 -0.7489
12341TIP3    H258439   1.763   5.098   2.129  0.6992 -0.3675  1.3131
12342TIP3   OH258440   1.289   6.426   4.517 -0.2186 -0.0050  0.3511
12342TIP3    H158441   1.219   6.362   4.532 -1.9387  1.3500 -1.3610
12342TIP3    H258442   1.243   6.506   4.489  2.0263  0.8866 -1.0760
12343TIP3   OH258443   6.423   3.074  15.687  0.3483 -0.0330  0.0711
12343TIP3    H158444   6.485   3.087  15.759  0.7106 -1.2208 -0.0017
12343TIP3    H258445   6.465   3.114  15.611  0.8519 -0.4885  0.1091
12344TIP3   OH258446   1.950   3.053  11.509 -0.0563 -0.7174 -0.1526
12344TIP3    H158447   1.927   3.007  11.428 -1.8387  0.5288 -0.4314
12344TIP3    H258448   1.921   3.143  11.494 -0.2189 -0.3988  1.7822
12345TIP3   OH258449   2.149   4.494   3.032 -0.0772 -0.1821 -0.5466
12345TIP3    H158450   2.150   4.525   2.942 -0.7254  1.3319 -0.0761
12345TIP3    H258451   2.241   4.485   3.056  0.1136  0.4047 -1.0489
12346TIP3   OH258452   5.391   3.831  12.369  0.4784 -0.3531 -0.5497
12346TIP3    H158453   5.456   3.783  12.419  0.8555 -0.3572 -1.0333
12346TIP3    H258454   5.319   3.769  12.358 -0.5576  0.3235  1.7994
12347TIP3   OH258455   2.575   6.750  13.810 -0.3635 -0.3564 -0.3674
12347TIP3    H158456   2.626   6.829  13.826 -0.0367 -0.7930  0.9111
12347TIP3    H258457   2.507   6.751  13.876 -0.3360 -1.1530 -0.3090
12348TIP3   OH258458   2.541   3.603  11.381  0.1044  0.5268 -0.6130
12348TIP3    H158459   2.577   3.688  11.353  0.4788  0.4985 -0.2269
12348TIP3    H258460   2.603   3.571  11.447 -0.1875  0.0840 -0.5479
12349TIP3   OH258461   5.007   1.185   1.735  0.1322  0.6628 -0.4880
12349TIP3    H158462   5.064   1.156   1.807  0.6632  2.1875 -0.2544
12349TIP3    H258463   4.933   1.124   1.738 -0.1838  1.0478  1.7945
12350TIP3   OH258464   1.093   4.718   5.891 -0.1368  0.2657  0.9545
12350TIP3    H158465   1.096   4.775   5.814  0.1180 -0.4787  0.3893
12350TIP3    H258466   1.164   4.655   5.876  0.0553  0.2413  1.9146
12351TIP3   OH258467   3.611   4.236  15.381 -0.4990  0.0624 -0.2591
12351TIP3    H158468   3.575   4.280  15.458 -1.6116 -0.2195 -0.5971
12351TIP3    H258469   3.534   4.205  15.333  0.2132 -0.7555 -0.9012
12352TIP3   OH258470   4.757   6.740   5.713  0.3540 -0.6488  0.0840
12352TIP3    H158471   4.731   6.692   5.791  0.4284 -0.1287  0.4345
12352TIP3    H258472   4.764   6.831   5.742 -2.5253  0.0911 -1.1811
12353TIP3   OH258473   3.421   4.976  12.993 -0.5216 -0.5067 -0.4826
12353TIP3    H158474   3.425   4.907  13.059  0.7882 -0.9822 -1.0246
12353TIP3    H258475   3.472   4.942  12.919 -0.8725  0.5406 -1.2363
12354TIP3   OH258476   4.104   0.925  13.094 -0.5062  0.1810 -0.0149
12354TIP3    H158477   4.141   0.863  13.031  0.0391  1.8441 -1.4029
12354TIP3    H258478   4.179   0.967  13.134 -0.8703 -0.1495  1.0512
12355TIP3   OH258479   5.572   2.818  11.016 -0.1808  0.6229  0.0940
12355TIP3    H158480   5.490   2.795  11.059  0.4879  0.8562  1.5365
12355TIP3    H258481   5.547   2.881  10.948 -1.2129  0.5120  0.3622
12356TIP3   OH258482   2.931   6.886   2.968 -0.1726 -0.4011  0.1714
12356TIP3    H158483   2.916   6.867   2.876  0.8895 -0.7015  0.0473
12356TIP3    H258484   3.009   6.942   2.968 -1.3324  1.3163  0.7518
12357TIP3   OH258485   0.823   1.422   1.199  0.1706 -0.2340  0.2732
12357TIP3    H158486   0.772   1.357   1.247  1.9609 -1.1928  0.9723
12357TIP3    H258487   0.775   1.434   1.117 -1.9848  0.0881  1.5003
12358TIP3   OH258488   6.311   3.459  14.007  0.1782  0.0442 -0.6812
12358TIP3    H158489   6.377   3.488  14.069 -0.3765 -1.5397  0.7169
12358TIP3    H258490   6.305   3.531  13.943  0.6877  1.7980  1.1335
12359TIP3   OH258491   4.280   4.813   0.356 -0.0077  0.1849  0.3446
12359TIP3    H158492   4.303   4.808   0.264  0.2090 -0.8231  0.4447
12359TIP3    H258493   4.263   4.906   0.372 -1.6577  0.1720 -1.0987
12360TIP3   OH258494   1.999   0.414  13.730  0.3261  0.2875  0.5260
12360TIP3    H158495   2.045   0.498  13.735  1.1046 -0.0330 -0.6372
12360TIP3    H258496   2.000   0.393  13.636 -0.0487 -0.9152  0.7812
12361TIP3   OH258497   6.204   6.534  10.822  0.6672 -0.2288 -0.4403
12361TIP3    H158498   6.109   6.521  10.825  0.3195  1.9381 -0.7648
12361TIP3    H258499   6.231   6.489  10.742 -0.2046 -0.1917 -0.7713
12362TIP3   OH258500   6.405   4.277   3.796 -0.3184  0.2295 -0.1165
12362TIP3    H158501   6.472   4.293   3.730  0.6840  1.3053  1.1089
12362TIP3    H258502   6.379   4.186   3.782 -0.8234  0.6623 -2.5553
12363TIP3   OH258503   5.820   5.757   9.971 -0.2362  0.2457  0.0579
12363TIP3    H158504   5.858   5.781  10.056  1.3599 -0.5499 -0.3826
12363TIP3    H258505   5.772   5.835   9.943  0.9325  1.2580  0.7651
12364TIP3   OH258506   3.202   5.725  14.501 -0.3253  0.0050 -0.1860
12364TIP3    H158507   3.232   5.645  14.543  1.9054  0.4461 -0.7792
12364TIP3    H258508   3.124   5.751  14.550  1.3142 -0.2603  2.7447
12365TIP3   OH258509   4.286   6.620   5.586  0.3032 -0.3087 -0.6587
12365TIP3    H158510   4.307   6.631   5.493  1.5537 -3.5160 -0.8804
12365TIP3    H258511   4.257   6.530   5.594  1.1608 -0.4301  2.2169
12366TIP3   OH258512   2.652   6.030   1.180 -0.2613  0.0268  0.1915
12366TIP3    H158513   2.685   6.059   1.095  2.0057  1.5131  1.4808
12366TIP3    H258514   2.727   5.989   1.223 -0.9713  0.4936  1.9771
12367TIP3   OH258515   2.549   3.416  11.187  0.6698 -0.2508  0.1643
12367TIP3    H158516   2.550   3.346  11.252  1.9362  0.6999  1.2343
12367TIP3    H258517   2.567   3.496  11.237 -0.9051  0.8898 -0.9851
12368TIP3   OH258518   4.738   1.195   2.722  0.2466 -0.3730 -0.1908
12368TIP3    H158519   4.784   1.127   2.673  2.1185  2.4582 -2.7390
12368TIP3    H258520   4.803   1.228   2.785  0.1836  0.5683 -0.5984
12369TIP3   OH258521   3.556   1.233  10.939  0.1894 -0.2727  0.3039
12369TIP3    H158522   3.524   1.267  10.855 -4.7807 -0.9458  1.6185
12369TIP3    H258523   3.580   1.143  10.920  1.8376  0.3610 -0.8458
12370TIP3   OH258524   6.690   1.413   5.519  0.5841 -0.4385 -0.4107
12370TIP3    H158525   6.629   1.436   5.590  0.8640 -3.0351  0.7708
12370TIP3    H258526   6.658   1.330   5.486  3.0405 -1.5326 -0.2384
12371TIP3   OH258527   3.886   3.314  11.600  0.4016 -0.0778 -1.0097
12371TIP3    H158528   3.867   3.345  11.511 -1.1247  1.3215 -0.2467
12371TIP3    H258529   3.950   3.376  11.634  0.9535 -0.5875 -1.1118
12372TIP3   OH258530   3.864   1.241   5.407  0.1472  0.3210 -0.2377
12372TIP3    H158531   3.773   1.270   5.416 -0.4402  0.0467 -3.9181
12372TIP3    H258532   3.857   1.148   5.389  1.0019  0.5474 -1.8820
12373TIP3   OH258533   4.538   6.029   4.435 -0.2634 -0.5844  0.0152
12373TIP3    H158534   4.626   6.039   4.471 -1.5222  1.7656  2.9554
12373TIP3    H258535   4.543   6.064   4.346  1.9635 -1.6476 -0.3313
12374TIP3   OH258536   1.477   3.354   0.705 -0.7153 -0.0501 -0.0825
12374TIP3    H158537   1.493   3.281   0.765  0.2000 -0.1821 -0.4864
12374TIP3    H258538   1.426   3.316   0.634  0.2103 -0.4231 -0.5553
12375TIP3   OH258539   5.337   3.807  13.468 -0.1666 -0.4169 -0.2763
12375TIP3    H158540   5.294   3.849  13.543  0.1018 -0.3087 -0.1814
12375TIP3    H258541   5.269   3.752  13.429 -0.8331  0.8913 -1.0146
12376TIP3   OH258542   2.302   2.824   2.615  0.2340 -0.2611 -0.0111
12376TIP3    H158543   2.228   2.838   2.556  0.3896 -1.1187 -0.4170
12376TIP3    H258544   2.263   2.822   2.702 -0.0422  0.6171 -0.1003
12377TIP3   OH258545   6.048   1.830   5.426 -0.1562 -0.2675  0.1208
12377TIP3    H158546   5.979   1.808   5.488 -0.2923  0.1476  0.1255
12377TIP3    H258547   6.021   1.789   5.344 -0.8604  0.6066 -0.1009
12378TIP3   OH258548   4.033   5.362  11.544 -0.2829 -0.4680 -0.2059
12378TIP3    H158549   4.055   5.396  11.458  0.2563 -2.6420 -0.9896
12378TIP3    H258550   4.103   5.394  11.601  0.4777 -0.6751 -1.0030
12379TIP3   OH258551   0.176   2.020  10.764 -0.4917  0.0268 -0.0029
12379TIP3    H158552   0.120   2.091  10.795 -1.7570 -0.5326 -0.9102
12379TIP3    H258553   0.122   1.972  10.701 -0.4918 -2.9776  2.0384
12380TIP3   OH258554   2.026   6.643  15.588  0.1306  0.5134 -0.6497
12380TIP3    H158555   1.970   6.591  15.531 -1.2596 -2.5594  3.0585
12380TIP3    H258556   1.976   6.723  15.604 -0.4845  0.3965 -1.8724
12381TIP3   OH258557   5.966   3.482  12.476  0.3872 -0.3275  1.2460
12381TIP3    H158558   6.036   3.516  12.532  0.1162  0.3574  1.1825
12381TIP3    H258559   5.890   3.474  12.534  0.3369 -0.4317  1.1667
12382TIP3   OH258560   6.789   6.265  11.917 -0.6903 -0.2849 -0.3066
12382TIP3    H158561   6.812   6.202  11.848 -0.7777  0.1333 -0.7204
12382TIP3    H258562   6.696   6.283  11.903 -0.7622 -0.3744  0.0645
12383TIP3   OH258563   1.694   3.922   4.928 -0.1533  0.0686  0.4359
12383TIP3    H158564   1.732   3.948   4.844 -1.3182  0.0775 -0.1083
12383TIP3    H258565   1.729   3.985   4.990  0.1407  0.5229 -0.1754
12384TIP3   OH258566   2.030   1.080  12.735  0.4802  0.2960  0.0321
12384TIP3    H158567   1.985   1.064  12.818  0.3791  0.8257  0.0855
12384TIP3    H258568   2.121   1.096  12.761  0.6007 -0.2751 -0.0286
12385TIP3   OH258569   6.530   5.898  12.146 -0.1303 -0.0180 -0.2911
12385TIP3    H158570   6.443   5.893  12.107  0.1053  0.3029 -0.8743
12385TIP3    H258571   6.564   5.809  12.142 -0.5376 -0.2024  0.2058
12386TIP3   OH258572   0.887   2.280   5.137 -0.2281 -0.2492 -0.5631
12386TIP3    H158573   0.908   2.196   5.178 -0.6617 -0.0532  0.0712
12386TIP3    H258574   0.793   2.290   5.151 -0.5813 -0.6176 -2.4382
12387TIP3   OH258575   4.301   0.169  10.588  0.4031  0.1807 -0.3017
12387TIP3    H158576   4.373   0.231  10.593 -0.1829  0.8371  0.2370
12387TIP3    H258577   4.320   0.104  10.655  0.6728  0.1471 -0.4087
12388TIP3   OH258578   4.951   2.798  13.136  0.1768 -0.0742 -0.1140
12388TIP3    H158579   4.994   2.859  13.075  0.6247  0.3774  0.6269
12388TIP3    H258580   4.911   2.855  13.202  2.3126 -0.5500  1.7411
12389TIP3   OH258581   1.312   0.575  12.074 -0.1591  0.2992  0.3262
12389TIP3    H158582   1.241   0.638  12.066  0.0316  0.4137 -0.5511
12389TIP3    H258583   1.268   0.491  12.086 -0.4862  0.2358 -1.1035
12390TIP3   OH258584   4.042   0.999   1.960  0.0976  0.3346 -0.1773
12390TIP3    H158585   4.122   0.963   1.997 -0.3875  0.4598  1.0299
12390TIP3    H258586   4.043   1.092   1.982 -1.7129 -0.1595  2.4440
12391TIP3   OH258587   1.350   3.271   3.685 -0.6474  0.0847  0.5616
12391TIP3    H158588   1.340   3.321   3.603  1.4184 -0.0913  0.1679
12391TIP3    H258589   1.377   3.184   3.656  0.3031  0.0780  1.4437
12392TIP3   OH258590   1.551   2.488  15.846  0.3971  0.0773  0.0341
12392TIP3    H158591   1.635   2.445  15.863  0.9091  0.5102 -1.2969
12392TIP3    H258592   1.547   2.497  15.751 -1.5611 -0.7225 -0.0242
12393TIP3   OH258593   5.413   3.536   1.914  0.1523 -0.2914  0.0028
12393TIP3    H158594   5.439   3.513   1.825 -2.4839  0.7965 -1.1357
12393TIP3    H258595   5.405   3.452   1.959 -0.7528 -1.0514 -1.5016
12394TIP3   OH258596   3.364   5.719  11.884  0.1266  0.2030 -0.4039
12394TIP3    H158597   3.332   5.768  11.808  0.3103  0.0884 -0.5550
12394TIP3    H258598   3.449   5.757  11.903 -0.8644  1.8063  1.1722
12395TIP3   OH258599   5.003   2.019   1.468  0.1772 -0.0201  0.8475
12395TIP3    H158600   4.935   2.052   1.409 -0.4198 -0.7073  1.1345
12395TIP3    H258601   5.075   2.081   1.458  0.3186 -0.4221 -1.0117
12396TIP3   OH258602   4.030   3.290  10.718  0.2261  0.3896  0.3324
12396TIP3    H158603   3.998   3.276  10.629  2.8286  1.1521 -0.8220
12396TIP3    H258604   4.007   3.381  10.737  1.4746  0.9031 -0.4521
12397TIP3   OH258605   5.350   0.096   0.230 -0.6732  0.2597  0.0243
12397TIP3    H158606   5.329   0.069   0.141 -0.6624 -0.3646  0.2062
12397TIP3    H258607   5.402   0.025   0.266 -1.9983 -0.2495  1.0493
12398TIP3   OH258608   0.171   2.928  14.464 -0.1857 -0.4591  0.1829
12398TIP3    H158609   0.219   2.933  14.547 -0.0086 -2.0957  0.2081
12398TIP3    H258610   0.115   2.852  14.473 -0.5709 -0.3348 -0.9998
12399TIP3   OH258611   0.712   6.757  15.061 -0.5857  0.4931  0.2247
12399TIP3    H158612   0.713   6.691  15.130 -1.4424 -1.0840 -1.1847
12399TIP3    H258613   0.658   6.828  15.096  0.3721  0.4843  1.7885
12400TIP3   OH258614   3.604   3.349  12.120  0.2043  0.4025  0.7538
12400TIP3    H158615   3.658   3.418  12.159 -0.3962  0.8636  0.7943
12400TIP3    H258616   3.521   3.393  12.098 -0.7432 -0.6217  2.0938
12401TIP3   OH258617   5.754   4.286  14.160 -0.1994 -0.3551  0.3973
12401TIP3    H158618   5.824   4.240  14.207 -0.6856 -1.2225  0.2925
12401TIP3    H258619   5.673   4.243  14.189 -0.5177 -0.8360 -1.1451
12402TIP3   OH258620   5.808   6.274  11.084  0.5914  0.3924  0.4157
12402TIP3    H158621   5.822   6.179  11.087 -0.5769  0.1285 -1.1615
12402TIP3    H258622   5.861   6.309  11.155  2.7601 -1.2372 -0.3112
12403TIP3   OH258623   5.100   2.568  12.051 -0.1557  0.2811 -0.0297
12403TIP3    H158624   5.008   2.546  12.063 -0.3850  1.4505  0.5034
12403TIP3    H258625   5.101   2.663  12.042  0.8884  0.1827 -1.2243
12404TIP3   OH258626   3.087   5.827  11.979  0.0134  0.1429 -0.3152
12404TIP3    H158627   3.116   5.750  11.932 -2.1537 -0.2651 -1.1004
12404TIP3    H258628   3.121   5.901  11.928  1.5985 -0.2535  0.1186
12405TIP3   OH258629   2.371   1.110   3.433  0.2360 -0.7805 -0.1061
12405TIP3    H158630   2.385   1.018   3.411 -2.3099 -1.1424 -0.6213
12405TIP3    H258631   2.333   1.109   3.521  0.2010 -0.2412 -0.1089
12406TIP3   OH258632   6.182   1.938  13.000  0.7672  0.1401  0.6268
12406TIP3    H158633   6.151   1.982  13.079  0.3460  0.6908  0.1656
12406TIP3    H258634   6.275   1.959  12.994  0.6782  0.5515  0.6833
12407TIP3   OH258635   4.161   0.508  12.980 -0.0332 -0.0611 -0.1258
12407TIP3    H158636   4.105   0.481  13.053  0.7934  3.1055  1.8812
12407TIP3    H258637   4.250   0.497  13.013  0.3473  1.9300 -0.3554
12408TIP3   OH258638   2.337   0.910   5.243 -0.3129  0.1711 -0.2329
12408TIP3    H158639   2.357   0.998   5.276  0.0841 -0.0811  0.2159
12408TIP3    H258640   2.390   0.852   5.298 -0.2366 -0.3134 -0.8158
12409TIP3   OH258641   5.904   5.851  16.214  0.5717  0.3075 -0.2994
12409TIP3    H158642   5.977   5.913  16.209  0.6438  0.1328 -1.9985
12409TIP3    H258643   5.946   5.765  16.215  0.4172  0.1840 -1.9037
12410TIP3   OH258644   2.505   2.051   4.996  0.1319 -0.9512  0.0008
12410TIP3    H158645   2.446   1.975   5.000  0.1816 -1.0340 -0.6420
12410TIP3    H258646   2.489   2.088   4.909 -0.5540  0.3228  0.6397
12411TIP3   OH258647   4.781   1.942   2.585 -0.3920 -0.7103  0.1177
12411TIP3    H158648   4.707   1.886   2.559 -0.4731 -0.3995 -0.3365
12411TIP3    H258649   4.749   2.031   2.573 -0.5704 -0.5284  1.6810
12412TIP3   OH258650   4.679   2.534  13.977  0.5895  0.5267 -0.4844
12412TIP3    H158651   4.748   2.486  13.931  1.0157 -0.5033  1.1516
12412TIP3    H258652   4.726   2.596  14.032  0.2696 -0.4914  0.9876
12413TIP3   OH258653   0.844   1.321  10.775 -0.1973  0.7952  0.8020
12413TIP3    H158654   0.874   1.322  10.684 -1.2973  0.0999  0.4051
12413TIP3    H258655   0.773   1.257  10.776  2.8425 -2.9545  3.1470
12414TIP3   OH258656   6.349   5.953  11.681 -0.8333 -0.0784 -0.2049
12414TIP3    H158657   6.330   6.047  11.684 -0.2628  0.0247  1.2789
12414TIP3    H258658   6.438   5.947  11.647 -0.5733 -0.0097  0.4419
12415TIP3   OH258659   1.821   5.724  15.295  0.5711 -0.3856 -0.0622
12415TIP3    H158660   1.744   5.743  15.350 -1.3979 -2.0731 -2.0438
12415TIP3    H258661   1.876   5.669  15.350 -0.8947 -1.2637  0.6019
12416TIP3   OH258662   0.609   3.580   3.680 -0.0005  0.2355 -0.1355
12416TIP3    H158663   0.606   3.635   3.759 -1.7720 -0.0458  0.0342
12416TIP3    H258664   0.524   3.536   3.678  0.7817 -1.3226 -1.1221
12417TIP3   OH258665   2.470   6.769   4.618  0.2569 -0.5306  0.2435
12417TIP3    H158666   2.516   6.714   4.681 -0.3573  0.0328  1.2181
12417TIP3    H258667   2.530   6.776   4.543  0.8075 -1.5874  0.5712
12418TIP3   OH258668   0.044   1.795  16.687  0.3645  0.4036 -0.0530
12418TIP3    H158669   0.007   1.776  16.773  3.1746  1.4794  1.4953
12418TIP3    H258670   0.001   1.877  16.660  2.4148  2.4652  2.3924
12419TIP3   OH258671   5.594   1.649  12.343 -0.5964  0.5568 -0.0725
12419TIP3    H158672   5.612   1.555  12.342 -1.2702  0.4246 -0.4859
12419TIP3    H258673   5.680   1.690  12.355 -0.4258 -0.1406  1.2561
12420TIP3   OH258674   0.121   4.062  12.354 -0.5354  0.3868 -0.2367
12420TIP3    H158675   0.185   4.087  12.421  0.7998  0.4632 -1.4748
12420TIP3    H258676   0.122   3.966  12.355 -2.6325  0.3226  1.7375
12421TIP3   OH258677   6.298   1.733   0.953 -0.5642 -0.5041 -0.9170
12421TIP3    H158678   6.262   1.645   0.942 -0.6295 -0.3529 -1.9887
12421TIP3    H258679   6.289   1.750   1.047  0.8570 -2.2254 -0.4154
12422TIP3   OH258680   3.144   4.135  14.732  0.9254 -0.2528 -0.1078
12422TIP3    H158681   3.187   4.168  14.653 -0.1687  1.7723  0.0804
12422TIP3    H258682   3.091   4.061  14.701  1.2764 -0.1076 -1.0784
12423TIP3   OH258683   1.500   3.492   2.714  0.3314 -0.1108 -0.9003
12423TIP3    H158684   1.472   3.584   2.719  0.4371 -0.1412  0.7292
12423TIP3    H258685   1.435   3.450   2.658 -0.0149  0.8559 -1.2400
12424TIP3   OH258686   6.066   4.920  15.373 -0.4534 -0.1470  0.3170
12424TIP3    H158687   6.000   4.960  15.317 -0.9176  0.3158  1.1791
12424TIP3    H258688   6.041   4.828  15.378 -0.4805 -0.1662 -0.1232
12425TIP3   OH258689   1.881   3.474  16.433  0.1175  0.2320 -0.5790
12425TIP3    H158690   1.872   3.565  16.460 -0.2593  0.0170  0.0426
12425TIP3    H258691   1.797   3.453  16.390  0.5476  0.4428 -1.5428
12426TIP3   OH258692   4.627   1.063  10.921 -0.7351 -0.2153 -0.2169
12426TIP3    H158693   4.612   1.041  10.829 -1.6542 -0.9352  0.0915
12426TIP3    H258694   4.613   1.158  10.925  0.5642  0.0338 -1.0470
12427TIP3   OH258695   0.879   4.768  15.033 -0.3643 -0.3241  0.0534
12427TIP3    H158696   0.950   4.751  14.971 -0.5527  0.0803 -0.2724
12427TIP3    H258697   0.810   4.707  15.007  0.2268 -1.4532  1.0045
12428TIP3   OH258698   4.325   1.905  15.248 -0.8176 -0.5538  0.1349
12428TIP3    H158699   4.368   1.991  15.249  0.5160 -1.2095  0.6963
12428TIP3    H258700   4.395   1.843  15.267 -1.6085 -1.8526 -1.0204
12429TIP3   OH258701   1.863   6.283  13.789  0.0546  0.3184  0.1756
12429TIP3    H158702   1.853   6.362  13.737  0.4878  1.6029  1.9588
12429TIP3    H258703   1.921   6.227  13.736  0.6188  1.6275 -0.6370
12430TIP3   OH258704   1.309   2.264   2.451  0.5552  0.2427  0.2403
12430TIP3    H158705   1.360   2.271   2.532 -0.3861 -1.4815  1.0349
12430TIP3    H258706   1.219   2.251   2.479  0.2613 -0.8261 -1.0565
12431TIP3   OH258707   5.929   3.907  14.564  0.0159 -0.4921  0.5883
12431TIP3    H158708   5.993   3.836  14.558 -0.2913 -0.6694 -0.8674
12431TIP3    H258709   5.854   3.876  14.513 -0.3212  0.6625  0.3599
12432TIP3   OH258710   0.260   6.224  12.972  0.2105  0.1999 -0.6352
12432TIP3    H158711   0.261   6.192  13.062 -2.3690 -0.5348 -0.7842
12432TIP3    H258712   0.169   6.249  12.957  0.9050  1.8574 -2.5359
12433TIP3   OH258713   0.101   5.937   1.900  0.0887 -0.4169 -0.4048
12433TIP3    H158714   0.045   5.915   1.974 -0.1537  1.1661 -0.1044
12433TIP3    H258715   0.125   5.852   1.863 -0.3798 -1.2091  1.0338
12434TIP3   OH258716   5.710   4.698   5.222  0.1099 -0.0692  0.4589
12434TIP3    H158717   5.691   4.626   5.161 -1.3026  1.4032 -0.9163
12434TIP3    H258718   5.659   4.771   5.190 -0.2185  0.9703  3.1137
12435TIP3   OH258719   6.048   0.149   1.314  0.3490 -0.3891  0.2158
12435TIP3    H158720   6.107   0.132   1.387  2.0100 -1.0134 -1.2052
12435TIP3    H258721   6.105   0.156   1.238 -1.4994 -3.3758 -1.6579
12436TIP3   OH258722   5.152   0.757   3.647  0.3464  0.6594  0.0296
12436TIP3    H158723   5.229   0.758   3.591  0.9160  2.4264  0.7861
12436TIP3    H258724   5.159   0.675   3.697 -0.7287 -1.5304 -3.1024
12437TIP3   OH258725   1.306   0.316   4.006 -0.3856 -0.0099  0.6662
12437TIP3    H158726   1.287   0.391   3.949  2.0606 -0.3928 -0.7514
12437TIP3    H258727   1.276   0.240   3.957 -0.5225 -0.1716  0.9967
12438TIP3   OH258728   5.127   3.134  15.468 -0.3310  0.0445 -0.2631
12438TIP3    H158729   5.134   3.191  15.544 -1.2133  0.1036 -0.2115
12438TIP3    H258730   5.054   3.075  15.488  0.0917 -0.6255 -0.6265
12439TIP3   OH258731   2.821   4.378   2.001 -0.4270  0.2817 -0.5410
12439TIP3    H158732   2.762   4.448   2.029 -0.1562  2.0804 -3.8772
12439TIP3    H258733   2.765   4.301   1.992 -1.9321  1.4575 -1.7735
12440TIP3   OH258734   5.046   5.242  13.465  0.3770 -0.9214  0.2928
12440TIP3    H158735   4.986   5.226  13.393  0.7403 -1.3810  0.0902
12440TIP3    H258736   5.064   5.336  13.460 -0.7383 -0.6706  0.6884
12441TIP3   OH258737   6.789   2.175  13.177  0.3228 -0.4807  0.0980
12441TIP3    H158738   6.780   2.087  13.140  1.0002 -0.2192 -0.7128
12441TIP3    H258739   6.708   2.219  13.152  1.1184 -0.0351 -1.8925
12442TIP3   OH258740   0.533   6.840  12.193 -0.4300 -0.0519  0.1740
12442TIP3    H158741   0.513   6.918  12.139 -0.4204 -0.5031 -0.4974
12442TIP3    H258742   0.615   6.862  12.236  0.2521 -0.1723 -1.0040
12443TIP3   OH258743   3.364   0.870  13.988 -0.5298  0.1840 -0.1802
12443TIP3    H158744   3.348   0.944  14.046 -2.0833 -0.0109 -0.3217
12443TIP3    H258745   3.432   0.819  14.032 -0.9920  0.5510  0.9892
12444TIP3   OH258746   0.931   2.469   6.198 -0.4663  0.5563  0.1515
12444TIP3    H158747   0.838   2.490   6.191 -0.9115 -1.2150  0.1975
12444TIP3    H258748   0.949   2.413   6.122  0.6419  1.1096 -0.0213
12445TIP3   OH258749   4.884   5.909  13.153 -0.5927 -0.0912 -0.3289
12445TIP3    H158750   4.913   5.845  13.218 -2.0649 -0.5161 -0.0534
12445TIP3    H258751   4.919   5.993  13.184 -0.5360 -0.4177  0.5214
12446TIP3   OH258752   4.685   6.364   2.831  0.2207 -0.1335 -0.6169
12446TIP3    H158753   4.710   6.271   2.838 -1.0546 -0.8356 -3.6118
12446TIP3    H258754   4.593   6.362   2.804  0.7319  1.8692 -2.8519
12447TIP3   OH258755   1.585   1.337   2.517 -0.4410  0.0251 -0.0111
12447TIP3    H158756   1.601   1.308   2.428  1.3443 -0.0151  0.2841
12447TIP3    H258757   1.612   1.263   2.572 -0.7873  0.3289  0.5855
12448TIP3   OH258758   3.719   4.350  13.626 -0.1157 -1.2293  0.4060
12448TIP3    H158759   3.680   4.262  13.631 -1.2854 -0.9657 -2.4020
12448TIP3    H258760   3.755   4.355  13.537 -1.0045  1.4817  0.1120
12449TIP3   OH258761   4.171   1.544  11.779 -0.0378 -0.2917 -0.1113
12449TIP3    H158762   4.177   1.450  11.762  0.6621 -0.3648  0.5174
12449TIP3    H258763   4.099   1.573  11.724 -0.5576 -1.2765  0.0268
12450TIP3   OH258764   0.083   2.295  13.741 -0.1360 -0.1242 -0.0379
12450TIP3    H158765   0.115   2.263  13.656 -0.0122 -0.3529  0.0928
12450TIP3    H258766  -0.004   2.329  13.722 -1.9885 -4.0245  0.4765
12451TIP3   OH258767   2.156   1.162  14.289  0.5610 -0.2640  0.0715
12451TIP3    H158768   2.206   1.146  14.370 -1.2766 -0.3962  1.2224
12451TIP3    H258769   2.065   1.154  14.315 -0.1805  2.0217 -1.5123
12452TIP3   OH258770   2.484   4.685   3.137  0.2829  0.1500 -0.0693
12452TIP3    H158771   2.487   4.593   3.109  1.4333 -0.0134  0.5515
12452TIP3    H258772   2.406   4.690   3.193 -0.2985 -0.2205 -0.8109
12453TIP3   OH258773   3.393   6.309   0.158  0.1454 -0.0576 -0.0932
12453TIP3    H158774   3.376   6.364   0.235  0.6091  0.7371 -0.5495
12453TIP3    H258775   3.442   6.365   0.099 -0.8216 -0.4197 -1.2803
12454TIP3   OH258776   6.676   1.174  16.689  0.0518 -0.5530 -0.0325
12454TIP3    H158777   6.602   1.216  16.644  1.1526  0.4293 -0.9724
12454TIP3    H258778   6.666   1.199  16.781 -0.7863 -0.4497 -0.1439
12455TIP3   OH258779   3.212   1.331   3.169 -0.0733 -0.1931 -0.1338
12455TIP3    H158780   3.170   1.300   3.250  0.4030 -0.9645 -0.1750
12455TIP3    H258781   3.253   1.414   3.194 -1.0228  0.2340  0.0779
12456TIP3   OH258782   6.195   1.540   3.005 -0.0494 -0.0143  0.4688
12456TIP3    H158783   6.102   1.538   2.983 -0.2993  0.5045  1.4439
12456TIP3    H258784   6.240   1.534   2.920 -0.9619 -0.2889 -0.0077
12457TIP3   OH258785   0.436   3.664   5.220  0.0098  0.2399  0.4763
12457TIP3    H158786   0.489   3.692   5.295 -1.6016  2.2275  0.9457
12457TIP3    H258787   0.348   3.694   5.239 -0.3778  1.3345 -2.4479
12458TIP3   OH258788   4.505   4.878   3.441 -0.5994 -0.7446  0.0335
12458TIP3    H158789   4.543   4.809   3.494 -0.2238  0.9130  2.0354
12458TIP3    H258790   4.580   4.926   3.405 -0.8300 -0.0577  0.4610
12459TIP3   OH258791   2.794   1.887   3.876  0.1600 -0.2426  0.0597
12459TIP3    H158792   2.860   1.890   3.806 -0.2576  0.9541 -0.3140
12459TIP3    H258793   2.710   1.898   3.830 -0.2129 -0.6253  0.6365
12460TIP3   OH258794   5.661   5.995  15.287 -0.0699  0.2975 -0.0403
12460TIP3    H158795   5.608   6.064  15.327 -0.3092  0.1303 -0.0648
12460TIP3    H258796   5.741   6.040  15.258 -0.8102  0.8652 -1.3265
12461TIP3   OH258797   2.261   4.147  15.550 -0.4517  0.2295  0.2088
12461TIP3    H158798   2.300   4.202  15.481 -0.3116 -1.4699 -1.1302
12461TIP3    H258799   2.167   4.161  15.541 -0.4213  0.2039 -0.1694
12462TIP3   OH258800   6.229   0.743   0.055 -0.6659 -0.1019  0.0039
12462TIP3    H158801   6.228   0.818  -0.003  1.0189  1.2172  1.5709
12462TIP3    H258802   6.144   0.746   0.099 -1.1453  0.0514 -0.9087
12463TIP3   OH258803   0.737   6.311  11.469 -0.0697  0.2518  0.3999
12463TIP3    H158804   0.723   6.226  11.511 -0.6872  0.3016  0.3056
12463TIP3    H258805   0.681   6.372  11.517  1.0707  0.8074  1.0676
12464TIP3   OH258806   2.701   3.597   1.042 -0.3020  0.0905 -0.4134
12464TIP3    H158807   2.696   3.574   1.135 -1.2405 -0.3964 -0.5714
12464TIP3    H258808   2.712   3.692   1.041  4.1137 -0.1819  0.2699
12465TIP3   OH258809   2.423   3.250  14.777 -0.0683 -0.8049  0.5481
12465TIP3    H158810   2.421   3.343  14.800 -1.8909 -0.3414 -1.2289
12465TIP3    H258811   2.341   3.215  14.811 -0.3982 -1.2610 -0.6989
12466TIP3   OH258812   5.234   5.766  12.358  0.7502  1.0368  0.5383
12466TIP3    H158813   5.157   5.816  12.382  0.4848  0.1517  1.5966
12466TIP3    H258814   5.227   5.755  12.263 -0.6528  0.6035  0.6687
12467TIP3   OH258815   2.692   2.252   3.820 -0.0518 -0.2509 -0.2795
12467TIP3    H158816   2.762   2.311   3.848 -0.7016  0.6766 -0.5583
12467TIP3    H258817   2.646   2.229   3.901  0.2656 -0.4680 -0.1575
12468TIP3   OH258818   3.646   6.169   1.105 -0.0451  0.5706 -0.4140
12468TIP3    H158819   3.558   6.180   1.069 -0.5477 -1.0417  0.2242
12468TIP3    H258820   3.688   6.254   1.093 -0.8218  0.6596 -3.0334
12469TIP3   OH258821   5.963   6.747   4.429  0.4067 -0.0595  0.6811
12469TIP3    H158822   5.895   6.765   4.365 -1.0684 -2.3779  1.4950
12469TIP3    H258823   6.015   6.676   4.391  0.8388  0.0081  1.1254
12470TIP3   OH258824   1.373   0.707   3.497  0.2205  0.0231 -0.2368
12470TIP3    H158825   1.294   0.755   3.520 -0.1862 -0.2159 -1.0935
12470TIP3    H258826   1.410   0.680   3.581 -0.6428  0.0733  0.1687
12471TIP3   OH258827   3.132   1.006  14.199  0.0419  0.0954 -0.5020
12471TIP3    H158828   3.098   1.095  14.208 -1.6050 -0.4642 -0.8646
12471TIP3    H258829   3.120   0.985  14.107  2.1801  0.1487 -0.8361
12472TIP3   OH258830   4.816   4.483  16.012  0.0771 -0.1305 -0.4052
12472TIP3    H158831   4.798   4.552  15.947  0.2021  0.5864  0.2993
12472TIP3    H258832   4.878   4.524  16.073  1.6226 -1.4770 -0.9967
12473TIP3   OH258833   5.490   5.692  14.727  0.3394  0.2282  0.4896
12473TIP3    H158834   5.405   5.692  14.772  0.0281 -0.0834 -0.0804
12473TIP3    H258835   5.528   5.607  14.748 -0.9700 -1.0752 -1.9102
12474TIP3   OH258836   2.032   1.867   0.899  0.0511  0.3273  0.1819
12474TIP3    H158837   2.114   1.819   0.890  0.5590  1.0679  0.7470
12474TIP3    H258838   1.964   1.802   0.883  0.7476 -0.2399 -0.5473
12475TIP3   OH258839   3.103   2.456   2.658 -0.0391  0.7520 -0.3465
12475TIP3    H158840   3.194   2.443   2.683 -0.3730  0.4886  0.7786
12475TIP3    H258841   3.099   2.430   2.566  1.0816  1.0795 -0.5006
12476TIP3   OH258842   2.814   3.515  13.269 -0.2827  0.4707 -0.1795
12476TIP3    H158843   2.788   3.428  13.300  2.1584  0.3525  1.9241
12476TIP3    H258844   2.732   3.556  13.241 -1.5152 -2.4487 -1.1972
12477TIP3   OH258845   6.024   4.636   0.161  0.0563  0.7407  0.2819
12477TIP3    H158846   6.108   4.670   0.191  0.3925 -0.9599  1.4027
12477TIP3    H258847   6.043   4.594   0.078  0.1284  1.0901  0.1186
12478TIP3   OH258848   1.374   2.831  12.209 -0.4122 -0.2563  0.3627
12478TIP3    H158849   1.331   2.811  12.126  2.1224  0.7775 -1.3259
12478TIP3    H258850   1.423   2.752  12.230 -1.4460 -0.6962  1.1811
12479TIP3   OH258851   0.140   2.934   5.507 -0.1014  0.4175  0.6765
12479TIP3    H158852   0.161   3.026   5.526 -1.0665  0.8770 -0.3140
12479TIP3    H258853   0.049   2.937   5.477  0.8678 -0.3432 -2.7618
12480TIP3   OH258854   5.404   5.893  12.519  0.2048  0.8341  0.1466
12480TIP3    H158855   5.363   5.872  12.435 -0.2042 -1.6349  0.8893
12480TIP3    H258856   5.447   5.977  12.504  0.2182  0.4328 -2.5602
12481TIP3   OH258857   3.116   1.691  11.832  0.4567  0.1827  0.2490
12481TIP3    H158858   3.124   1.738  11.915  0.8209 -0.6518  0.6998
12481TIP3    H258859   3.116   1.760  11.766  1.5911  0.8044  0.8511
12482TIP3   OH258860   0.458   4.208  11.435  0.4336  0.8327  0.0667
12482TIP3    H158861   0.525   4.206  11.367  3.6342 -0.1284  2.9866
12482TIP3    H258862   0.436   4.300  11.445  1.2872  1.1749 -1.0045
12483TIP3   OH258863   4.787   4.462   0.957  0.6614  0.1715 -0.1314
12483TIP3    H158864   4.820   4.550   0.974 -0.5406  0.5941  0.1204
12483TIP3    H258865   4.817   4.410   1.031  0.8308  0.5185  0.0480
12484TIP3   OH258866   2.045   0.701  12.789  0.3333  0.2294  0.3937
12484TIP3    H158867   1.990   0.627  12.815  0.5688 -0.2400 -0.4160
12484TIP3    H258868   2.086   0.730  12.870 -1.6407  1.0410  1.1565
12485TIP3   OH258869   5.530   6.377   3.303  0.5034 -0.1649 -0.5145
12485TIP3    H158870   5.493   6.430   3.233  1.3266 -1.9142 -2.3821
12485TIP3    H258871   5.471   6.301   3.309  0.2784  0.0891  0.9290
12486TIP3   OH258872   1.522   0.924  14.664 -0.1335  0.1208 -0.3250
12486TIP3    H158873   1.527   0.973  14.746  0.2409 -0.7670  0.1975
12486TIP3    H258874   1.592   0.859  14.671 -0.6374 -0.5063 -0.9940
12487TIP3   OH258875   2.982   1.137  11.405  0.1983 -0.6152 -0.3707
12487TIP3    H158876   3.077   1.127  11.397  0.3373  0.5679 -0.4008
12487TIP3    H258877   2.946   1.056  11.369  1.1263 -0.1758 -2.4290
12488TIP3   OH258878   4.176   1.642   1.836 -0.3293 -0.0532  0.1869
12488TIP3    H158879   4.081   1.651   1.839 -0.2621  0.7265  0.1302
12488TIP3    H258880   4.207   1.722   1.795  0.2664 -0.9090 -1.1017
12489TIP3   OH258881   5.224   2.843   4.919 -0.3031  0.3271  0.0771
12489TIP3    H158882   5.303   2.857   4.972 -0.3858 -0.3660  0.3913
12489TIP3    H258883   5.253   2.785   4.849 -0.5198  0.1261  0.1539
12490TIP3   OH258884   5.237   3.097  14.132  0.3006  0.2521 -0.4129
12490TIP3    H158885   5.192   3.160  14.189  1.7094  1.2014 -0.3036
12490TIP3    H258886   5.167   3.060  14.078 -0.8125  0.6349  0.7094
12491TIP3   OH258887   0.669   4.643  13.226  0.4433  0.1292  0.0220
12491TIP3    H158888   0.652   4.703  13.300  0.0918 -1.1176  0.9837
12491TIP3    H258889   0.760   4.616  13.238  0.3852 -0.0766  0.0046
12492TIP3   OH258890   6.179   0.674  10.467 -0.2367 -0.0783  0.5637
12492TIP3    H158891   6.207   0.754  10.422 -0.7311 -0.2442 -0.0534
12492TIP3    H258892   6.100   0.647  10.420  1.2119 -2.2453 -0.8131
12493TIP3   OH258893   4.738   4.995  13.570  0.2913  0.0580 -0.0283
12493TIP3    H158894   4.754   5.078  13.615 -1.2811  0.4249 -0.0876
12493TIP3    H258895   4.710   5.021  13.482 -0.7622 -0.4895  0.1293
12494TIP3   OH258896   2.780   2.829  10.360  0.6408  0.2352  0.0490
12494TIP3    H158897   2.702   2.796  10.317  0.1508  1.1932  0.1777
12494TIP3    H258898   2.843   2.757  10.354 -1.1734 -1.7193  2.5523
12495TIP3   OH258899   1.162   4.411   4.167  0.4642 -0.3299  0.4515
12495TIP3    H158900   1.205   4.477   4.113 -0.2908  0.9161  1.2945
12495TIP3    H258901   1.160   4.332   4.113  2.0245  0.1244 -0.3249
12496TIP3   OH258902   5.111   3.595   4.547 -0.2857 -0.5564  0.3830
12496TIP3    H158903   5.038   3.634   4.596 -1.4809  0.1824 -1.8269
12496TIP3    H258904   5.098   3.500   4.555 -2.1235 -0.4558 -0.7229
12497TIP3   OH258905   0.658   0.549   4.160  0.1801 -0.1821 -0.7766
12497TIP3    H158906   0.618   0.543   4.073  1.5633  0.3931 -1.4893
12497TIP3    H258907   0.627   0.471   4.206 -2.0710  0.4344 -1.1095
12498TIP3   OH258908   1.951   2.796   3.777 -0.1087  0.2433 -0.8798
12498TIP3    H158909   1.858   2.782   3.795 -0.1170 -0.7459 -1.6455
12498TIP3    H258910   1.958   2.791   3.682  0.9109 -0.8696 -0.7674
12499TIP3   OH258911   0.841   6.505  13.078  0.0398  0.8382 -0.3896
12499TIP3    H158912   0.834   6.468  12.990  1.1619 -0.6093  0.0796
12499TIP3    H258913   0.793   6.588  13.074 -1.8410 -0.2663 -1.7347
12500TIP3   OH258914   2.314   2.073  13.174  0.3215 -0.0537 -0.4621
12500TIP3    H158915   2.278   2.023  13.248 -0.7319  0.2135 -0.7807
12500TIP3    H258916   2.272   2.036  13.097 -1.7449  2.2617 -0.6133
12501TIP3   OH258917   6.036   1.277  10.575  0.2602 -0.0349 -0.6614
12501TIP3    H158918   6.095   1.266  10.650 -0.7034  0.0017  0.1259
12501TIP3    H258919   6.068   1.216  10.510  0.3400 -1.0487  0.2900
12502TIP3   OH258920   0.738   0.046  11.949 -0.3917  0.1008  0.0318
12502TIP3    H158921   0.652   0.064  11.988 -2.0130 -3.9333 -1.1893
12502TIP3    H258922   0.721   0.038  11.855  1.2407 -1.1991 -0.1988
12503TIP3   OH258923   1.355   6.767   0.761 -0.4684  0.2420 -0.0649
12503TIP3    H158924   1.356   6.861   0.780 -1.7698  0.8529 -2.5645
12503TIP3    H258925   1.322   6.727   0.841 -2.6102  2.2308  0.1690
12504TIP3   OH258926   3.857   0.919   0.708  0.0177  0.1545  0.0469
12504TIP3    H158927   3.781   0.974   0.691  1.2398  1.3776 -2.0020
12504TIP3    H258928   3.826   0.851   0.768 -1.6437  2.8935  2.5189
12505TIP3   OH258929   4.623   5.557  12.977 -0.0098 -0.3668  0.4085
12505TIP3    H158930   4.676   5.539  12.900 -0.2022 -0.4089  0.2869
12505TIP3    H258931   4.566   5.630  12.951  0.6367  0.3126  0.8354
12506TIP3   OH258932   0.396   4.596   1.553 -0.0788 -0.0123  0.2055
12506TIP3    H158933   0.368   4.546   1.476  1.2417 -0.9576  0.3142
12506TIP3    H258934   0.322   4.589   1.614 -0.1576 -1.3380 -0.0220
12507TIP3   OH258935   3.692   5.430  10.678 -0.1238  0.2795  0.5805
12507TIP3    H158936   3.748   5.353  10.673 -0.5787 -0.1228  1.5110
12507TIP3    H258937   3.634   5.424  10.603 -0.2512 -0.3612  0.7303
12508TIP3   OH258938   6.287   3.892  10.697 -0.1969  0.4963 -0.1002
12508TIP3    H158939   6.204   3.853  10.671 -0.4089 -0.2316  1.5460
12508TIP3    H258940   6.335   3.904  10.614 -1.1485 -0.8854 -0.8886
12509TIP3   OH258941   3.393   1.696   4.236  0.1684  0.9854 -0.7620
12509TIP3    H158942   3.358   1.693   4.324 -1.3513  0.4193 -1.3627
12509TIP3    H258943   3.348   1.770   4.194  1.8072  2.0707 -0.7218
12510TIP3   OH258944   4.921   2.819   5.812  0.3636  0.1989  0.0673
12510TIP3    H158945   4.856   2.767   5.859  0.1852 -0.2459 -0.6618
12510TIP3    H258946   4.895   2.910   5.826  1.2069  0.1770  2.1517
12511TIP3   OH258947   4.087   2.109   0.552  0.1123 -0.1555  0.1943
12511TIP3    H158948   4.003   2.154   0.563 -0.3624 -0.2919 -2.3754
12511TIP3    H258949   4.101   2.066   0.636 -2.5596 -0.4046  0.6215
12512TIP3   OH258950   3.696   0.806  12.522 -0.0161 -0.7851  0.0440
12512TIP3    H158951   3.625   0.830  12.582  0.3610  0.3469  0.0663
12512TIP3    H258952   3.674   0.851  12.440  0.6972 -0.3661  0.0749
12513TIP3   OH258953   0.342   5.030   0.166  0.0759 -0.0951 -0.3790
12513TIP3    H158954   0.415   4.971   0.147 -0.6983 -0.6319 -1.8240
12513TIP3    H258955   0.266   4.985   0.130 -0.7653  1.0909 -0.1138
12514TIP3   OH258956   6.887   0.024   4.620  0.1594 -0.0821  0.3469
12514TIP3    H158957   6.898  -0.039   4.549  1.0278 -1.0570  1.3025
12514TIP3    H258958   6.900  -0.028   4.700 -1.1901  0.8948  1.2463
12515TIP3   OH258959   6.835   1.169  16.444 -0.1840 -0.2742  0.4797
12515TIP3    H158960   6.811   1.166  16.537  0.8705 -0.0248  0.7736
12515TIP3    H258961   6.814   1.258  16.416  3.3241  1.1059  1.6149
12516TIP3   OH258962   4.758   2.722   4.086 -0.5636 -0.3377  0.3608
12516TIP3    H158963   4.724   2.747   4.172 -2.5811  2.3338 -1.0843
12516TIP3    H258964   4.806   2.799   4.056 -1.4696 -0.5167 -1.6664
12517TIP3   OH258965   3.767   4.715   1.935 -0.1199 -0.3713 -0.1895
12517TIP3    H158966   3.777   4.766   1.855 -1.2111 -0.2456 -0.2571
12517TIP3    H258967   3.673   4.716   1.953  0.0326 -0.9716  0.7187
12518TIP3   OH258968   0.913   2.389   3.953 -0.6879  0.7496 -0.2661
12518TIP3    H158969   1.005   2.391   3.926 -0.2561  1.3826  1.1501
12518TIP3    H258970   0.885   2.299   3.936  0.9575 -0.2016  1.5908
12519TIP3   OH258971   2.993   0.045  14.198 -0.1094 -0.2566 -0.7075
12519TIP3    H158972   3.010   0.137  14.221 -0.0919 -0.1235 -1.2252
12519TIP3    H258973   3.001  -0.003  14.280  2.7298 -0.2224 -0.8986
12520TIP3   OH258974   5.226   4.360  15.375 -0.6312 -0.3304 -0.8167
12520TIP3    H158975   5.171   4.360  15.453  0.8327  1.4263  0.3015
12520TIP3    H258976   5.168   4.332  15.304 -2.2839 -0.9101  0.7004
12521TIP3   OH258977   3.918   1.773  12.998  0.1969 -0.4013  0.3063
12521TIP3    H158978   3.882   1.782  12.910 -0.8720  2.7948  0.9154
12521TIP3    H258979   4.002   1.730  12.986 -0.2903 -0.7931 -2.1674
12522TIP3   OH258980   5.979   4.486   5.048 -0.0317  0.1425  0.2414
12522TIP3    H158981   5.957   4.461   5.137 -0.0473  0.9136  0.4607
12522TIP3    H258982   5.926   4.563   5.030  0.6728  0.5644 -0.0880
12523TIP3   OH258983   5.100   4.855   4.930  0.2627 -1.1421  0.5441
12523TIP3    H158984   5.023   4.812   4.969 -0.7723 -0.9158 -1.1475
12523TIP3    H258985   5.108   4.815   4.843  1.6860 -0.6972  0.4516
12524TIP3   OH258986   3.881   4.271   4.094  0.1606 -0.5872  0.2090
12524TIP3    H158987   3.933   4.191   4.080  0.7194 -0.1821 -0.0702
12524TIP3    H258988   3.835   4.255   4.176  0.0367 -1.3200  0.0070
12525TIP3   OH258989   2.279   5.121  14.823  0.1449  0.4423  0.3064
12525TIP3    H158990   2.353   5.172  14.856 -0.5500  0.4934  1.9153
12525TIP3    H258991   2.319   5.057  14.763  1.4603  0.6355  0.9312
12526TIP3   OH258992   5.843   0.340   3.661  0.1456  0.5401 -0.1294
12526TIP3    H158993   5.803   0.375   3.741 -2.9952  1.1385 -1.7675
12526TIP3    H258994   5.839   0.413   3.599  0.3888 -0.5581 -1.4784
12527TIP3   OH258995   6.555   4.906   2.438 -0.4615 -0.0524  0.0128
12527TIP3    H158996   6.557   4.820   2.396 -1.3727 -0.9842  1.7677
12527TIP3    H258997   6.581   4.889   2.528 -2.1679  1.2528  0.8081
12528TIP3   OH258998   3.185   2.466  11.941  0.1930  0.1491 -0.3923
12528TIP3    H158999   3.223   2.378  11.949 -1.7292 -0.8543 -1.6093
12528TIP3    H259000   3.239   2.520  11.999 -0.1597 -2.3405  2.5376
12529TIP3   OH259001   1.406   2.801  14.009  0.1809 -0.1675  0.1135
12529TIP3    H159002   1.366   2.723  14.047 -1.1811  1.1392  1.5014
12529TIP3    H259003   1.496   2.802  14.042  0.4683 -1.5466 -0.5758
12530TIP3   OH259004   0.210   4.335   5.856 -0.2035 -0.3747  0.1308
12530TIP3    H159005   0.133   4.351   5.802  0.8748 -0.8219 -1.6255
12530TIP3    H259006   0.247   4.422   5.872 -1.0211 -0.1638  0.9489
12531TIP3   OH259007   0.648   2.905  14.545 -0.2995 -0.3199  0.3872
12531TIP3    H159008   0.636   2.814  14.574 -2.1048  0.3363  1.9898
12531TIP3    H259009   0.601   2.956  14.611  2.2151  1.9359  0.5536
12532TIP3   OH259010   4.280   4.311  15.851  0.2902 -0.2969  0.0379
12532TIP3    H159011   4.331   4.262  15.917  0.4356 -0.3226 -0.0932
12532TIP3    H259012   4.345   4.340  15.787  0.1764 -0.0969  0.0124
12533TIP3   OH259013   3.130   6.143  10.179 -0.0542  0.4982  0.5335
12533TIP3    H159014   3.195   6.074  10.166 -2.3754 -1.8627  0.7380
12533TIP3    H259015   3.174   6.222  10.147  2.3699 -1.1932 -0.7203
12534TIP3   OH259016   2.838   6.247  16.397 -0.3661  0.1703 -0.7186
12534TIP3    H159017   2.808   6.311  16.461  0.3370 -0.1009 -0.1033
12534TIP3    H259018   2.932   6.242  16.411 -0.0097  0.9983 -2.6167
12535TIP3   OH259019   6.817   1.358   0.568  0.1701 -0.1194  0.0321
12535TIP3    H159020   6.762   1.299   0.619  0.6183 -0.1766  0.4519
12535TIP3    H259021   6.877   1.300   0.520 -0.3314 -0.0745 -0.6684
12536TIP3   OH259022   6.086   2.203   1.769  0.4982  0.6004 -0.6729
12536TIP3    H159023   6.035   2.133   1.810  1.8761  0.4936  0.9749
12536TIP3    H259024   6.072   2.280   1.825  0.0773  1.2988 -1.6991
12537TIP3   OH259025   1.316   0.995   2.907  0.2981 -0.3859 -0.2774
12537TIP3    H159026   1.352   0.960   2.988  1.6557 -1.3208 -1.2400
12537TIP3    H259027   1.374   1.067   2.884 -0.1709 -0.0275 -0.3366
12538TIP3   OH259028   5.723   1.705  16.312  0.3764 -0.0953  0.2528
12538TIP3    H159029   5.729   1.787  16.361 -1.3157 -0.9651  2.0918
12538TIP3    H259030   5.781   1.644  16.358  1.2585 -0.0866 -0.8097
12539TIP3   OH259031   3.372   6.171   4.349  0.0033 -0.1560  0.0022
12539TIP3    H159032   3.283   6.187   4.382  0.1113  0.4380  0.0097
12539TIP3    H259033   3.366   6.190   4.255  0.1762  0.0904  0.0423
12540TIP3   OH259034   1.865   5.680   1.981 -0.0653 -0.4488 -0.2786
12540TIP3    H159035   1.850   5.598   1.935  0.3001  0.3126 -1.8257
12540TIP3    H259036   1.952   5.708   1.953 -1.1582  1.7000 -1.8651
12541TIP3   OH259037   5.774   5.290  12.924 -0.1772 -0.6020  0.4575
12541TIP3    H159038   5.753   5.323  12.837  1.2286  0.1165  0.3588
12541TIP3    H259039   5.720   5.342  12.983  0.8376  0.8290  0.1782
12542TIP3   OH259040   1.325   1.474   2.450 -0.1063  0.4426  0.0621
12542TIP3    H159041   1.420   1.458   2.454 -0.2262 -0.5760 -0.5831
12542TIP3    H259042   1.315   1.568   2.465  1.1080  0.7660 -0.9860
12543TIP3   OH259043   1.906   1.180  14.687  0.7866 -0.3493 -0.2699
12543TIP3    H159044   1.819   1.205  14.717  0.3691 -0.9995 -0.9007
12543TIP3    H259045   1.948   1.262  14.663  0.7358  0.0722  1.0248
12544TIP3   OH259046   4.157   0.137  12.432 -0.3554 -0.5368  0.0050
12544TIP3    H159047   4.142   0.047  12.464  0.9649 -0.8748 -0.2907
12544TIP3    H259048   4.125   0.135  12.342 -1.8237 -0.2496  0.4948
12545TIP3   OH259049   0.923   5.759  14.348 -0.3486 -0.2322  0.1479
12545TIP3    H159050   0.984   5.710  14.292 -1.8251  0.2717 -2.0597
12545TIP3    H259051   0.881   5.693  14.402 -0.0333 -0.9801 -0.5062
12546TIP3   OH259052   6.706   3.695  12.265 -0.2431  0.6780 -0.0648
12546TIP3    H159053   6.690   3.614  12.313 -0.7582 -0.0128 -1.3680
12546TIP3    H259054   6.748   3.753  12.329 -2.0571  0.2464  1.6179
12547TIP3   OH259055   6.371   5.032  11.604 -0.4080  0.1136  0.4370
12547TIP3    H159056   6.436   5.022  11.534 -0.0727 -0.3455  0.8060
12547TIP3    H259057   6.330   4.945  11.611  0.6343 -0.3040  1.8377
12548TIP3   OH259058   6.894   3.948   2.927 -0.3853  0.0001  0.0632
12548TIP3    H159059   6.873   4.003   3.002 -2.1659  0.0210 -0.4267
12548TIP3    H259060   6.949   3.878   2.964 -0.8585  0.2632  1.3029
12549TIP3   OH259061   5.447   3.441   3.688 -0.4247  0.3169 -0.3472
12549TIP3    H159062   5.464   3.437   3.782 -1.3789  0.9406 -0.1318
12549TIP3    H259063   5.454   3.351   3.658  0.6213  0.2117  0.1862
12550TIP3   OH259064   5.651   6.516  12.919 -0.0664  0.2163 -0.3891
12550TIP3    H159065   5.664   6.421  12.910  0.9020  0.3358 -0.2775
12550TIP3    H259066   5.559   6.529  12.896 -0.1712 -0.7327 -0.5531
12551TIP3   OH259067   3.882   3.454   5.560 -0.1322 -0.1542 -0.3429
12551TIP3    H159068   3.876   3.363   5.532 -1.0882 -0.5227  0.9532
12551TIP3    H259069   3.923   3.450   5.646 -1.8146  0.4249  0.5506
12552TIP3   OH259070   5.404   5.726  15.320  0.3894 -0.3785  0.4694
12552TIP3    H159071   5.441   5.744  15.233 -0.3446 -0.6040  0.1058
12552TIP3    H259072   5.315   5.760  15.315  1.1489  2.0702  2.0054
12553TIP3   OH259073   6.226   0.084   2.521 -0.6161  0.0942  0.2399
12553TIP3    H159074   6.310   0.038   2.520 -0.8098 -0.2627  0.1224
12553TIP3    H259075   6.182   0.056   2.441 -0.7270  0.5062  0.1542
12554TIP3   OH259076   3.563   1.595  12.345 -0.3849 -0.3048 -0.2728
12554TIP3    H159077   3.555   1.629  12.256 -0.3935 -0.2147 -0.2367
12554TIP3    H259078   3.603   1.509  12.333  2.8768  1.0555 -0.1284
12555TIP3   OH259079   4.300   2.308  10.241  0.1475  0.3187 -0.4964
12555TIP3    H159080   4.382   2.260  10.242  1.2141  1.9298 -2.3914
12555TIP3    H259081   4.241   2.255  10.187  0.2832 -0.3214 -0.0213
12556TIP3   OH259082   2.405   3.324  16.555 -0.4511 -0.3457  0.2876
12556TIP3    H159083   2.348   3.325  16.478  0.7663 -0.6837 -0.6474
12556TIP3    H259084   2.383   3.243  16.600 -0.8488 -0.3782  0.0384
12557TIP3   OH259085   2.389   0.588   4.071 -0.5666  0.3493 -0.1645
12557TIP3    H159086   2.443   0.510   4.056 -1.7308 -0.5757  0.2648
12557TIP3    H259087   2.394   0.637   3.989  2.6423  1.4407  0.5465
12558TIP3   OH259088   6.721   5.377  14.659  0.0453  0.3777 -0.5880
12558TIP3    H159089   6.652   5.439  14.634  0.2436  0.7982 -0.1076
12558TIP3    H259090   6.713   5.306  14.595 -1.3312  0.0474 -0.0757
12559TIP3   OH259091   0.707   0.603   3.738 -0.0050  0.1668 -0.1439
12559TIP3    H159092   0.769   0.551   3.790 -0.1942  0.1508  0.0680
12559TIP3    H259093   0.627   0.602   3.790 -0.9841 -1.9344 -1.5604
12560TIP3   OH259094   2.289   3.644  15.256 -0.2987 -0.0614  0.2368
12560TIP3    H159095   2.255   3.733  15.253  0.6819  0.3983 -4.1921
12560TIP3    H259096   2.371   3.650  15.305 -1.2485  0.9957  1.7512
12561TIP3   OH259097   2.070   0.118   4.071 -0.7774  0.0009 -0.3184
12561TIP3    H159098   2.034   0.105   4.159  0.6228  0.2189  0.3006
12561TIP3    H259099   2.162   0.096   4.078 -0.6704 -0.1662 -1.7918
12562TIP3   OH259100   4.133   3.746  11.586 -0.3232  0.4714  0.7188
12562TIP3    H159101   4.130   3.651  11.571  0.5860  0.7616 -1.7451
12562TIP3    H259102   4.201   3.777  11.526  0.4388  2.5283  2.5277
12563TIP3   OH259103   4.458   0.162  12.282  0.1663 -0.2707 -0.1413
12563TIP3    H159104   4.375   0.188  12.241 -0.4608 -1.9798 -0.0460
12563TIP3    H259105   4.477   0.233  12.343 -0.4621  0.8499 -1.1868
12564TIP3   OH259106   2.916   3.603   3.701  0.4728  0.3352 -0.1222
12564TIP3    H159107   2.929   3.657   3.779 -0.1224  1.3270 -0.6997
12564TIP3    H259108   2.839   3.640   3.658 -1.1777 -2.1340  0.4715
12565TIP3   OH259109   3.416   2.440  16.366  0.6839  0.5826  0.3439
12565TIP3    H159110   3.438   2.425  16.274 -0.4550 -5.1101  0.6664
12565TIP3    H259111   3.501   2.445  16.410  1.3284 -1.5297 -0.5556
12566TIP3   OH259112   5.630   3.393   1.304  0.0005 -0.0410 -0.2747
12566TIP3    H159113   5.678   3.463   1.349 -0.3304  1.0709 -1.5840
12566TIP3    H259114   5.573   3.356   1.372  0.2950  0.8442  0.4790
12567TIP3   OH259115   0.545   4.566  16.522 -0.0126  0.2314 -0.1510
12567TIP3    H159116   0.559   4.519  16.441  1.1689 -1.9918  1.2494
12567TIP3    H259117   0.627   4.614  16.536  0.7567 -1.2917  0.8504
12568TIP3   OH259118   4.910   0.859  10.776  0.4692 -0.0389 -0.0416
12568TIP3    H159119   4.931   0.890  10.688 -0.0529  0.5611  0.0373
12568TIP3    H259120   4.826   0.813  10.765  0.5110 -0.1501  0.1060
12569TIP3   OH259121   1.314   3.443  14.570  0.5995  0.1435 -0.1257
12569TIP3    H159122   1.294   3.350  14.575  3.0954 -0.5023 -0.6151
12569TIP3    H259123   1.316   3.472  14.661 -0.9376 -0.0699 -0.0021
12570TIP3   OH259124   0.327   4.909   2.338 -0.5808  0.3477 -0.1263
12570TIP3    H159125   0.406   4.868   2.303 -0.7573  0.0314 -0.1639
12570TIP3    H259126   0.292   4.961   2.265 -0.8543 -0.1738 -0.3723
12571TIP3   OH259127   4.657   4.269   1.749 -0.2616  0.1391  0.4067
12571TIP3    H159128   4.561   4.273   1.754 -0.4272  1.7396 -2.2061
12571TIP3    H259129   4.684   4.248   1.838 -3.0483 -0.8787  1.1364
12572TIP3   OH259130   1.016   3.251  10.905 -0.1909 -0.4093  0.0226
12572TIP3    H159131   1.082   3.307  10.862 -2.6403  2.5861 -0.2057
12572TIP3    H259132   1.035   3.260  10.999  1.0678 -1.4904 -0.0957
12573TIP3   OH259133   5.290   3.490   0.465 -0.2679  0.5192 -0.0014
12573TIP3    H159134   5.222   3.477   0.399  0.8072  1.0695 -1.2363
12573TIP3    H259135   5.333   3.572   0.440 -1.2635  1.9892  2.6542
12574TIP3   OH259136   3.424   1.104  10.177 -0.1111 -0.3975  0.2152
12574TIP3    H159137   3.413   1.102  10.082  0.6779  0.9168  0.0823
12574TIP3    H259138   3.512   1.138  10.191 -0.6155  0.4609  1.4390
12575TIP3   OH259139   3.052   1.003   0.293 -0.3121 -0.0700  0.1835
12575TIP3    H159140   3.052   1.038   0.382  0.5825 -1.3367  0.7113
12575TIP3    H259141   3.140   0.966   0.281 -0.5923 -0.4143 -1.0213
12576TIP3   OH259142   5.249   6.336  12.874  0.1997 -0.4183 -0.6152
12576TIP3    H159143   5.263   6.267  12.939 -1.9165 -1.0091 -0.7132
12576TIP3    H259144   5.289   6.302  12.794  0.6053 -0.8044 -0.2557
12577TIP3   OH259145   4.005   1.396  12.145 -0.8335  0.2985  0.0423
12577TIP3    H159146   4.074   1.461  12.158 -1.9850  1.7511 -0.7032
12577TIP3    H259147   3.982   1.368  12.234  0.7182 -0.2450  0.2906
12578TIP3   OH259148   5.197   2.752   0.156 -0.3179  0.2645  0.3512
12578TIP3    H159149   5.214   2.839   0.120  0.3519  0.1989  0.5002
12578TIP3    H259150   5.133   2.767   0.226 -0.2218  0.6345  0.3620
12579TIP3   OH259151   0.217   6.798   2.885  0.5644  0.2787 -0.1455
12579TIP3    H159152   0.281   6.746   2.934  2.0538  0.8056 -1.4568
12579TIP3    H259153   0.161   6.836   2.952  0.4079 -1.7222  0.9507
12580TIP3   OH259154   6.204   1.332   3.647  0.1783 -0.3763 -0.3505
12580TIP3    H159155   6.234   1.422   3.662  0.5070 -0.6298  0.5829
12580TIP3    H259156   6.188   1.297   3.735 -3.2906 -0.1357 -0.7441
12581TIP3   OH259157   2.916   0.112  13.792 -0.0494 -0.3584 -0.6207
12581TIP3    H159158   2.923   0.188  13.850 -1.8842 -0.6130 -0.0076
12581TIP3    H259159   2.882   0.042  13.848 -2.9019 -0.3404 -2.1297
12582TIP3   OH259160   1.481   4.880  14.985 -0.1139  0.4527 -0.3955
12582TIP3    H159161   1.424   4.820  15.033 -0.0496  1.3602  0.8814
12582TIP3    H259162   1.435   4.897  14.903 -1.1210  0.2477  0.1089
12583TIP3   OH259163   5.211   4.177   3.807  0.2567 -0.3652 -0.0975
12583TIP3    H159164   5.268   4.143   3.738  1.1427 -0.5591  0.7102
12583TIP3    H259165   5.267   4.184   3.884 -0.2333  1.6716  0.1343
12584TIP3   OH259166   5.725   3.629  10.862 -0.4108 -0.3512 -0.1512
12584TIP3    H159167   5.663   3.580  10.809 -1.5198  0.8428  0.0052
12584TIP3    H259168   5.689   3.717  10.867  0.4871 -0.0261  1.2575
12585TIP3   OH259169   4.156   6.125   0.290 -0.4065  0.0766 -0.4659
12585TIP3    H159170   4.173   6.117   0.196  1.3940  1.8171 -0.3440
12585TIP3    H259171   4.130   6.217   0.301 -0.0915  0.0206  0.8055
12586TIP3   OH259172   2.312   4.911  16.238  0.4835 -0.2292  0.7563
12586TIP3    H159173   2.254   4.866  16.300  0.9938 -1.2753  0.4937
12586TIP3    H259174   2.396   4.917  16.284  0.9200 -1.1900  0.1170
12587TIP3   OH259175   1.835   2.246   4.621 -0.3129 -0.1836  0.5504
12587TIP3    H159176   1.881   2.191   4.684  0.5474  1.9592  1.9338
12587TIP3    H259177   1.890   2.324   4.613 -1.7060  0.7209 -0.8891
12588TIP3   OH259178   2.187   6.160   2.464  0.0715  0.7443 -0.5874
12588TIP3    H159179   2.252   6.164   2.394  1.4861 -0.0987  0.6124
12588TIP3    H259180   2.230   6.109   2.533 -1.7874  0.3868  0.3563
12589TIP3   OH259181   1.685   2.956   2.637  0.2392  0.1928 -0.4925
12589TIP3    H159182   1.683   2.901   2.559 -0.1951  0.6098 -0.7882
12589TIP3    H259183   1.609   2.927   2.688 -0.9634  1.5515 -1.4071
12590TIP3   OH259184   1.586   3.559   3.108 -0.0310 -0.0252 -0.2486
12590TIP3    H159185   1.606   3.652   3.112  2.1846 -0.4609  0.3468
12590TIP3    H259186   1.621   3.530   3.024 -0.4525 -0.3910 -0.3045
12591TIP3   OH259187   0.557   3.295   3.910 -0.1220 -0.2262 -0.2711
12591TIP3    H159188   0.473   3.283   3.954 -1.5371  2.0424 -2.1014
12591TIP3    H259189   0.608   3.349   3.971 -0.8779  0.3006 -0.0910
12592TIP3   OH259190   4.892   3.834  10.557  0.5136 -0.3661  0.1656
12592TIP3    H159191   4.950   3.901  10.520 -1.0570  0.6316 -0.6160
12592TIP3    H259192   4.893   3.763  10.492  0.3147 -0.0489 -0.1854
12593TIP3   OH259193   0.730   5.558   5.424  0.8519  0.8348 -0.0088
12593TIP3    H159194   0.703   5.522   5.340 -1.4612  0.7491  0.7202
12593TIP3    H259195   0.753   5.481   5.477  0.3063  0.7315  0.0853
12594TIP3   OH259196   6.602   3.070   4.915  0.0678  0.0680  0.0433
12594TIP3    H159197   6.659   3.140   4.946  0.2526  0.0173 -0.1739
12594TIP3    H259198   6.637   2.991   4.955 -2.2352  0.4621  3.1805
12595TIP3   OH259199   5.078   4.175   2.201  0.1329  0.4336  0.6782
12595TIP3    H159200   5.070   4.202   2.110 -0.9696  0.2578  0.7053
12595TIP3    H259201   5.051   4.252   2.251 -0.1878  0.2248  0.8274
12596TIP3   OH259202   0.615   5.394  14.284  0.0551 -0.5176  0.0984
12596TIP3    H159203   0.651   5.411  14.196 -0.1695 -1.8608 -0.2686
12596TIP3    H259204   0.564   5.473  14.304  0.1449 -0.1737 -0.9586
12597TIP3   OH259205   1.899   2.871   5.274 -0.1101 -0.2161 -0.0873
12597TIP3    H159206   1.809   2.869   5.240 -1.1972  0.4129  2.5038
12597TIP3    H259207   1.903   2.952   5.324  1.6167 -0.6904  0.5994
12598TIP3   OH259208   1.913   2.925  12.190 -0.2374 -0.2403  0.1190
12598TIP3    H159209   1.861   2.916  12.110  0.1835 -0.0160 -0.1844
12598TIP3    H259210   2.000   2.949  12.159 -0.2115  0.4178  0.6796
12599TIP3   OH259211   1.410   6.597  12.037  0.5445  0.3188 -0.5655
12599TIP3    H159212   1.354   6.675  12.044 -0.3362 -0.4195  1.3818
12599TIP3    H259213   1.357   6.534  11.989 -0.8645 -0.7575  2.2118
12600TIP3   OH259214   4.485   1.503   5.173 -0.0567 -0.0213 -0.4790
12600TIP3    H159215   4.522   1.486   5.086  0.5714  2.6211 -0.8160
12600TIP3    H259216   4.400   1.544   5.155  1.6678  4.2022 -0.1529
12601TIP3   OH259217   5.220   0.834  15.267 -0.2998  0.1795  0.3276
12601TIP3    H159218   5.260   0.866  15.347  3.2471 -0.6319 -0.9549
12601TIP3    H259219   5.236   0.902  15.202  1.0917 -1.0934 -0.7462
12602TIP3   OH259220   2.197   6.206  16.123 -0.3314 -0.1520 -0.3216
12602TIP3    H159221   2.277   6.255  16.107  0.1110 -0.7680 -0.0344
12602TIP3    H259222   2.182   6.156  16.043 -0.1819 -0.3718 -0.2140
12603TIP3   OH259223   6.233   4.241   1.675  0.2996 -0.0738 -0.3384
12603TIP3    H159224   6.163   4.197   1.628 -2.8719  1.8413  2.1757
12603TIP3    H259225   6.263   4.178   1.740 -0.9439 -0.1372  0.2026
12604TIP3   OH259226   6.133   2.629  10.342  0.2321 -0.6551  0.4782
12604TIP3    H159227   6.140   2.664  10.431  0.7902 -0.6011  0.4192
12604TIP3    H259228   6.208   2.666  10.296 -1.0480  0.7992 -0.5476
12605TIP3   OH259229   3.580   3.766  13.843  0.0533 -0.6763  0.5121
12605TIP3    H159230   3.621   3.681  13.825  0.1217 -0.8827  1.5853
12605TIP3    H259231   3.570   3.768  13.938  0.8897  0.8987  0.6047
12606TIP3   OH259232   6.638   3.733  11.080 -0.4280  0.1229  0.3459
12606TIP3    H159233   6.572   3.692  11.025 -0.7772 -0.6287  1.3031
12606TIP3    H259234   6.692   3.783  11.018 -1.2719 -0.0580 -0.5727
12607TIP3   OH259235   5.785   5.581   5.728 -0.0676 -0.1235 -0.0068
12607TIP3    H159236   5.695   5.548   5.732 -0.3173  0.4922 -0.4291
12607TIP3    H259237   5.836   5.515   5.773 -0.7679 -0.3737  0.4459
12608TIP3   OH259238   2.595   1.622   1.128 -0.0251 -0.4925  0.4701
12608TIP3    H159239   2.609   1.670   1.047 -0.5842  2.9301  2.1936
12608TIP3    H259240   2.681   1.621   1.170 -0.0088 -1.1186  0.4398
12609TIP3   OH259241   3.500   3.419  10.387 -0.4618  0.3998 -0.2807
12609TIP3    H159242   3.504   3.497  10.332 -0.4825  0.5144 -0.1228
12609TIP3    H259243   3.590   3.385  10.387 -0.0723  1.3570  0.9668
12610TIP3   OH259244   4.994   3.205   2.401 -0.0230 -1.1352  0.4561
12610TIP3    H159245   4.948   3.268   2.456  0.3939 -0.0802 -0.3708
12610TIP3    H259246   5.028   3.140   2.462 -1.1153 -0.9948  1.2481
12611TIP3   OH259247   5.827   3.130  14.379  0.1612  0.1597 -0.1551
12611TIP3    H159248   5.848   3.061  14.442  0.8642 -0.8831 -1.4859
12611TIP3    H259249   5.796   3.203  14.433 -0.4055 -1.1123  1.3048
12612TIP3   OH259250   4.234   0.204   4.386 -0.2849 -0.7305  0.1138
12612TIP3    H159251   4.267   0.179   4.300 -2.3037  0.5193 -1.1178
12612TIP3    H259252   4.256   0.130   4.443  0.7471 -1.7650 -1.5428
12613TIP3   OH259253   1.574   0.857  11.029 -0.3335 -0.6494 -0.4039
12613TIP3    H159254   1.591   0.811  11.111  1.7079 -0.5430 -0.7120
12613TIP3    H259255   1.555   0.787  10.966 -1.0458 -0.7900 -0.0398
12614TIP3   OH259256   1.241   3.388  15.059 -0.5219 -0.3648  0.5604
12614TIP3    H159257   1.261   3.298  15.032 -1.1834 -0.0569 -1.0120
12614TIP3    H259258   1.151   3.385  15.090  0.1025 -0.6327  2.5116
12615TIP3   OH259259   2.897   2.381  13.056 -0.1264 -0.0799  0.5125
12615TIP3    H159260   2.936   2.443  12.994  0.2212 -1.0036 -0.2173
12615TIP3    H259261   2.853   2.317  13.000 -3.1840  1.1796  1.2820
12616TIP3   OH259262   5.679   0.822   0.259 -0.3783 -0.2890 -0.0091
12616TIP3    H159263   5.742   0.894   0.255 -0.6398 -0.0979 -1.1398
12616TIP3    H259264   5.637   0.830   0.345  0.9094 -0.2393  0.6318
12617TIP3   OH259265   4.000   5.241   4.085  0.6012  0.3639  0.3448
12617TIP3    H159266   3.929   5.303   4.073  0.2505 -0.1173 -0.1358
12617TIP3    H259267   3.983   5.172   4.021  1.5726  0.3072  0.1250
12618TIP3   OH259268   2.255   1.691   4.341  0.6137 -0.3275  0.1894
12618TIP3    H159269   2.202   1.677   4.420 -0.1933  0.2984 -0.2242
12618TIP3    H259270   2.326   1.747   4.370 -0.3377  0.8945  0.2449
12619TIP3   OH259271   1.511   4.043  12.716 -0.6481  0.0523  0.3221
12619TIP3    H159272   1.418   4.062  12.727 -0.6642 -0.0729  0.3998
12619TIP3    H259273   1.530   4.072  12.626 -0.4492  1.3168  0.7562
12620TIP3   OH259274   1.819   4.377  16.637  0.0717 -0.7075 -0.0592
12620TIP3    H159275   1.909   4.410  16.633  0.1640 -0.8567  0.7041
12620TIP3    H259276   1.799   4.353  16.546  0.2217  0.8172 -0.5162
12621TIP3   OH259277   4.618   5.324  11.375 -0.2899 -0.6288  0.1008
12621TIP3    H159278   4.569   5.245  11.397 -0.4182 -0.8835 -1.0308
12621TIP3    H259279   4.684   5.294  11.313 -0.3089  0.1436 -0.3032
12622TIP3   OH259280   2.307   3.037  16.287  0.3275 -0.1287  0.2742
12622TIP3    H159281   2.397   3.062  16.306 -0.0001  1.4956 -0.1372
12622TIP3    H259282   2.258   3.119  16.290 -1.0863 -0.9287  0.1509
12623TIP3   OH259283   2.016   2.386   3.500  0.4715 -0.6687  0.0578
12623TIP3    H159284   2.101   2.351   3.474  0.1193 -2.8386  1.5880
12623TIP3    H259285   1.961   2.375   3.423  1.1864 -0.6027 -0.4775
12624TIP3   OH259286   4.716   3.240  13.099 -0.4563 -0.0661 -0.0766
12624TIP3    H159287   4.743   3.314  13.154  0.7489 -1.0295  0.6893
12624TIP3    H259288   4.678   3.280  13.021  2.8798  1.4621 -1.0962
12625TIP3   OH259289   4.123   1.519   2.884 -0.1098 -0.0212  0.5254
12625TIP3    H159290   4.099   1.464   2.809 -0.4769  1.3050 -0.3661
12625TIP3    H259291   4.048   1.513   2.943 -0.8830  0.8003 -0.3328
12626TIP3   OH259292   1.711   3.357   1.848  0.3339 -0.2387 -0.5272
12626TIP3    H159293   1.722   3.411   1.769 -0.3284  1.8523  0.7303
12626TIP3    H259294   1.787   3.377   1.902  0.1689 -0.7041 -0.1110
12627TIP3   OH259295   4.241   2.052  13.886 -0.2426 -0.2044  0.1252
12627TIP3    H159296   4.299   2.011  13.950 -1.3485 -2.3983 -0.1949
12627TIP3    H259297   4.219   1.982  13.824  0.4572  1.7113 -2.4907
12628TIP3   OH259298   1.895   3.474  12.102 -0.6437 -0.1322  0.5206
12628TIP3    H159299   1.881   3.380  12.114  3.0763 -1.0098 -0.4677
12628TIP3    H259300   1.871   3.491  12.011 -2.2154  0.1415  0.9637
12629TIP3   OH259301   6.756   3.940   3.506  0.2761  0.4700 -0.3047
12629TIP3    H159302   6.750   3.882   3.429  4.0818  2.8835 -2.7116
12629TIP3    H259303   6.702   4.016   3.483  1.8027  1.4094 -0.8918
12630TIP3   OH259304   2.446   6.209   2.979 -0.2400  0.0112  0.4123
12630TIP3    H159305   2.532   6.184   3.014 -0.4172 -0.5225  0.4808
12630TIP3    H259306   2.466   6.264   2.903  0.1926 -1.0991 -0.3093
12631TIP3   OH259307   0.214   5.009  13.117  0.6065  0.0463  0.0225
12631TIP3    H159308   0.225   5.091  13.166  1.6762  1.4521 -2.3522
12631TIP3    H259309   0.143   5.028  13.055 -0.8371 -1.7354  1.0027
12632TIP3   OH259310   2.887   4.713   5.745 -0.0349 -0.5684 -0.3619
12632TIP3    H159311   2.792   4.713   5.756 -0.0478  0.4380 -0.3286
12632TIP3    H259312   2.909   4.623   5.722 -0.7461 -1.2945  1.6465
12633TIP3   OH259313   3.489   1.265   3.251 -0.1983  0.1077  0.5543
12633TIP3    H159314   3.405   1.286   3.290  0.1810 -0.8234  1.9779
12633TIP3    H259315   3.497   1.170   3.262  2.2778  0.4817  3.2221
12634TIP3   OH259316   1.957   6.146   5.533 -0.0843  0.0132  0.7048
12634TIP3    H159317   1.948   6.223   5.478 -0.9732 -0.0026  0.8128
12634TIP3    H259318   2.050   6.143   5.556  0.2219  0.2558 -0.4434
12635TIP3   OH259319   6.299   3.900  16.707  0.0006  0.2355 -0.7548
12635TIP3    H159320   6.323   3.920  16.797 -0.3486 -0.6669 -0.4503
12635TIP3    H259321   6.263   3.812  16.711 -0.9948  0.5776 -1.6024
12636TIP3   OH259322   2.250   4.450  12.349 -0.5980  0.0307  0.7150
12636TIP3    H159323   2.267   4.361  12.378  0.2001 -0.7581 -1.9826
12636TIP3    H259324   2.189   4.441  12.276 -0.9197  1.7559  0.7229
12637TIP3   OH259325   0.707   4.319   2.614  0.2667  0.3354  0.2825
12637TIP3    H159326   0.705   4.401   2.565  0.8417 -1.0859 -2.2613
12637TIP3    H259327   0.674   4.343   2.701  2.8498  3.7573  0.5099
12638TIP3   OH259328   4.466   6.251   3.066 -0.6794 -0.1711 -0.7778
12638TIP3    H159329   4.464   6.174   3.123  1.9010  0.2110 -0.0693
12638TIP3    H259330   4.405   6.313   3.107 -0.0818 -0.5153  0.6886
12639TIP3   OH259331   5.771   5.056   2.301 -0.0971  0.2455  0.3523
12639TIP3    H159332   5.732   4.991   2.242 -0.6167  1.1265 -0.3023
12639TIP3    H259333   5.813   5.119   2.242 -0.5860  1.1197  0.9204
12640TIP3   OH259334   3.949   0.561   2.988  0.0365  0.3067 -0.4699
12640TIP3    H159335   3.867   0.539   3.031  0.8552  0.8621  1.5289
12640TIP3    H259336   3.956   0.656   2.998  1.5989  0.1037  0.7855
12641TIP3   OH259337   4.718   2.875   6.170  0.8128  0.6363  0.1199
12641TIP3    H159338   4.678   2.929   6.103  0.5465 -2.6869 -2.6810
12641TIP3    H259339   4.810   2.900   6.169  0.6918  1.0973 -1.0326
12642TIP3   OH259340   2.176   1.717  12.352  0.0082  0.2752 -0.1524
12642TIP3    H159341   2.132   1.767  12.421  0.5182  1.7425 -0.8554
12642TIP3    H259342   2.233   1.656  12.399 -2.0857 -1.1065  0.7612
12643TIP3   OH259343   5.817   2.081   5.980  0.1174 -0.0661 -0.4037
12643TIP3    H159344   5.866   2.012   5.935 -0.9308 -1.4883  0.5265
12643TIP3    H259345   5.872   2.106   6.053 -0.2174 -1.1852  0.2567
12644TIP3   OH259346   6.825   5.400   1.087  0.4913 -0.1587 -0.1623
12644TIP3    H159347   6.748   5.392   1.144 -0.6115  0.0293 -1.5829
12644TIP3    H259348   6.874   5.474   1.123 -0.0336 -0.2211  0.7046
12645TIP3   OH259349   6.644   4.605  16.448  0.3986 -0.0513  0.2153
12645TIP3    H159350   6.675   4.588  16.358  1.3080  0.1288  0.4824
12645TIP3    H259351   6.560   4.648  16.436 -0.2066 -1.3680 -0.5323
12646TIP3   OH259352   4.920   2.371   1.937  0.1046 -0.0140 -0.2336
12646TIP3    H159353   4.941   2.304   2.002  2.9100  0.6899 -0.2721
12646TIP3    H259354   4.833   2.348   1.906 -0.7552 -1.2195  2.6945
12647TIP3   OH259355   6.692   0.664  12.268 -0.4134  0.2888  0.4978
12647TIP3    H159356   6.615   0.697  12.314  0.1876  1.4569  0.7074
12647TIP3    H259357   6.666   0.578  12.236 -2.2542  1.1420 -0.4977
12648TIP3   OH259358   3.529   3.142   1.578  0.2424  0.0859 -0.6223
12648TIP3    H159359   3.568   3.101   1.655 -0.7161 -1.3948 -0.8798
12648TIP3    H259360   3.590   3.124   1.508 -0.1352 -0.8941 -0.7179
12649TIP3   OH259361   4.644   1.453   3.147  0.8456  0.5916 -0.1460
12649TIP3    H159362   4.614   1.540   3.122  0.6876  1.1065  1.6363
12649TIP3    H259363   4.675   1.464   3.237 -1.2286 -1.6116  0.9599
12650TIP3   OH259364   6.571   6.544  14.052 -0.1678  0.5279  0.2345
12650TIP3    H159365   6.498   6.593  14.091  0.0971 -0.2947  1.8468
12650TIP3    H259366   6.535   6.458  14.031 -0.4506  1.1200 -1.9586
12651TIP3   OH259367   6.466   3.910  13.932  0.4156 -0.1193  0.1328
12651TIP3    H159368   6.458   3.929  14.025  0.7806  0.6797  0.0096
12651TIP3    H259369   6.376   3.902  13.901  0.2934 -0.5290  0.5747
12652TIP3   OH259370   0.385   1.941  15.551  0.7622  0.9271 -0.3699
12652TIP3    H159371   0.315   1.996  15.517  0.1996 -0.5110 -1.6002
12652TIP3    H259372   0.341   1.872  15.600  1.3229  0.2516 -0.7932
12653TIP3   OH259373   3.437   0.702  11.880  0.3096 -0.3830  0.3175
12653TIP3    H159374   3.371   0.752  11.929  0.9488 -0.3710  1.2018
12653TIP3    H259375   3.394   0.676  11.799 -0.9313 -0.7520  1.0752
12654TIP3   OH259376   4.940   0.344   5.302 -0.1414  0.0353  0.1392
12654TIP3    H159377   4.880   0.362   5.375  0.9399 -0.8822  1.3177
12654TIP3    H259378   4.981   0.428   5.284 -0.6015  0.3259  0.4152
12655TIP3   OH259379   3.762   5.227   5.828 -0.2988  0.4549  0.1866
12655TIP3    H159380   3.777   5.229   5.922 -1.0152  2.4878  0.3061
12655TIP3    H259381   3.820   5.159   5.796  1.3392  0.9828  1.8617
12656TIP3   OH259382   3.409   1.088  16.318  0.7695 -0.1331 -0.0532
12656TIP3    H159383   3.495   1.107  16.356  1.1117 -0.2470 -0.7434
12656TIP3    H259384   3.349   1.089  16.392  1.5263 -1.1069  0.5988
12657TIP3   OH259385   6.212   0.697  11.396  0.1587 -0.0645  0.6506
12657TIP3    H159386   6.291   0.679  11.345  0.3660 -2.3703  1.6527
12657TIP3    H259387   6.142   0.656  11.345  0.0020 -0.2484  1.0134
12658TIP3   OH259388   0.510   4.063  10.033 -0.6484 -0.1573  0.6803
12658TIP3    H159389   0.578   4.107   9.981  0.1471 -0.4103  1.4768
12658TIP3    H259390   0.518   3.971  10.008 -2.4580  0.1053 -1.1495
12659TIP3   OH259391   1.196   4.164  16.076 -0.1017 -0.1522  0.3515
12659TIP3    H159392   1.127   4.174  16.142 -1.0108  0.9719 -0.7128
12659TIP3    H259393   1.275   4.145  16.127 -1.2589 -1.9996  1.5835
12660TIP3   OH259394   6.355   1.288   4.521  0.5434  0.1974  0.2679
12660TIP3    H159395   6.438   1.335   4.531  0.7057  0.5000 -1.9430
12660TIP3    H259396   6.324   1.274   4.610  2.0254  1.7723  1.0869
12661TIP3   OH259397   6.108   2.554   2.341  0.5002 -0.1053  0.4048
12661TIP3    H159398   6.165   2.547   2.417  0.7433 -1.5310  0.1310
12661TIP3    H259399   6.153   2.504   2.273  0.4470  1.4095 -0.7864
12662TIP3   OH259400   3.158   1.038  12.829 -0.4046 -0.2458 -0.0914
12662TIP3    H159401   3.116   1.011  12.747 -1.4898  0.0295  0.3606
12662TIP3    H259402   3.158   1.133  12.825  0.2555 -0.2435 -0.1147
12663TIP3   OH259403   6.845   3.512  15.258 -0.5561  0.1991  0.3202
12663TIP3    H159404   6.885   3.432  15.225 -0.6801  1.1158 -2.3106
12663TIP3    H259405   6.765   3.483  15.301 -0.6761 -1.1096 -0.7186
12664TIP3   OH259406   1.521   6.164   5.035  0.3204 -0.0597 -0.4034
12664TIP3    H159407   1.471   6.226   5.089 -0.6137 -1.3900  0.3066
12664TIP3    H259408   1.482   6.079   5.055  2.0985 -0.9857 -0.7676
12665TIP3   OH259409   3.386   6.611  14.848 -0.0385 -0.0511 -0.0143
12665TIP3    H159410   3.443   6.639  14.920 -0.0492  0.9648 -0.3903
12665TIP3    H259411   3.447   6.595  14.775 -0.1203 -0.1783 -0.0546
12666TIP3   OH259412   0.433   2.228  14.336 -0.4361  0.3475 -0.1252
12666TIP3    H159413   0.429   2.221  14.241 -0.0829 -0.5693 -0.0769
12666TIP3    H259414   0.346   2.202  14.366 -0.4864  0.4494 -0.1808
12667TIP3   OH259415   6.757   6.625  14.231 -0.3902  0.0990 -0.5134
12667TIP3    H159416   6.720   6.685  14.295  0.6978 -1.5400  1.8309
12667TIP3    H259417   6.683   6.600  14.176 -1.5782  0.9545  0.6244
12668TIP3   OH259418   0.844   4.965  15.535  0.5884  0.1637  0.2791
12668TIP3    H159419   0.860   5.036  15.473  1.4371 -0.2281  0.0384
12668TIP3    H259420   0.749   4.954  15.535  0.6375 -0.6626 -1.9152
12669TIP3   OH259421   1.832   6.860   4.805 -0.1454 -0.4596  0.5007
12669TIP3    H159422   1.908   6.804   4.816  1.1439  1.0242 -0.3189
12669TIP3    H259423   1.816   6.860   4.710 -0.0095  0.6496  0.4601
12670TIP3   OH259424   6.207   0.213   2.160  0.0920 -0.3132  0.6586
12670TIP3    H159425   6.253   0.133   2.184  0.1091 -0.2153  0.9596
12670TIP3    H259426   6.119   0.202   2.198  0.5326  0.4266  1.9556
12671TIP3   OH259427   6.257   5.530   3.407 -0.5120  0.0812  0.7017
12671TIP3    H159428   6.173   5.488   3.427 -0.9350  0.5945  0.0648
12671TIP3    H259429   6.278   5.501   3.319 -0.6723  0.9530  0.3612
12672TIP3   OH259430   1.933   1.130   1.317  0.2236  0.2239  0.5283
12672TIP3    H159431   1.888   1.055   1.357 -1.4518  0.7322 -0.3158
12672TIP3    H259432   1.931   1.197   1.385  0.6844 -0.0972  0.8703
12673TIP3   OH259433   2.904   6.381  12.845 -0.2442  0.6527 -0.0023
12673TIP3    H159434   2.893   6.407  12.754  0.4521  1.0650  0.0270
12673TIP3    H259435   2.881   6.459  12.896  1.9085  1.2993  0.0810
12674TIP3   OH259436   4.742   1.703  12.605 -0.0729 -0.8704  0.0720
12674TIP3    H159437   4.678   1.652  12.556  1.5953 -1.6269 -1.4306
12674TIP3    H259438   4.806   1.731  12.540  0.0546  1.6230  1.1768
12675TIP3   OH259439   6.371   4.598   3.025  0.4388 -0.2731 -0.9454
12675TIP3    H159440   6.439   4.651   3.068 -0.0336  0.9721 -1.6687
12675TIP3    H259441   6.419   4.548   2.960  0.7199  0.3721 -1.2486
12676TIP3   OH259442   0.814   4.061   0.555 -0.2108 -0.1473  0.4327
12676TIP3    H159443   0.887   4.088   0.500 -0.0100 -0.6330  0.4498
12676TIP3    H259444   0.806   4.130   0.621  0.5165 -0.3037  0.6893
12677TIP3   OH259445   0.500   2.317  10.977 -0.1359 -0.0355  0.9160
12677TIP3    H159446   0.405   2.315  10.984 -0.1889  0.7241  0.5338
12677TIP3    H259447   0.518   2.288  10.887  0.0752 -1.4311  1.3833
12678TIP3   OH259448   1.234   6.359  13.666 -0.4270 -0.2231  0.1795
12678TIP3    H159449   1.229   6.422  13.738  0.4283  1.4252 -1.1161
12678TIP3    H259450   1.327   6.336  13.660 -0.8108 -2.2339  1.0799
12679TIP3   OH259451   5.414   5.926   1.809  0.0848 -0.4954 -0.7740
12679TIP3    H159452   5.474   6.000   1.818  1.4453 -1.7091  0.7038
12679TIP3    H259453   5.467   5.858   1.768 -0.2878 -1.5546  0.4439
12680TIP3   OH259454   6.056   1.068   0.053 -0.1730  0.3597  0.7098
12680TIP3    H159455   6.030   1.153   0.018 -0.5920 -0.2602 -0.5311
12680TIP3    H259456   6.099   1.024  -0.020 -1.3121 -1.0717  0.8550
12681TIP3   OH259457   5.861   2.062   0.900 -0.5050 -0.0972  0.2037
12681TIP3    H159458   5.949   2.028   0.887 -1.3314 -2.5433  0.3978
12681TIP3    H259459   5.860   2.093   0.990 -0.2979 -1.7838  0.8262
12682TIP3   OH259460   6.057   2.244  13.033  0.4067 -0.3356 -0.0228
12682TIP3    H159461   6.059   2.206  13.121 -0.4003  2.2102  1.1930
12682TIP3    H259462   6.148   2.240  13.003  0.9831  0.1283  1.5734
12683TIP3   OH259463   0.206   0.444   5.508  0.1817  0.7141  0.2826
12683TIP3    H159464   0.121   0.461   5.549 -0.5543 -1.3743 -0.2454
12683TIP3    H259465   0.251   0.387   5.570  0.7754  0.9825  0.0975
12684TIP3   OH259466   4.854   4.740  13.952  0.7404 -0.2543 -0.7555
12684TIP3    H159467   4.789   4.734  14.023 -0.1865  2.1612 -1.3124
12684TIP3    H259468   4.873   4.649  13.930 -0.9097 -1.0564  0.8366
12685TIP3   OH259469   3.757   3.728   1.971  0.4641  0.6198  0.5918
12685TIP3    H159470   3.693   3.770   2.028  0.7188  1.5454  0.2097
12685TIP3    H259471   3.825   3.697   2.031  0.2345  0.6834  0.8879
12686TIP3   OH259472   6.807   0.837  16.062 -0.4887 -1.0189  0.3766
12686TIP3    H159473   6.748   0.907  16.091  1.9901  0.5667  1.9812
12686TIP3    H259474   6.806   0.774  16.133 -2.6465 -2.6896 -1.0293
12687TIP3   OH259475   6.749   0.352   1.040 -0.5351  0.2188 -0.9362
12687TIP3    H159476   6.759   0.429   0.984  1.3978 -0.6074 -1.8258
12687TIP3    H259477   6.655   0.333   1.040 -0.7271  1.0309 -2.8291
12688TIP3   OH259478   5.891   3.592   1.486  0.0179 -0.1582 -0.1126
12688TIP3    H159479   5.867   3.507   1.524  0.6656  0.2376  1.2548
12688TIP3    H259480   5.984   3.583   1.464 -0.4935 -0.6153 -2.3783
12689TIP3   OH259481   5.076   4.852   4.126 -0.1071 -0.0064  0.0913
12689TIP3    H159482   5.025   4.899   4.192 -0.8045 -0.7422  0.0845
12689TIP3    H259483   5.160   4.899   4.123 -0.4399  0.6493  0.7668
12690TIP3   OH259484   6.731   6.642   0.514 -0.5153  0.0242 -0.1457
12690TIP3    H159485   6.696   6.696   0.442  0.3119  1.9086  0.7811
12690TIP3    H259486   6.684   6.673   0.591 -0.3246 -0.9225  0.3576
12691TIP3   OH259487   6.782   0.045   2.677  0.1406 -0.2066 -0.0605
12691TIP3    H159488   6.740  -0.005   2.747  0.4720 -0.8876 -0.3337
12691TIP3    H259489   6.812  -0.022   2.615 -0.9354  0.4412 -1.3078
12692TIP3   OH259490   4.509   6.021   5.472  0.4003 -0.4844  0.0321
12692TIP3    H159491   4.511   6.089   5.539  0.3095 -0.2130 -0.2444
12692TIP3    H259492   4.555   5.947   5.513 -1.8692 -1.2505  1.4011
12693TIP3   OH259493   6.471   4.717   4.592 -1.0533  0.3322  0.1347
12693TIP3    H159494   6.387   4.760   4.580  0.7996  4.0518 -1.1214
12693TIP3    H259495   6.516   4.727   4.508  0.9957 -0.7090  1.0146
12694TIP3   OH259496   6.142   3.917  11.897  0.1156 -0.3039 -0.2338
12694TIP3    H159497   6.103   3.841  11.856  1.4995 -1.0545 -0.2316
12694TIP3    H259498   6.234   3.893  11.910  0.2341  0.7608  1.2206
12695TIP3   OH259499   3.938   0.998  10.358  0.7216 -0.5483  0.3562
12695TIP3    H159500   3.980   0.948  10.288 -0.0615  0.5998 -0.9846
12695TIP3    H259501   3.975   1.086  10.351 -1.1837  0.2567 -0.2950
12696TIP3   OH259502   5.693   2.892  15.024 -0.1873 -0.0153 -0.2985
12696TIP3    H159503   5.675   2.880  15.117  1.3563  1.1130  0.1966
12696TIP3    H259504   5.646   2.972  15.000  0.2269  0.2516 -0.2279
12697TIP3   OH259505   3.875   3.607  10.480 -0.7485 -0.3711 -0.4423
12697TIP3    H159506   3.813   3.544  10.443 -1.1996 -0.4560  0.4378
12697TIP3    H259507   3.961   3.578  10.449 -1.0473 -0.8322 -0.8508
12698TIP3   OH259508   2.934   0.253   5.054 -0.2557 -0.1932 -0.1056
12698TIP3    H159509   2.988   0.332   5.054 -1.0874  0.4074 -1.1248
12698TIP3    H259510   2.997   0.181   5.049  0.5102  0.3944  0.7404
12699TIP3   OH259511   5.776   2.005   0.584  0.1545 -0.9379  0.2521
12699TIP3    H159512   5.804   2.091   0.554  0.6881 -0.9405  0.7326
12699TIP3    H259513   5.856   1.953   0.589 -0.3489 -2.0044 -1.7096
12700TIP3   OH259514   5.263   5.155   3.283  0.2368  0.2776  0.0415
12700TIP3    H159515   5.330   5.118   3.340 -0.5853 -1.6985 -0.1943
12700TIP3    H259516   5.212   5.213   3.340  2.2376  2.0232  0.1577
12701TIP3   OH259517   1.693   1.501  11.280  0.2309 -0.0677  0.1222
12701TIP3    H159518   1.643   1.580  11.263  1.0565  0.3075 -0.6799
12701TIP3    H259519   1.628   1.434  11.301 -0.6250  0.3152 -1.2294
12702TIP3   OH259520   6.685   0.293  13.623  0.4389  0.5765 -0.2954
12702TIP3    H159521   6.716   0.263  13.709 -0.8159  0.9823  0.3197
12702TIP3    H259522   6.765   0.312  13.575  1.2159 -1.2361  0.1875
12703TIP3   OH259523   4.848   4.843   3.723 -0.8817  0.7127 -0.2582
12703TIP3    H159524   4.801   4.843   3.807 -1.2502 -0.2712 -0.4560
12703TIP3    H259525   4.938   4.819   3.746 -0.8364  1.0388 -0.0783
12704TIP3   OH259526   1.845   1.903   3.434  0.0118 -0.0730  0.4315
12704TIP3    H159527   1.786   1.841   3.475  0.7679 -0.2151  1.3252
12704TIP3    H259528   1.860   1.970   3.500  1.8223 -0.6842  0.7013
12705TIP3   OH259529   6.053   6.104   6.218 -0.1450 -0.3337  0.2234
12705TIP3    H159530   6.011   6.063   6.143  0.2538 -2.7764  1.2218
12705TIP3    H259531   6.025   6.196   6.215  0.5425 -0.1178 -3.3098
12706TIP3   OH259532   4.253   3.063   0.045  0.1209 -0.2408  0.2600
12706TIP3    H159533   4.291   3.013   0.117 -1.0539 -0.2368  0.9014
12706TIP3    H259534   4.202   3.132   0.088  0.4583  0.5763 -0.5982
12707TIP3   OH259535   2.863   5.610   2.467  0.4450  0.5397  0.2081
12707TIP3    H159536   2.859   5.612   2.562  0.1800 -0.4563  0.2321
12707TIP3    H259537   2.883   5.519   2.446  1.1804  0.8945 -0.6709
12708TIP3   OH259538   5.721   1.821  12.892  0.0765  0.4390  0.2970
12708TIP3    H159539   5.786   1.892  12.890  1.8771 -1.1269 -0.0210
12708TIP3    H259540   5.688   1.820  12.981  0.7404  1.0629  0.5576
12709TIP3   OH259541   2.706   0.680  13.349  0.5729 -0.5527  0.0143
12709TIP3    H159542   2.721   0.632  13.430 -0.6410 -0.3295  0.3833
12709TIP3    H259543   2.753   0.762  13.361 -1.3641  0.4342  1.4454
12710TIP3   OH259544   0.548   5.164   2.946  0.7164  0.1987 -0.7493
12710TIP3    H159545   0.631   5.166   2.898  0.1869  1.3257 -1.6411
12710TIP3    H259546   0.572   5.187   3.036  1.8689 -2.8690 -0.1213
12711TIP3   OH259547   0.140   4.580  14.912  0.0699  0.2132  0.1417
12711TIP3    H159548   0.219   4.629  14.888  0.6225 -0.4884  0.4438
12711TIP3    H259549   0.131   4.514  14.844  0.9950 -1.0647  1.2005
12712TIP3   OH259550   5.348   5.546   5.201 -0.2011  0.0145  0.0358
12712TIP3    H159551   5.355   5.538   5.296  0.1580  0.0277  0.0110
12712TIP3    H259552   5.263   5.506   5.179  1.1754 -3.1695 -0.0224
12713TIP3   OH259553   2.789   1.759  10.636 -0.1513 -0.0673 -0.3510
12713TIP3    H159554   2.775   1.809  10.717 -0.9638 -0.5647 -0.1719
12713TIP3    H259555   2.726   1.796  10.574 -0.3463 -0.4648 -0.3944
12714TIP3   OH259556   5.128   6.822  14.875 -0.2863  0.0755  0.4019
12714TIP3    H159557   5.035   6.802  14.865 -0.3918  0.5476  0.3664
12714TIP3    H259558   5.160   6.759  14.939 -0.6454 -0.0605  0.4517
12715TIP3   OH259559   2.206   6.616   0.264 -0.1854  0.3129  0.3221
12715TIP3    H159560   2.229   6.553   0.196  0.3901 -1.7028  2.2601
12715TIP3    H259561   2.112   6.629   0.255  0.0505  0.9792 -1.5257
12716TIP3   OH259562   1.553   3.849  12.122  0.2178  0.5666 -0.5047
12716TIP3    H159563   1.627   3.800  12.158  0.2507  0.7640 -0.2996
12716TIP3    H259564   1.507   3.786  12.067 -0.3541 -0.0173  0.5986
12717TIP3   OH259565   1.199   4.231  15.128 -0.0759  0.4750 -0.2541
12717TIP3    H159566   1.185   4.284  15.207 -1.9957  0.3235 -0.4412
12717TIP3    H259567   1.180   4.142  15.155  0.7532  0.2002 -0.5406
12718TIP3   OH259568   1.192   1.910   4.504 -0.6151 -0.5243 -0.3263
12718TIP3    H159569   1.283   1.929   4.482 -0.7812 -1.5868 -2.1479
12718TIP3    H259570   1.197   1.858   4.585  0.1803  1.5989  1.0786
12719TIP3   OH259571   5.084   2.062  16.197 -0.3784  0.2519  0.5686
12719TIP3    H159572   5.163   2.017  16.169 -0.2430  0.1668  1.0903
12719TIP3    H259573   5.078   2.046  16.291 -2.3092 -1.7732  0.1826
12720TIP3   OH259574   1.414   6.309   3.085  0.1345  0.5860 -0.1839
12720TIP3    H159575   1.447   6.276   3.001 -0.3457  2.5303 -1.1776
12720TIP3    H259576   1.493   6.329   3.135  0.4256 -0.1016 -0.3559
12721TIP3   OH259577   2.202   6.558  11.195  0.0554  0.6199 -0.1772
12721TIP3    H159578   2.204   6.653  11.181 -0.1190  0.4065 -1.9356
12721TIP3    H259579   2.258   6.523  11.126  1.7939 -0.4808  1.6738
12722TIP3   OH259580   1.403   2.141   1.019 -0.0066  0.4481  0.1810
12722TIP3    H159581   1.492   2.160   0.990  0.3093  2.3314  2.1236
12722TIP3    H259582   1.388   2.050   0.994  1.8020  0.6151 -1.7312
12723TIP3   OH259583   1.025   0.072   1.456 -0.4999  0.0418  0.4104
12723TIP3    H159584   1.019   0.109   1.368 -0.8471  0.3708  0.5713
12723TIP3    H259585   1.047  -0.020   1.441  2.1948  0.6413  0.0459
12724TIP3   OH259586   4.857   3.985   3.217 -0.3084  0.9961  0.2153
12724TIP3    H159587   4.849   3.893   3.240  0.1698  1.1093  0.8964
12724TIP3    H259588   4.880   3.986   3.124  1.6439  0.3319  0.6451
12725TIP3   OH259589   1.122   1.488  16.437  0.3024  0.5016 -0.0829
12725TIP3    H159590   1.040   1.516  16.397  1.8110  1.2659 -2.8790
12725TIP3    H259591   1.160   1.569  16.471 -0.8016 -0.0885  2.8462
12726TIP3   OH259592   3.568   0.584   5.493  0.1881 -0.4697 -0.3509
12726TIP3    H159593   3.657   0.596   5.528  1.1121  1.1402 -2.9164
12726TIP3    H259594   3.511   0.598   5.568  2.0780 -0.5610  1.1928
12727TIP3   OH259595   3.984   3.610   4.319 -0.4518  0.0900 -0.0388
12727TIP3    H159596   3.937   3.623   4.401 -0.8029  2.4517 -0.5352
12727TIP3    H259597   4.055   3.674   4.322  1.7493 -2.1972 -0.0882
12728TIP3   OH259598   4.954   5.334  14.424 -0.3457 -0.4119 -1.1335
12728TIP3    H159599   4.868   5.354  14.461 -0.5362 -0.7576 -1.3800
12728TIP3    H259600   5.013   5.332  14.499 -0.5008  0.1078 -0.9994
12729TIP3   OH259601   5.161   2.363  14.555 -0.5262 -0.4382 -0.3526
12729TIP3    H159602   5.186   2.276  14.587  0.6992 -0.4785 -1.3335
12729TIP3    H259603   5.218   2.423  14.602  1.0157 -0.4675 -2.0457
12730TIP3   OH259604   4.771   2.062  12.753  0.4489  0.0931 -0.0668
12730TIP3    H159605   4.714   2.034  12.682  0.2388  0.9478 -0.2477
12730TIP3    H259606   4.850   2.009  12.743 -0.5765 -1.6418  0.6383
12731TIP3   OH259607   2.630   1.672  11.051  0.2584  0.2315  0.1995
12731TIP3    H159608   2.606   1.588  11.012  0.7386 -0.2646  0.9236
12731TIP3    H259609   2.713   1.695  11.008 -0.4315  0.8941 -0.7926
12732TIP3   OH259610   2.603   1.267  10.525  0.9394  0.8043  0.0231
12732TIP3    H159611   2.548   1.243  10.450  0.6317 -0.6562  0.6795
12732TIP3    H259612   2.685   1.298  10.486 -0.1035  2.4284 -0.9565
12733TIP3   OH259613   0.153   4.481   2.824  0.1759 -0.0842 -0.1874
12733TIP3    H159614   0.240   4.446   2.840  0.7147  1.6485  0.9544
12733TIP3    H259615   0.167   4.552   2.761 -0.5851 -0.5126 -0.8583
12734TIP3   OH259616   4.339   2.444   1.968 -0.2514  0.4656  0.1711
12734TIP3    H159617   4.350   2.510   1.899  0.0699 -0.2273 -0.4433
12734TIP3    H259618   4.266   2.477   2.020 -0.5502  0.9627 -0.5456
12735TIP3   OH259619   3.873   1.182   1.653  0.1616 -0.1329  0.3055
12735TIP3    H159620   3.955   1.217   1.686  0.1286 -0.0565  0.3079
12735TIP3    H259621   3.849   1.241   1.581 -0.2619  0.2779  0.7747
12736TIP3   OH259622   4.511   4.719  12.835 -0.7234  0.1287 -0.1068
12736TIP3    H159623   4.539   4.811  12.830  0.4967 -0.0536  1.9770
12736TIP3    H259624   4.550   4.687  12.917 -1.1361 -2.2577 -0.7741
12737TIP3   OH259625   6.637   3.426  14.929 -0.2000  0.2825 -0.1596
12737TIP3    H159626   6.616   3.475  15.008  0.3384  0.9420 -0.4142
12737TIP3    H259627   6.564   3.444  14.870 -0.5972 -0.2040  0.1771
12738TIP3   OH259628   2.624   2.324   5.607  0.2569  0.0014  1.1633
12738TIP3    H159629   2.533   2.294   5.610  0.6203 -1.1782  1.0245
12738TIP3    H259630   2.659   2.300   5.692  0.6421 -0.2544  0.9351
12739TIP3   OH259631   6.481   3.906  12.432 -0.3825  0.1597  0.4293
12739TIP3    H159632   6.466   3.929  12.340  3.1323 -2.9692 -1.2306
12739TIP3    H259633   6.553   3.962  12.460  0.5563 -0.8550  0.1577
12740TIP3   OH259634   2.910   2.868   3.181  0.2027 -0.2966 -0.5859
12740TIP3    H159635   2.820   2.901   3.172  1.0879  2.8883  0.7543
12740TIP3    H259636   2.912   2.828   3.267 -0.0754 -0.9957 -0.8973
12741TIP3   OH259637   0.726   4.943  12.123 -0.0972  0.1645 -0.2321
12741TIP3    H159638   0.668   4.875  12.088 -0.0717  0.5044 -0.9540
12741TIP3    H259639   0.800   4.895  12.160 -0.5177 -0.2414  0.0884
12742TIP3   OH259640   4.693   3.836   3.824  0.4223 -0.5453  0.1187
12742TIP3    H159641   4.628   3.827   3.754  1.0917 -0.2590 -0.5637
12742TIP3    H259642   4.777   3.822   3.780  0.8229 -0.9125  0.9855
12743TIP3   OH259643   0.992   1.523   1.394  0.4037 -0.2041 -0.5275
12743TIP3    H159644   0.939   1.469   1.336 -0.5605  0.5267 -0.3574
12743TIP3    H259645   0.929   1.580   1.439  1.3489  0.9643 -0.6067
12744TIP3   OH259646   5.379   4.710  13.313 -0.0377 -0.3131  0.3928
12744TIP3    H159647   5.468   4.739  13.296  0.1480 -0.8193  0.4982
12744TIP3    H259648   5.334   4.789  13.344  0.3191 -0.0127  0.1473
12745TIP3   OH259649   2.519   3.982   5.667  0.4508 -0.1602  0.1993
12745TIP3    H159650   2.609   3.957   5.690  1.0801  0.6419 -1.2592
12745TIP3    H259651   2.483   3.904   5.626  1.5435  0.3980 -1.9812
12746TIP3   OH259652   3.685   0.565  15.345  0.0203 -0.0787 -0.4518
12746TIP3    H159653   3.760   0.622  15.331 -0.4593  0.4567 -0.8841
12746TIP3    H259654   3.722   0.485  15.383  0.5164  1.0949  1.6339
12747TIP3   OH259655   6.782   2.415   1.329 -0.2400 -0.2004 -0.5573
12747TIP3    H159656   6.784   2.417   1.425 -0.3133  0.0693 -0.5620
12747TIP3    H259657   6.824   2.332   1.307  1.6827  0.6709 -0.3447
12748TIP3   OH259658   2.100   3.973   2.466 -0.0807  0.7300  0.9954
12748TIP3    H159659   2.010   3.943   2.461 -0.2063  0.6826  2.8967
12748TIP3    H259660   2.106   4.041   2.399 -0.7629 -1.0313 -0.9610
12749TIP3   OH259661   6.544   3.517  10.632  0.2804  0.0266 -0.0843
12749TIP3    H159662   6.633   3.498  10.659  0.0716  0.9057  1.3465
12749TIP3    H259663   6.489   3.457  10.682 -0.0660  1.1517  0.9410
12750TIP3   OH259664   4.714   4.318   2.999 -0.4875 -0.2360  0.4633
12750TIP3    H159665   4.701   4.253   2.931 -1.5312 -0.3619  0.7686
12750TIP3    H259666   4.628   4.327   3.041 -0.1816  0.7953  0.9028
12751TIP3   OH259667   6.751   6.064  12.718 -0.1072 -0.1135 -0.4059
12751TIP3    H159668   6.683   6.026  12.774 -0.6250  1.4262  0.0843
12751TIP3    H259669   6.812   5.993  12.701 -0.6271 -0.9525  1.0752
12752TIP3   OH259670   6.708   5.910   4.348 -0.2458  0.0421 -0.1574
12752TIP3    H159671   6.691   5.881   4.259  3.0388 -0.4821 -0.7500
12752TIP3    H259672   6.663   5.994   4.356 -1.0857 -0.1902 -2.0863
12753TIP3   OH259673   4.203   4.827   5.260  0.4837  0.5130  0.1128
12753TIP3    H159674   4.189   4.788   5.347 -0.1730  0.3874 -0.0450
12753TIP3    H259675   4.115   4.853   5.231  0.5499 -0.3808 -0.9587
12754TIP3   OH259676   5.109   3.668   6.041  0.1733  0.0448  0.4032
12754TIP3    H159677   5.159   3.749   6.037 -0.1573  0.2033 -1.7649
12754TIP3    H259678   5.038   3.686   6.102  0.8669  0.9332  0.9575
12755TIP3   OH259679   0.045   6.304   4.673 -0.1901 -0.0104 -0.2141
12755TIP3    H159680   0.064   6.279   4.583 -0.6374 -1.3876  0.0522
12755TIP3    H259681  -0.014   6.237   4.705 -1.1996  1.2490  0.6701
12756TIP3   OH259682   6.086   4.811   1.397  0.2988  0.1997  0.3641
12756TIP3    H159683   6.117   4.749   1.331  1.8963  2.1761 -0.8925
12756TIP3    H259684   6.165   4.832   1.448 -0.5593 -0.0075  1.8282
12757TIP3   OH259685   6.092   5.136   3.145 -0.3969  0.6354 -0.4124
12757TIP3    H159686   6.107   5.078   3.070 -2.2488  1.9294 -1.8745
12757TIP3    H259687   6.179   5.149   3.183  0.4467 -0.8868 -1.6963
12758TIP3   OH259688   0.886   3.503   1.961 -0.6044  0.3373  0.4067
12758TIP3    H159689   0.958   3.459   2.006 -0.2572  0.4622 -0.0164
12758TIP3    H259690   0.887   3.466   1.872 -0.7475  0.6982  0.2539
12759TIP3   OH259691   3.514   0.985   3.239  0.3291  0.4348  0.5307
12759TIP3    H159692   3.455   0.923   3.197  0.5524  1.4178 -1.3764
12759TIP3    H259693   3.581   0.931   3.280 -0.8505 -0.6349  1.0992
12760TIP3   OH259694   4.399   1.463  13.040 -0.7754  0.3929  0.2631
12760TIP3    H159695   4.359   1.379  13.018 -1.5708  1.2963 -2.0146
12760TIP3    H259696   4.481   1.464  12.992  0.0029  0.3033  1.5508
12761TIP3   OH259697   2.140   1.762  14.902 -0.1550  0.2733 -0.1608
12761TIP3    H159698   2.107   1.725  14.820  0.5941 -0.1178 -0.2957
12761TIP3    H259699   2.235   1.751  14.897 -0.0936  0.2824  0.7360
12762TIP3   OH259700   2.553   6.388  13.737 -0.0359 -0.1859 -0.2097
12762TIP3    H159701   2.616   6.419  13.803 -0.6681  1.2595 -0.2557
12762TIP3    H259702   2.552   6.293  13.749  0.5185 -0.0416  1.2717
12763TIP3   OH259703   3.731   0.108   4.340  0.5643  0.3660 -0.5397
12763TIP3    H159704   3.792   0.131   4.411  0.1040 -0.3205  0.0910
12763TIP3    H259705   3.678   0.186   4.327  1.3872  0.8760 -0.8984
12764TIP3   OH259706   5.696   6.017   1.976 -0.3643 -0.7090 -0.6631
12764TIP3    H159707   5.716   5.925   1.991  0.9283 -0.0509  2.3533
12764TIP3    H259708   5.782   6.060   1.974 -0.9682  0.5219 -1.6494
12765TIP3   OH259709   4.563   4.495  13.923 -0.2935  0.4641  0.0031
12765TIP3    H159710   4.650   4.503  13.885 -0.4388 -0.0334 -0.4500
12765TIP3    H259711   4.564   4.553  13.999  1.3449 -1.6008  1.6518
12766TIP3   OH259712   1.175   3.866   5.826 -0.0236  0.4233  0.2054
12766TIP3    H159713   1.099   3.924   5.816 -1.0675 -0.9327  0.1200
12766TIP3    H259714   1.232   3.889   5.752 -0.3177  1.4444  0.2714
12767TIP3   OH259715   6.254   1.719  16.568 -0.0050  0.1980 -0.2803
12767TIP3    H159716   6.270   1.811  16.548  0.7265 -0.1476 -1.3547
12767TIP3    H259717   6.264   1.673  16.484 -0.7239 -0.8147  0.1658
12768TIP3   OH259718   0.661   4.930  12.452  0.8023 -0.4315 -0.2663
12768TIP3    H159719   0.588   4.961  12.399 -1.4180  2.8365  4.0589
12768TIP3    H259720   0.628   4.852  12.495  0.6550 -0.1630  0.1088
12769TIP3   OH259721   4.776   6.257   5.386 -0.0914  0.0244 -0.5382
12769TIP3    H159722   4.770   6.253   5.482  1.8775 -0.1950 -0.3871
12769TIP3    H259723   4.733   6.340   5.363  0.1823  0.5120  0.6173
12770TIP3   OH259724   2.192   3.039   3.457 -0.6292  0.7394 -0.0800
12770TIP3    H159725   2.269   3.089   3.484 -0.6819  1.1361 -0.6498
12770TIP3    H259726   2.166   3.078   3.373 -1.6347  0.8066  0.2516
12771TIP3   OH259727   3.040   6.054  12.499  0.1548 -0.1868  0.2877
12771TIP3    H159728   2.986   6.131  12.482  0.9912  0.4949  0.6597
12771TIP3    H259729   3.082   6.035  12.415  0.4121  0.1429  0.3366
12772TIP3   OH259730   6.670   2.762  13.590  0.0531  0.3254 -0.1428
12772TIP3    H159731   6.581   2.753  13.624  0.4356 -1.7749  0.4100
12772TIP3    H259732   6.726   2.726  13.659  1.0495 -1.6845 -1.9156
12773TIP3   OH259733   4.553   3.642   1.263 -0.3160 -0.5816 -0.4319
12773TIP3    H159734   4.499   3.720   1.252  0.7491  0.0735 -1.1952
12773TIP3    H259735   4.600   3.634   1.180 -1.2913 -2.7488 -0.8495
12774TIP3   OH259736   4.422   4.813  16.363  0.3032  0.2156 -0.2981
12774TIP3    H159737   4.399   4.904  16.379  0.4801  0.0610  0.9270
12774TIP3    H259738   4.339   4.766  16.365  0.3730  0.1224  0.7726
12775TIP3   OH259739   5.508   4.307   1.356 -0.1476  0.6319  0.0335
12775TIP3    H159740   5.534   4.342   1.271 -1.6795  1.6481 -0.0678
12775TIP3    H259741   5.570   4.237   1.373  0.3493  0.5572 -1.8109
12776TIP3   OH259742   2.174   6.469   1.955  0.2273 -0.0282 -0.0132
12776TIP3    H159743   2.226   6.547   1.938 -0.8048  0.4958 -0.8688
12776TIP3    H259744   2.083   6.498   1.947 -0.2046 -0.9895  1.1333
12777TIP3   OH259745   6.781   6.146  14.678  0.7181  0.3635  0.6952
12777TIP3    H159746   6.829   6.072  14.716  0.3094 -0.4951 -0.4151
12777TIP3    H259747   6.846   6.191  14.623  0.5433 -0.1347  0.0803
12778TIP3   OH259748   3.064   5.994   0.192 -0.6768  0.2957 -0.9283
12778TIP3    H159749   3.053   5.926   0.124 -1.5597  0.4384 -0.9430
12778TIP3    H259750   3.090   5.945   0.270 -3.6695 -0.4579 -0.2469
12779TIP3   OH259751   1.439   2.184   2.220 -0.5345 -0.1178  0.2134
12779TIP3    H159752   1.506   2.144   2.275 -1.1854 -1.2397  0.2179
12779TIP3    H259753   1.377   2.223   2.282  0.4862  1.6452  0.2073
12780TIP3   OH259754   1.047   5.954  13.127  0.2506 -0.8944  0.1074
12780TIP3    H159755   1.043   6.011  13.203 -2.1840 -1.7856  0.7265
12780TIP3    H259756   1.006   6.005  13.057  1.0323 -0.6852 -0.2093
12781TIP3   OH259757   3.937   2.262   3.755  0.1278  0.1083 -0.1198
12781TIP3    H159758   3.972   2.173   3.762 -0.3937 -0.0245  0.9650
12781TIP3    H259759   3.999   2.308   3.698  0.9291 -0.6744  0.1002
12782TIP3   OH259760   6.706   2.691  11.186 -0.4694  0.3478  0.1281
12782TIP3    H159761   6.795   2.717  11.207  0.3746 -1.8582 -0.4289
12782TIP3    H259762   6.664   2.675  11.271 -0.0854  0.6325  0.3731
12783TIP3   OH259763   2.830   4.647   4.815  0.2326 -0.1428  0.2858
12783TIP3    H159764   2.872   4.564   4.839  1.6151  0.0993 -1.1839
12783TIP3    H259765   2.872   4.713   4.870  0.5657 -0.1392  0.0274
12784TIP3   OH259766   0.875   0.338   1.917 -0.8631  0.4172 -0.4029
12784TIP3    H159767   0.850   0.423   1.880 -2.3898 -0.5447 -1.7030
12784TIP3    H259768   0.821   0.275   1.870 -1.3509 -1.0982  2.0191
12785TIP3   OH259769   2.117   0.561   4.215  0.0946 -0.3171 -0.5597
12785TIP3    H159770   2.135   0.566   4.121  0.3111 -1.7106 -0.6153
12785TIP3    H259771   2.178   0.495   4.248  1.5983  1.7260  0.9938
12786TIP3   OH259772   0.118   5.557  11.344  0.0461 -0.4467  0.0425
12786TIP3    H159773   0.067   5.637  11.352  1.1330  0.2055  0.7680
12786TIP3    H259774   0.111   5.515  11.430 -1.2720 -1.6352 -0.6024
12787TIP3   OH259775   6.778   0.579   4.983  0.0018 -0.4759  0.4207
12787TIP3    H159776   6.781   0.663   5.029 -2.5086  0.1196 -0.3255
12787TIP3    H259777   6.772   0.513   5.052  0.1328  0.1011  0.9872
12788TIP3   OH259778   0.149   3.774  14.587  0.5766 -0.7866 -0.7585
12788TIP3    H159779   0.233   3.728  14.589  0.4762 -1.1079 -2.5208
12788TIP3    H259780   0.171   3.866  14.599  0.8960 -1.1129  1.5350
12789TIP3   OH259781   0.400   5.093   2.522 -0.8625  0.4856  0.3346
12789TIP3    H159782   0.373   5.073   2.611 -1.2202 -1.5358 -0.1763
12789TIP3    H259783   0.349   5.033   2.467 -0.6493  1.6713 -1.2438
12790TIP3   OH259784   1.342   3.896   4.283  0.1872 -0.0670 -0.0935
12790TIP3    H159785   1.349   3.801   4.287  0.1476 -0.0840 -0.4118
12790TIP3    H259786   1.429   3.928   4.307 -0.3805 -0.1190  2.3634
12791TIP3   OH259787   5.436   2.923  13.260 -0.4326  0.3179  0.1668
12791TIP3    H159788   5.431   2.861  13.333 -1.1138 -0.4010 -0.4709
12791TIP3    H259789   5.528   2.924  13.236 -0.2538  0.3156  0.8314
12792TIP3   OH259790   5.131   1.639   4.603  0.1359 -0.3134 -0.6098
12792TIP3    H159791   5.221   1.654   4.631 -0.0151 -1.4219  0.5833
12792TIP3    H259792   5.086   1.610   4.683 -0.8745 -1.3596 -1.5297
12793TIP3   OH259793   2.365   2.269   5.627 -0.6226  0.0063  0.3809
12793TIP3    H159794   2.295   2.286   5.690  0.2606 -2.3840  2.1484
12793TIP3    H259795   2.392   2.179   5.644  1.1504 -0.0196 -2.0117
12794TIP3   OH259796   5.452   4.256  11.468  0.1184 -0.5799  0.5398
12794TIP3    H159797   5.361   4.227  11.468  0.4569 -1.8113 -1.0410
12794TIP3    H259798   5.467   4.290  11.556 -1.9773  0.0567  0.7082
12795TIP3   OH259799   4.167   1.616   5.801  0.0309 -0.1583  0.0174
12795TIP3    H159800   4.249   1.612   5.753 -0.3646 -2.2200 -0.6076
12795TIP3    H259801   4.178   1.687   5.864  1.7542  0.4934 -0.9856
12796TIP3   OH259802   4.785   5.557  15.080 -0.2082  0.3877  0.1311
12796TIP3    H159803   4.800   5.538  15.173 -1.2635 -0.8110  0.0845
12796TIP3    H259804   4.691   5.571  15.073 -0.2781 -0.4851 -0.9057
12797TIP3   OH259805   5.299   2.297   5.580 -0.0791 -0.1778 -0.3534
12797TIP3    H159806   5.362   2.225   5.587 -1.4008 -1.3220  0.3107
12797TIP3    H259807   5.216   2.258   5.605 -0.8907  1.5363 -0.2494
12798TIP3   OH259808   4.725   2.449  15.769  0.0462  0.7873  0.0987
12798TIP3    H159809   4.657   2.513  15.748  0.9934  1.3375 -1.4431
12798TIP3    H259810   4.755   2.417  15.684  0.5985 -0.6652  0.7979
12799TIP3   OH259811   0.523   2.926   3.738 -0.4970 -0.6457  0.2017
12799TIP3    H159812   0.466   2.986   3.787  1.0692  0.6263  0.5250
12799TIP3    H259813   0.492   2.933   3.647 -0.4657  0.5304  0.2625
12800TIP3   OH259814   5.778   2.671  11.070  0.8996  0.0923 -0.2690
12800TIP3    H159815   5.701   2.717  11.036  0.4113  0.2363  0.9996
12800TIP3    H259816   5.747   2.582  11.087  1.3922 -0.2461 -1.0690
12801TIP3   OH259817   4.231   5.405  12.435  0.1744  0.0072  0.0383
12801TIP3    H159818   4.315   5.420  12.393  0.8401 -1.5575  0.7409
12801TIP3    H259819   4.235   5.456  12.516  1.7930 -2.4817  1.6552
12802TIP3   OH259820   1.562   4.237   0.570 -0.5825  0.9364  0.3029
12802TIP3    H159821   1.625   4.301   0.536 -0.4468 -0.0301 -1.3529
12802TIP3    H259822   1.592   4.220   0.660  3.6456 -1.9576 -1.3398
12803TIP3   OH259823   4.378   5.758   5.849 -0.0862  0.0759 -0.5998
12803TIP3    H159824   4.396   5.664   5.857 -1.2106 -0.2146 -1.3146
12803TIP3    H259825   4.444   5.799   5.904  1.3950 -1.0483 -1.4511
12804TIP3   OH259826   2.433   2.708   4.828 -0.6550  0.7944  0.7986
12804TIP3    H159827   2.446   2.615   4.809  0.2282  1.1529 -0.5768
12804TIP3    H259828   2.474   2.721   4.913  0.7511  0.2365  0.2392
12805TIP3   OH259829   0.409   6.515   6.082 -0.0069 -0.8409  0.1303
12805TIP3    H159830   0.426   6.439   6.026  3.0925 -0.2230  0.0692
12805TIP3    H259831   0.493   6.532   6.125 -0.9135  1.9088  0.9782
12806TIP3   OH259832   6.657   0.101  13.221 -0.1837 -0.0727  0.2765
12806TIP3    H159833   6.660   0.065  13.309 -0.7188 -0.4796  0.1354
12806TIP3    H259834   6.703   0.037  13.167  1.8511  1.0893  0.5392
12807TIP3   OH259835   2.086   1.284  16.153 -0.4931 -0.9725 -0.4509
12807TIP3    H159836   2.164   1.246  16.115  0.7331  1.9339 -1.1412
12807TIP3    H259837   2.051   1.342  16.085  0.2080  2.2768  1.6931
12808TIP3   OH259838   0.622   5.319   1.562  0.0507  0.4279 -0.1045
12808TIP3    H159839   0.597   5.361   1.644  0.0163  1.3881 -0.5797
12808TIP3    H259840   0.545   5.270   1.535 -0.0156  0.2943  0.3211
12809TIP3   OH259841   3.630   0.415   5.862 -0.5059 -0.3997  0.0851
12809TIP3    H159842   3.597   0.393   5.949 -1.5588 -0.3990 -0.2882
12809TIP3    H259843   3.723   0.394   5.865 -0.8133 -1.7996  0.7459
12810TIP3   OH259844   5.950   1.664  12.681  0.0342 -1.0926 -0.2175
12810TIP3    H159845   5.998   1.746  12.695 -1.0098 -0.7142  1.4077
12810TIP3    H259846   5.858   1.688  12.686 -0.3029 -2.2140 -0.6850
12811TIP3   OH259847   0.925   0.988   2.163 -0.5997 -0.8011 -0.2683
12811TIP3    H159848   0.934   0.917   2.226  2.9014 -2.4803 -2.3296
12811TIP3    H259849   0.990   1.053   2.190 -1.7348  0.3125 -0.0872
12812TIP3   OH259850   2.846   4.030   1.621 -0.3420  0.2163  0.0486
12812TIP3    H159851   2.765   4.079   1.631  0.1331  1.0434 -0.0756
12812TIP3    H259852   2.886   4.031   1.707 -1.7723 -2.6404  0.8895
12813TIP3   OH259853   4.628   6.701   1.105 -0.9994 -0.4130  0.0744
12813TIP3    H159854   4.706   6.645   1.100  0.0073  0.7934  1.3641
12813TIP3    H259855   4.587   6.676   1.188 -1.6302 -0.5772 -0.2817
12814TIP3   OH259856   5.908   3.464   3.448  0.9946 -0.1826  0.2357
12814TIP3    H159857   5.849   3.404   3.492 -0.8628  0.2527 -1.5091
12814TIP3    H259858   5.993   3.450   3.490 -0.1186 -1.5118  2.1871
12815TIP3   OH259859   6.588   6.606  16.526  0.2573 -0.2162  0.3696
12815TIP3    H159860   6.643   6.603  16.604 -0.9337 -0.7862  1.2232
12815TIP3    H259861   6.561   6.697  16.519 -1.0593 -0.4490  1.7098
12816TIP3   OH259862   6.757   5.821   5.100 -0.2382  0.2393  0.1151
12816TIP3    H159863   6.675   5.778   5.076  0.5747 -1.7593  0.7267
12816TIP3    H259864   6.816   5.804   5.026  0.2656 -0.1755  0.6089
12817TIP3   OH259865   3.961   3.707   0.680 -0.0887  0.0498  0.0959
12817TIP3    H159866   3.934   3.639   0.742 -1.5605 -0.1314 -0.6976
12817TIP3    H259867   3.956   3.788   0.730  1.8420 -0.3869  1.1034
12818TIP3   OH259868   6.035   0.930   1.463 -0.6775  0.1360 -0.0456
12818TIP3    H159869   6.072   0.947   1.376 -1.3510  0.6749 -0.2363
12818TIP3    H259870   5.980   1.007   1.480 -0.9724 -0.2233  0.6273
12819TIP3   OH259871   5.175   5.202  15.543 -0.3982 -0.5182 -0.6838
12819TIP3    H159872   5.202   5.213  15.452  0.0755 -1.7110 -0.7061
12819TIP3    H259873   5.128   5.119  15.545  1.3570 -1.5418  0.5101
12820TIP3   OH259874   5.443   6.457  14.347 -0.2541  0.1512  0.6193
12820TIP3    H159875   5.466   6.543  14.383 -1.2972  0.9967 -0.6724
12820TIP3    H259876   5.524   6.427  14.305 -0.1545  0.9842  0.1812
12821TIP3   OH259877   2.024   4.143   3.052  0.2150  0.0375 -0.1328
12821TIP3    H159878   2.033   4.155   2.957 -1.1767  0.3303 -0.2593
12821TIP3    H259879   1.929   4.143   3.066  0.3990  1.6809  1.4487
12822TIP3   OH259880   3.867   1.782  14.547 -0.1565 -1.0840 -0.1296
12822TIP3    H159881   3.845   1.827  14.465 -0.5123  0.2812  0.6878
12822TIP3    H259882   3.853   1.848  14.615  2.1403 -1.5206  0.8525
12823TIP3   OH259883   2.395   5.569  16.466  0.2713  0.4113  0.0799
12823TIP3    H159884   2.465   5.541  16.407 -0.4626  2.6844 -2.0661
12823TIP3    H259885   2.439   5.584  16.550  1.5576 -1.9609 -0.0860
12824TIP3   OH259886   0.218   5.399   1.315 -0.3673  0.5550 -0.1623
12824TIP3    H159887   0.148   5.350   1.357 -1.1215  1.1735 -0.6676
12824TIP3    H259888   0.222   5.482   1.363 -1.2175  1.2545 -1.2619
12825TIP3   OH259889   0.064   1.989   0.230 -0.3613 -0.1239 -0.0424
12825TIP3    H159890   0.064   1.894   0.233  0.7859 -0.1066  1.4209
12825TIP3    H259891  -0.029   2.013   0.226 -0.6713 -1.2784 -0.1500
12826TIP3   OH259892   3.643   4.538   4.683 -0.4285  0.1135 -0.3531
12826TIP3    H159893   3.649   4.566   4.592  3.2324 -0.8827 -0.5666
12826TIP3    H259894   3.711   4.587   4.728 -2.7065  1.2250  2.1463
12827TIP3   OH259895   2.034   5.914  12.515 -0.0037  0.1144 -0.3819
12827TIP3    H159896   2.112   5.958  12.548  0.8639  0.0019 -2.1787
12827TIP3    H259897   2.053   5.821  12.523 -0.5808  0.0566  0.5279
12828TIP3   OH259898   1.345   0.769   2.095 -0.1316 -0.1627  0.5403
12828TIP3    H159899   1.310   0.691   2.053 -0.1611  0.8149 -1.3241
12828TIP3    H259900   1.276   0.796   2.156 -0.9443 -0.4961 -0.2135
12829TIP3   OH259901   0.850   2.249  10.759  0.5829 -0.8127  0.0714
12829TIP3    H159902   0.768   2.248  10.710 -0.0250 -2.6260  1.0152
12829TIP3    H259903   0.896   2.327  10.728  0.9718 -2.5240 -4.5438
12830TIP3   OH259904   4.353   2.180  16.634  0.1283  0.4465 -0.2171
12830TIP3    H159905   4.418   2.119  16.671  0.6285  2.2361  2.1418
12830TIP3    H259906   4.396   2.217  16.557  1.4227  0.5946  0.5332
12831TIP3   OH259907   5.031   2.527   4.073 -0.3976  0.0076 -0.3015
12831TIP3    H159908   4.971   2.568   4.135  0.8913 -0.8306  1.5897
12831TIP3    H259909   5.070   2.454   4.122  1.7513  0.1993 -1.6097
12832TIP3   OH259910   6.391   3.752  15.069  0.3294 -0.4885 -0.4789
12832TIP3    H159911   6.321   3.694  15.038 -0.5271 -0.0496  0.5635
12832TIP3    H259912   6.450   3.694  15.118 -0.6403 -0.4816  0.7520
12833TIP3   OH259913   3.031   2.224   1.028  0.2050  0.1684 -0.0490
12833TIP3    H159914   3.079   2.142   1.035  2.7398  1.6247  0.9349
12833TIP3    H259915   3.013   2.234   0.935  0.8524 -0.9582 -0.3029
12834TIP3   OH259916   4.248   0.918   3.746 -0.3307  0.7332 -0.5579
12834TIP3    H159917   4.207   0.921   3.660 -0.5544  1.7078 -0.4288
12834TIP3    H259918   4.337   0.949   3.731  0.2047 -0.8378 -0.7403
12835TIP3   OH259919   5.193   4.441  10.164 -0.1795 -0.3414  0.2667
12835TIP3    H159920   5.164   4.360  10.206  3.8391 -2.6147 -0.7854
12835TIP3    H259921   5.156   4.438  10.076 -0.8637 -0.5129  0.5588
12836TIP3   OH259922   2.652   5.033  12.642  0.7514  0.3824 -0.4261
12836TIP3    H159923   2.718   5.092  12.605  0.9469  0.8600  0.6315
12836TIP3    H259924   2.698   4.951  12.657  1.1474  0.7403  0.3878
12837TIP3   OH259925   6.641   0.111  16.299 -0.3391 -0.0055 -0.1849
12837TIP3    H159926   6.565   0.169  16.314 -0.8386 -0.6696 -0.1191
12837TIP3    H259927   6.691   0.156  16.231  0.0472  1.2236  0.8548
12838TIP3   OH259928   1.199   4.457   1.642  0.2022  0.3198 -0.3480
12838TIP3    H159929   1.273   4.510   1.673  0.4310 -1.2065  1.9435
12838TIP3    H259930   1.121   4.502   1.677  0.0757  1.2836 -1.7848
12839TIP3   OH259931   4.519   1.588  12.459 -0.2786 -0.5627  0.3258
12839TIP3    H159932   4.553   1.534  12.388  1.6008 -0.9774  1.4348
12839TIP3    H259933   4.441   1.630  12.424 -0.1352 -1.7498 -1.5230
12840TIP3   OH259934   3.601   2.225   3.329 -0.7136 -0.0234 -0.7087
12840TIP3    H159935   3.584   2.255   3.418 -0.1674  0.1032 -0.6469
12840TIP3    H259936   3.694   2.204   3.327  0.1580  3.2247 -2.1575
12841TIP3   OH259937   5.734   5.000   0.945 -0.6021  0.1196 -0.9429
12841TIP3    H159938   5.803   4.937   0.924 -1.3548 -0.5396 -1.4996
12841TIP3    H259939   5.697   5.023   0.860 -1.2289  0.2765 -0.6312
12842TIP3   OH259940   2.863   5.735  13.619  0.0349 -0.6431  0.5091
12842TIP3    H159941   2.852   5.641  13.633 -1.1065 -0.2697  2.4442
12842TIP3    H259942   2.803   5.756  13.547  0.0016 -1.3178  0.3370
12843TIP3   OH259943   2.105   5.278   5.001 -0.1715  0.1377 -0.0140
12843TIP3    H159944   2.068   5.191   5.011 -1.5587  0.8418  1.6913
12843TIP3    H259945   2.131   5.303   5.090  1.5902  0.9148 -0.6923
12844TIP3   OH259946   5.636   4.463   1.152 -0.5412  0.2381 -0.1071
12844TIP3    H159947   5.588   4.525   1.097 -0.3970  0.0124 -0.4874
12844TIP3    H259948   5.691   4.413   1.091  1.0828  1.2880  0.4147
12845TIP3   OH259949   2.001   1.762  12.135  0.0345  0.1215  0.0168
12845TIP3    H159950   2.026   1.711  12.212 -0.4780  1.6177  1.2219
12845TIP3    H259951   2.004   1.853  12.164  0.1337  0.7542 -1.8335
12846TIP3   OH259952   5.788   5.628  13.969 -0.1553  0.2516  0.4656
12846TIP3    H159953   5.806   5.681  14.046 -0.1191  1.8306 -0.5708
12846TIP3    H259954   5.772   5.692  13.899  2.9740 -0.9981 -1.6195
12847TIP3   OH259955   4.336   2.059   4.451  0.2403  0.5483 -0.0870
12847TIP3    H159956   4.353   2.018   4.367  0.2806  1.4564 -0.5419
12847TIP3    H259957   4.294   2.142   4.429 -0.1564  0.6006  0.8092
12848TIP3   OH259958   3.859   6.261  15.428  0.1942 -0.0887  0.9305
12848TIP3    H159959   3.766   6.282  15.414  0.2386 -0.1322  0.5585
12848TIP3    H259960   3.894   6.338  15.473 -0.0768 -0.1759  1.3014
12849TIP3   OH259961   5.808   5.399  14.528 -0.2370  0.6757  0.3443
12849TIP3    H159962   5.833   5.372  14.616  1.3177 -1.3041 -0.5812
12849TIP3    H259963   5.882   5.453  14.498 -0.0582  0.1341 -0.2149
12850TIP3   OH259964   0.802   3.587  13.617 -0.0579  0.1672 -0.1432
12850TIP3    H159965   0.829   3.504  13.657 -1.0577 -0.3329 -0.4791
12850TIP3    H259966   0.761   3.636  13.689 -0.5968 -0.1529 -0.2286
12851TIP3   OH259967   1.100   1.217  12.569 -0.0337 -0.2816  0.4552
12851TIP3    H159968   1.011   1.235  12.601  0.5565  0.2548  1.8665
12851TIP3    H259969   1.116   1.126  12.594  0.4046  0.1195  1.6959
12852TIP3   OH259970   3.756   0.456  11.930 -0.1292  0.7217  0.2373
12852TIP3    H159971   3.690   0.522  11.908 -0.0609  0.4448 -0.8527
12852TIP3    H259972   3.812   0.451  11.852 -0.7171 -1.3080 -0.1036
12853TIP3   OH259973   1.487   4.872   0.071 -0.4724 -0.1995  0.0228
12853TIP3    H159974   1.543   4.807   0.028  0.1374 -0.1541  0.7174
12853TIP3    H259975   1.513   4.868   0.163 -0.3569  1.1051  0.0636
12854TIP3   OH259976   6.292   0.054  12.728  0.0988 -0.2853 -0.6153
12854TIP3    H159977   6.386   0.066  12.721  0.0839 -0.3729 -0.9738
12854TIP3    H259978   6.268   0.001  12.652  0.2383 -3.0960  1.1733
12855TIP3   OH259979   1.847   1.812  16.122 -0.4439  0.6796  0.1565
12855TIP3    H159980   1.918   1.752  16.142  0.0061  1.5543  1.2808
12855TIP3    H259981   1.769   1.770  16.158 -0.3575  0.1446 -0.2695
12856TIP3   OH259982   1.675   0.823   3.676  0.1935 -0.4533 -0.2811
12856TIP3    H159983   1.670   0.731   3.650 -0.8620 -0.3145 -0.6387
12856TIP3    H259984   1.593   0.839   3.724  0.8856  0.0049  0.7870
12857TIP3   OH259985   1.032   0.465   0.675  0.2813 -0.5295 -0.2831
12857TIP3    H159986   0.952   0.498   0.715  0.5299  0.8923 -0.9045
12857TIP3    H259987   1.074   0.542   0.637  1.9952 -1.2237  0.0992
12858TIP3   OH259988   2.544   1.574  16.056 -0.0738  0.0603  0.0561
12858TIP3    H159989   2.584   1.516  15.990  2.4851 -0.0033  1.5041
12858TIP3    H259990   2.517   1.515  16.126 -0.5038  0.3320  0.1200
12859TIP3   OH259991   4.292   2.260   0.451 -0.1780 -0.6964  0.0964
12859TIP3    H159992   4.233   2.196   0.491  1.9617 -2.4742  0.6575
12859TIP3    H259993   4.268   2.260   0.358 -1.1069 -1.3334  0.3250
12860TIP3   OH259994   5.127   6.749   4.809  0.0982  0.0522  0.1157
12860TIP3    H159995   5.102   6.700   4.731  0.8612 -0.1175 -0.0288
12860TIP3    H259996   5.045   6.758   4.859 -0.3834  0.1129 -0.6632
12861TIP3   OH259997   0.792   6.584   4.059 -0.0297  0.2565 -0.5419
12861TIP3    H159998   0.813   6.492   4.048 -1.1209 -0.3040  1.4537
12861TIP3    H259999   0.790   6.597   4.154 -0.9855  2.0666 -0.7564
12862TIP3   OH260000   3.127   2.815  12.847  0.2613  0.6812  0.3143
12862TIP3    H160001   3.111   2.788  12.937 -1.1767 -2.4314 -0.7428
12862TIP3    H260002   3.105   2.908  12.846 -0.7151  0.5643  2.9382
12863TIP3   OH260003   5.080   6.582   1.030 -0.6778  0.3820 -0.3046
12863TIP3    H160004   5.015   6.513   1.043 -1.3475  1.5079  3.7095
12863TIP3    H260005   5.031   6.656   0.995 -1.0383  0.3921  0.2097
12864TIP3   OH260006   1.629   5.007  13.822 -0.3993 -0.3068 -0.2474
12864TIP3    H160007   1.583   5.077  13.867 -0.0971 -0.6012  0.5483
12864TIP3    H260008   1.572   4.931  13.831 -0.4942 -0.2870 -0.6656
12865TIP3   OH260009   6.400   5.157  12.438  0.0622 -0.3596  0.1223
12865TIP3    H160010   6.439   5.108  12.510  0.6506  1.5457  1.1764
12865TIP3    H260011   6.321   5.196  12.475 -0.6160 -0.8101 -0.8041
12866TIP3   OH260012   5.238   0.900  13.633  0.1014  0.8330  0.2377
12866TIP3    H160013   5.254   0.945  13.716  1.8294  2.0669 -0.6977
12866TIP3    H260014   5.299   0.826  13.634 -0.4045  0.4134  0.3729
12867TIP3   OH260015   4.350   3.299   5.972 -0.1785 -0.4614  0.7574
12867TIP3    H160016   4.374   3.215   5.931  1.1452 -0.9181  2.3447
12867TIP3    H260017   4.404   3.303   6.051  0.0656  2.0715  0.5500
12868TIP3   OH260018   2.880   1.062   3.487 -0.5318  0.0063  0.5718
12868TIP3    H160019   2.830   0.993   3.443  1.1646 -0.4796 -0.7279
12868TIP3    H260020   2.885   1.033   3.578  1.7544 -2.7210 -0.2705
12869TIP3   OH260021   2.370   2.204  15.769  0.6847  0.0151 -0.2915
12869TIP3    H160022   2.286   2.247  15.754  1.0756  1.9660  2.3109
12869TIP3    H260023   2.373   2.133  15.705 -2.3583  0.6510 -1.2962
12870TIP3   OH260024   6.724   2.009  11.891  0.2772 -0.2504  0.0712
12870TIP3    H160025   6.753   2.021  11.981  1.0676 -1.0198 -0.0654
12870TIP3    H260026   6.719   1.914  11.880 -2.5437 -0.1931  0.1360
12871TIP3   OH260027   6.411   5.027   2.213 -0.1043 -0.2534 -0.2509
12871TIP3    H160028   6.469   4.999   2.283 -0.1659  0.2639  0.0137
12871TIP3    H260029   6.345   4.958   2.206  1.5617 -1.7780 -1.7961
12872TIP3   OH260030   2.967   6.132   5.082  0.0174 -0.0963  0.1127
12872TIP3    H160031   3.041   6.074   5.100  1.3244  1.7123  0.8423
12872TIP3    H260032   2.917   6.132   5.163 -2.1715 -3.0655 -1.0572
12873TIP3   OH260033   6.591   1.667   9.590 -0.0294  0.0758  0.4364
12873TIP3    H160034   6.533   1.617   9.648 -2.6781  0.8757 -1.3107
12873TIP3    H260035   6.615   1.744   9.641  0.2057 -0.6792  1.4969
12874TIP3   OH260036   5.755   5.530   3.286  0.0721  0.0804 -0.2135
12874TIP3    H160037   5.800   5.610   3.311 -0.9950  1.1209 -1.4875
12874TIP3    H260038   5.823   5.474   3.250  0.8991  0.2264  1.0729
12875TIP3   OH260039   4.732   3.260   1.740 -0.3758  0.5375  0.2983
12875TIP3    H160040   4.791   3.334   1.727  2.2958 -1.6748 -1.3063
12875TIP3    H260041   4.715   3.260   1.834  1.6659  1.6953  0.7413
12876TIP3   OH260042   1.282   0.528  10.423 -0.3879  0.2814  0.0603
12876TIP3    H160043   1.229   0.484  10.490 -0.9171 -1.0744 -1.1772
12876TIP3    H260044   1.253   0.619  10.425  0.9659  0.7354  2.9384
12877TIP3   OH260045   1.487   0.169  10.596 -0.3299 -0.8007 -0.3522
12877TIP3    H160046   1.412   0.143  10.543 -0.6656 -1.6552  0.5023
12877TIP3    H260047   1.537   0.088  10.607 -1.1641 -1.0682  2.0250
12878TIP3   OH260048   0.566   3.517   5.431 -0.2641 -0.4053 -0.3571
12878TIP3    H160049   0.619   3.456   5.380  1.6292 -0.1961  1.2206
12878TIP3    H260050   0.529   3.463   5.502  0.6308  0.0540  0.4876
12879TIP3   OH260051   4.349   0.896   2.478 -0.2071  0.0632 -0.9040
12879TIP3    H160052   4.405   0.842   2.422  1.3596 -1.6406  2.0842
12879TIP3    H260053   4.380   0.880   2.567 -1.8703  3.4055  0.4783
12880TIP3   OH260054   2.121   5.132  15.273 -0.1685  0.5075 -0.2005
12880TIP3    H160055   2.193   5.187  15.245 -0.6738  0.3250 -1.9682
12880TIP3    H260056   2.044   5.166  15.226 -0.5204 -1.5454 -1.2199
12881TIP3   OH260057   2.762   5.327   5.128 -0.3682 -0.0775  0.2462
12881TIP3    H160058   2.816   5.249   5.117 -1.2495 -0.6119 -0.4716
12881TIP3    H260059   2.764   5.370   5.042 -0.8972  0.0066  0.2703
12882TIP3   OH260060   2.481   6.714   0.930 -0.4920  0.7846  0.1325
12882TIP3    H160061   2.392   6.750   0.926  0.2475  2.6734 -0.7047
12882TIP3    H260062   2.494   6.692   1.022 -1.8128  0.4980  0.2653
12883TIP3   OH260063   2.070   6.175  13.155 -0.0731 -0.9676  0.1202
12883TIP3    H160064   1.986   6.213  13.128 -0.4370 -1.0640  1.0802
12883TIP3    H260065   2.056   6.081  13.151  0.3929 -1.0062 -0.9168
12884TIP3   OH260066   3.761   5.214   6.118 -0.1938 -0.4616 -0.1747
12884TIP3    H160067   3.759   5.259   6.203 -1.6752  1.4327 -1.1340
12884TIP3    H260068   3.796   5.127   6.138  2.3339  0.8815  1.8754
12885TIP3   OH260069   4.286   2.996   3.343 -0.0462 -0.1259  0.0491
12885TIP3    H160070   4.252   2.921   3.392  0.2525 -0.9407 -0.9543
12885TIP3    H260071   4.225   3.006   3.270 -0.1183  0.6728  0.2033
12886TIP3   OH260072   3.598   3.649   0.613 -0.4305  0.5748 -0.6351
12886TIP3    H160073   3.687   3.616   0.605 -0.2423  0.8924  0.0813
12886TIP3    H260074   3.604   3.717   0.679 -1.1863  0.6753 -0.6665
12887TIP3   OH260075   6.623   1.056   4.215 -0.1098  0.5757 -0.1206
12887TIP3    H160076   6.639   0.971   4.258  0.2177  0.9574  0.5254
12887TIP3    H260077   6.586   1.033   4.130 -0.4507 -0.2075  0.2305
12888TIP3   OH260078   5.524   2.641  13.146  0.0782 -0.8772  0.2164
12888TIP3    H160079   5.545   2.643  13.053 -0.2478  1.5574  0.1324
12888TIP3    H260080   5.598   2.597  13.186  0.0822 -2.2432 -1.2011
12889TIP3   OH260081   4.029   6.603   1.061  0.0854 -0.2058 -0.7563
12889TIP3    H160082   3.978   6.573   0.986  0.9444  1.1239 -1.9375
12889TIP3    H260083   4.004   6.695   1.072  0.3961 -0.2192  0.2388
12890TIP3   OH260084   0.908   0.861  12.251  0.8508 -0.2157 -0.0881
12890TIP3    H160085   0.921   0.953  12.275  0.1473 -0.1754  0.1743
12890TIP3    H260086   0.844   0.863  12.180  0.5808 -0.5154  0.1415
12891TIP3   OH260087   1.617   6.674   2.667  0.0291  0.3046 -0.1816
12891TIP3    H160088   1.659   6.676   2.581 -0.2291  2.0582 -0.3096
12891TIP3    H260089   1.684   6.704   2.727 -0.1224  0.1316  0.0758
12892TIP3   OH260090   1.311   1.042  16.433 -0.3868 -0.1247  0.7013
12892TIP3    H160091   1.237   1.093  16.401  0.0117  0.7503  1.1286
12892TIP3    H260092   1.292   0.952  16.406 -0.2513  0.4869 -1.6698
12893TIP3   OH260093   2.096   1.731   0.097  0.5140  0.3321  0.2070
12893TIP3    H160094   2.092   1.804   0.159  1.8491 -0.0634  0.7995
12893TIP3    H260095   2.013   1.735   0.049 -0.0536  1.3384  1.2353
12894TIP3   OH260096   6.101   3.831   0.275 -0.0308 -0.2130 -0.3990
12894TIP3    H160097   6.069   3.770   0.341 -0.0449  0.1535 -0.0650
12894TIP3    H260098   6.173   3.785   0.232  2.1487  0.7440  2.0191
12895TIP3   OH260099   4.060   5.997   4.969  0.3972  0.2160 -0.1309
12895TIP3    H160100   3.976   5.999   5.013 -0.1369  0.5072 -1.1248
12895TIP3    H260101   4.124   5.980   5.038 -0.3611  1.0684  0.7984
12896TIP3   OH260102   4.275   2.188   2.043 -0.7184 -0.3191 -0.7254
12896TIP3    H160103   4.351   2.163   2.096 -1.1860 -2.1338 -0.8392
12896TIP3    H260104   4.303   2.268   1.998  0.3865  0.1677  0.7458
12897TIP3   OH260105   3.888   0.053   5.084  0.7340 -0.8388  0.1379
12897TIP3    H160106   3.953   0.061   5.153  0.2578  1.9783  0.3861
12897TIP3    H260107   3.804   0.048   5.130  0.6103 -2.4233 -0.2134
12898TIP3   OH260108   6.173   2.215  15.758 -0.3330  0.4495 -0.4381
12898TIP3    H160109   6.178   2.205  15.853 -1.8212 -0.9625 -0.4578
12898TIP3    H260110   6.207   2.303  15.741 -0.2675  0.8253  1.4167
12899TIP3   OH260111   4.956   1.550   0.264  0.4997  0.3039  0.1324
12899TIP3    H160112   4.936   1.500   0.185 -0.9845  0.4623  0.3798
12899TIP3    H260113   4.902   1.628   0.258 -0.3838 -0.1327  1.7520
12900TIP3   OH260114   5.760   6.453   3.404  0.7555  0.0447 -0.3600
12900TIP3    H160115   5.664   6.449   3.399  0.3709  1.7538  2.8189
12900TIP3    H260116   5.789   6.367   3.374 -1.6665 -0.2161 -2.3294
12901TIP3   OH260117   5.052   3.553   3.154  0.6423  0.2510  0.3253
12901TIP3    H160118   5.124   3.493   3.132  0.4284  0.6548 -1.7039
12901TIP3    H260119   4.989   3.498   3.201  0.3455 -1.2491 -1.6746
12902TIP3   OH260120   2.691   6.170  16.201  0.0295 -0.6566 -0.3127
12902TIP3    H160121   2.756   6.125  16.147  0.8565  1.6226 -1.3651
12902TIP3    H260122   2.739   6.200  16.278  0.4673  1.4942 -1.3423
12903TIP3   OH260123   0.236   1.067  14.047  0.1509  0.3839 -0.0539
12903TIP3    H160124   0.226   1.085  13.954 -0.8598 -3.1066 -0.7492
12903TIP3    H260125   0.329   1.079  14.064  0.2558  1.6127 -1.3294
12904TIP3   OH260126   4.381   5.855  10.713  0.2083  0.7033 -0.0418
12904TIP3    H160127   4.327   5.825  10.639  0.5321 -1.5134  0.5717
12904TIP3    H260128   4.327   5.837  10.790  1.5126 -0.9451  0.5320
12905TIP3   OH260129   1.001   6.658   0.454 -0.3006  0.3715  0.1540
12905TIP3    H160130   1.043   6.725   0.509 -2.8192  1.1894  1.2183
12905TIP3    H260131   1.000   6.696   0.366 -1.2183  1.5599  0.6487
12906TIP3   OH260132   0.620   0.335  16.183  0.2589  0.3614 -0.9282
12906TIP3    H160133   0.681   0.282  16.234 -1.0916 -0.3743 -0.0333
12906TIP3    H260134   0.666   0.350  16.100  0.9541 -1.6436 -0.9623
12907TIP3   OH260135   3.737   2.392  11.889  0.0450  0.0276 -0.1616
12907TIP3    H160136   3.812   2.449  11.869  0.6105 -1.5033 -2.9695
12907TIP3    H260137   3.660   2.447  11.873  0.5861  0.6132 -0.8632
12908TIP3   OH260138   5.601   4.396  13.919  0.7539  0.3990  0.5291
12908TIP3    H160139   5.637   4.381  14.006  0.4331  0.2986  0.6485
12908TIP3    H260140   5.569   4.310  13.892 -1.1720  0.8231  1.2496
12909TIP3   OH260141   4.896   0.528  11.696  0.5745 -0.3456 -0.0589
12909TIP3    H160142   4.886   0.474  11.774 -1.5013  0.0839  0.0279
12909TIP3    H260143   4.952   0.600  11.724 -0.3545 -0.0587  1.1314
12910TIP3   OH260144   2.672   6.251   4.388 -0.0324  0.6612  0.7605
12910TIP3    H160145   2.751   6.198   4.377 -1.1869 -1.1025  0.5364
12910TIP3    H260146   2.621   6.204   4.453 -0.8820  1.8180  0.9613
12911TIP3   OH260147   4.075   5.644   4.895 -0.0810  0.1269  0.2909
12911TIP3    H160148   4.157   5.646   4.845  0.0631 -0.5179  0.4971
12911TIP3    H260149   4.009   5.619   4.830 -0.1615  0.8827  0.0711
12912TIP3   OH260150   0.582   2.367  14.756  0.6708  0.1424 -0.0348
12912TIP3    H160151   0.551   2.358  14.666  1.0803 -0.2720 -0.1367
12912TIP3    H260152   0.502   2.372  14.808  0.4064 -1.1574 -0.2706
12913TIP3   OH260153   1.981   4.471  13.744  0.5200 -0.8514 -0.3229
12913TIP3    H160154   1.969   4.404  13.676  0.4478 -0.2969 -0.8703
12913TIP3    H260155   2.011   4.548  13.695  2.4310 -1.0110  0.5080
12914TIP3   OH260156   4.515   0.771   4.116  0.3095 -0.4659  1.0662
12914TIP3    H160157   4.529   0.698   4.056  0.5728 -0.4451  1.1001
12914TIP3    H260158   4.597   0.777   4.165  0.6668  0.4732  0.3879
12915TIP3   OH260159   3.832   3.550  11.016 -0.3892 -0.5230 -0.0892
12915TIP3    H160160   3.863   3.553  10.925  0.3694  1.1726  0.1913
12915TIP3    H260161   3.805   3.640  11.034  1.4254 -0.3346  2.0178
12916TIP3   OH260162   6.781   3.290   4.949 -0.2121  0.1546  0.1856
12916TIP3    H160163   6.746   3.376   4.925  1.9724  0.8129 -0.9911
12916TIP3    H260164   6.851   3.310   5.012  2.2168 -0.3618 -2.1651
12917TIP3   OH260165   5.313   0.324   5.519 -0.2090  0.2822 -0.4476
12917TIP3    H160166   5.221   0.323   5.544  0.1983 -0.7848  1.1142
12917TIP3    H260167   5.332   0.417   5.504 -1.7378  0.4365 -1.7077
12918TIP3   OH260168   6.452   2.659  14.649  0.0497  0.1722 -0.3789
12918TIP3    H160169   6.508   2.593  14.691  1.1235  1.3663  0.1489
12918TIP3    H260170   6.382   2.608  14.608  1.7809 -1.4457 -1.5101
12919TIP3   OH260171   2.725   5.662  16.429  0.2347  0.1534 -0.7043
12919TIP3    H160172   2.683   5.679  16.514 -0.5758 -2.8835 -0.3960
12919TIP3    H260173   2.708   5.569  16.412  2.5795  0.0431 -2.9939
12920TIP3   OH260174   4.945   1.279   4.639  0.1098  0.1913  0.2277
12920TIP3    H160175   4.910   1.296   4.727  0.5604  0.6524  0.3185
12920TIP3    H260176   4.880   1.317   4.580  0.4877  1.1055  0.3992
12921TIP3   OH260177   1.816   1.367  11.023 -0.0531 -0.5645  0.5149
12921TIP3    H160178   1.801   1.289  10.970  2.3323 -1.1389  0.5918
12921TIP3    H260179   1.823   1.335  11.113  0.6427 -0.2336  0.5848
12922TIP3   OH260180   3.703   1.431   3.196 -0.5371  0.1728  0.3070
12922TIP3    H160181   3.631   1.375   3.226 -0.1810 -1.9483 -2.3710
12922TIP3    H260182   3.671   1.470   3.115  0.6854  0.6674  0.0359
12923TIP3   OH260183   2.034   5.948   1.790 -0.3316 -0.3505  0.0908
12923TIP3    H160184   2.027   5.991   1.705  0.7200 -1.3309 -0.5286
12923TIP3    H260185   2.119   5.974   1.823 -0.4673 -0.4855  0.5523
12924TIP3   OH260186   5.484   5.477  10.908  0.3850 -0.3550  0.5507
12924TIP3    H160187   5.531   5.513  10.983 -1.1009 -0.8004  1.7595
12924TIP3    H260188   5.493   5.543  10.840  1.1792  0.3981  1.3540
12925TIP3   OH260189   6.066   6.233   2.224  0.3255 -0.0923  0.2326
12925TIP3    H160190   5.995   6.169   2.232 -0.2688  0.6914  1.6945
12925TIP3    H260191   6.140   6.192   2.269  0.5525 -0.5347 -0.5175
12926TIP3   OH260192   2.312   4.844   1.819  0.6834  0.1727 -0.0345
12926TIP3    H160193   2.372   4.777   1.848  0.3028 -0.8032 -1.3698
12926TIP3    H260194   2.364   4.899   1.760  0.7159  0.3675  0.1785
12927TIP3   OH260195   1.679   6.178   1.655 -0.0617 -0.1793 -0.2147
12927TIP3    H160196   1.649   6.156   1.743  0.7964  0.4722  0.2599
12927TIP3    H260197   1.628   6.122   1.597 -1.5536  0.2877  0.6024
12928TIP3   OH260198   4.803   5.263  12.466  0.1369  0.4270  0.4930
12928TIP3    H160199   4.742   5.254  12.539  0.1502  1.7222  0.6803
12928TIP3    H260200   4.820   5.357  12.460 -0.6116  0.4602 -1.8118
12929TIP3   OH260201   3.240   2.486   0.407  0.2433  0.0509  0.0788
12929TIP3    H160202   3.252   2.457   0.498 -0.7842 -1.7994 -0.3415
12929TIP3    H260203   3.176   2.556   0.413 -0.5285 -0.6876  0.7017
12930TIP3   OH260204   0.169   1.007  13.434  0.2189  0.6087 -0.2014
12930TIP3    H160205   0.082   1.047  13.441 -0.3960 -0.8008  0.7260
12930TIP3    H260206   0.211   1.054  13.363 -1.7105  0.6284 -1.4085
12931TIP3   OH260207   3.898   2.144  14.809 -0.7340 -0.0909 -1.0400
12931TIP3    H160208   3.902   2.237  14.784  2.5058  0.0762 -0.2851
12931TIP3    H260209   3.960   2.101  14.750  0.0946 -1.2274  0.5829
12932TIP3   OH260210   3.060   5.918  13.642 -0.1949  0.0006 -0.2586
12932TIP3    H160211   3.096   5.912  13.730  1.1734  0.0773 -0.7795
12932TIP3    H260212   2.989   5.855  13.640  0.5175 -0.8497  0.5591
12933TIP3   OH260213   6.720   1.338  14.893 -0.1498 -0.5044  0.4829
12933TIP3    H160214   6.813   1.352  14.877 -0.2884 -0.2746 -0.1150
12933TIP3    H260215   6.714   1.327  14.988  0.5469 -1.0071  0.4749
12934TIP3   OH260216   2.420   0.579  12.819  0.4458 -0.1081 -0.3895
12934TIP3    H160217   2.360   0.560  12.891  0.2490  0.3867 -0.4221
12934TIP3    H260218   2.372   0.552  12.740  1.4549 -2.6605 -0.2288
12935TIP3   OH260219   3.030   0.856  15.056 -0.2996 -0.1557 -0.7818
12935TIP3    H160220   3.033   0.915  15.131 -1.1722  1.6700 -2.1258
12935TIP3    H260221   3.054   0.910  14.981 -0.9239 -1.5494 -2.0399
12936TIP3   OH260222   1.938   2.607   0.063  0.2505  0.5156  0.2302
12936TIP3    H160223   1.895   2.690   0.042  0.3871  0.8830  1.3169
12936TIP3    H260224   1.934   2.557  -0.018 -2.2953  0.4923  0.2856
12937TIP3   OH260225   5.490   0.251  13.509 -0.0111  0.2411  0.7411
12937TIP3    H160226   5.571   0.271  13.556  0.5483  1.1475 -0.5499
12937TIP3    H260227   5.518   0.235  13.418 -1.0252 -1.6820  0.7182
12938TIP3   OH260228   5.412   0.085  14.221  0.0089 -0.2912 -0.2656
12938TIP3    H160229   5.354   0.009  14.207 -0.7017 -0.1400  1.6024
12938TIP3    H260230   5.473   0.082  14.147 -1.2605 -1.5033 -1.3315
12939TIP3   OH260231   2.692   6.040  12.464 -0.0813  0.0349 -0.1561
12939TIP3    H160232   2.713   6.127  12.499  0.1180  0.1945 -0.6642
12939TIP3    H260233   2.634   6.002  12.530  0.7435  0.0985  0.6355
12940TIP3   OH260234   2.669   3.328   4.257 -0.3856  0.5962 -0.2182
12940TIP3    H160235   2.626   3.380   4.325  1.1436  0.5477  0.8357
12940TIP3    H260236   2.757   3.312   4.291  0.8083  1.4604 -2.7015
12941TIP3   OH260237   5.480   5.498  16.435 -0.4589  0.2291 -0.1050
12941TIP3    H160238   5.556   5.548  16.405 -1.5724  1.7460 -0.5587
12941TIP3    H260239   5.474   5.424  16.376 -0.5800  1.2929 -1.4816
12942TIP3   OH260240   1.509   0.661   1.859 -0.3187 -1.0251  0.2725
12942TIP3    H160241   1.490   0.654   1.765  1.3663  0.2374 -0.2286
12942TIP3    H260242   1.488   0.752   1.880  1.0045 -0.7963  0.6716
12943TIP3   OH260243   0.145   1.948  12.583 -0.0172  0.6362  0.5859
12943TIP3    H160244   0.137   1.993  12.499  2.3363  2.1228  1.0607
12943TIP3    H260245   0.092   2.001  12.644  1.1146  1.6724  0.7166
12944TIP3   OH260246   3.795   0.422  12.989 -0.2816  0.1098 -0.2646
12944TIP3    H160247   3.738   0.362  13.037 -1.2938  0.8305 -0.5164
12944TIP3    H260248   3.833   0.479  13.055  0.0420 -0.2861 -0.1071
12945TIP3   OH260249   1.420   3.580  14.155  0.3557 -0.3234  0.3015
12945TIP3    H160250   1.326   3.576  14.138  0.4738 -0.6577 -0.2910
12945TIP3    H260251   1.427   3.620  14.242 -0.3408 -0.4889  0.4390
12946TIP3   OH260252   0.864   1.706   5.661  0.1418  0.4839  0.0896
12946TIP3    H160253   0.909   1.715   5.745 -0.1948 -0.7355  0.4276
12946TIP3    H260254   0.926   1.659   5.605 -0.3932 -0.5465  0.3272
12947TIP3   OH260255   1.627   5.311  15.457 -0.5250  0.4754 -0.0841
12947TIP3    H160256   1.565   5.347  15.521 -0.1018  1.2014 -0.0618
12947TIP3    H260257   1.628   5.375  15.386  1.2695  1.2428  0.5753
12948TIP3   OH260258   2.150   3.858   4.011  0.2296 -0.1898  0.1657
12948TIP3    H160259   2.223   3.797   4.022  0.3411 -0.1974 -0.5689
12948TIP3    H260260   2.074   3.811   4.045 -0.3927 -2.2154 -3.4955
12949TIP3   OH260261   2.795   2.891  15.249  0.5734  0.0124  0.5920
12949TIP3    H160262   2.874   2.872  15.198  0.2501  0.0199  0.0844
12949TIP3    H260263   2.788   2.986  15.248  0.4606  0.0035  0.4859
12950TIP3   OH260264   3.333   5.823   5.234 -0.2131  0.2326  0.1426
12950TIP3    H160265   3.352   5.770   5.311  1.3284 -0.3761 -0.6161
12950TIP3    H260266   3.372   5.908   5.253 -0.7383  0.4124  0.4423
12951TIP3   OH260267   2.044   0.847   0.725 -0.0906  0.1328 -0.3462
12951TIP3    H160268   2.001   0.846   0.811  0.7760  1.2769  0.1138
12951TIP3    H260269   2.126   0.799   0.738  1.3033  2.5239  0.1843
12952TIP3   OH260270   1.214   1.425   2.186  0.0545 -0.5170 -0.2976
12952TIP3    H160271   1.266   1.468   2.255 -0.3532 -0.1030 -0.2494
12952TIP3    H260272   1.145   1.487   2.166 -0.2576 -0.9509 -0.5685
12953TIP3   OH260273   1.833   4.734   5.291 -0.5023 -0.1107 -0.1267
12953TIP3    H160274   1.857   4.681   5.215  1.5445 -0.0893  0.4340
12953TIP3    H260275   1.758   4.689   5.330 -1.0852 -0.5581 -1.6789
12954TIP3   OH260276   5.285   4.970  11.281 -0.9017 -0.0790 -0.1097
12954TIP3    H160277   5.192   4.983  11.301 -0.5963  1.9580  0.2532
12954TIP3    H260278   5.290   4.975  11.185 -1.0514  0.9936 -0.0768
12955TIP3   OH260279   1.805   4.280   1.476 -0.3344  0.2429 -0.3882
12955TIP3    H160280   1.817   4.352   1.539  1.4433  0.3702 -0.8110
12955TIP3    H260281   1.853   4.207   1.515  1.6552  0.6073 -1.9893
12956TIP3   OH260282   4.458   5.808   0.630  0.1700 -0.0923 -0.1427
12956TIP3    H160283   4.397   5.752   0.679  1.2824 -2.0095 -0.8168
12956TIP3    H260284   4.406   5.885   0.606 -1.4164 -0.7661  0.9404
12957TIP3   OH260285   4.841   6.259  15.180  0.1384 -0.2847  0.5916
12957TIP3    H160286   4.913   6.220  15.229  1.1278  1.1604  0.3312
12957TIP3    H260287   4.783   6.296  15.247  0.8299  0.5596  0.7403
12958TIP3   OH260288   2.543   3.072  15.025 -0.1218  0.0311  0.0047
12958TIP3    H160289   2.520   3.138  14.959 -1.6733  0.0788  0.5583
12958TIP3    H260290   2.633   3.094  15.051  0.3973  0.2242 -1.8079
12959TIP3   OH260291   5.916   2.624   4.098  0.3003  0.0698  0.0989
12959TIP3    H160292   5.961   2.707   4.115  0.4986 -0.1648  0.7554
12959TIP3    H260293   5.983   2.569   4.057  0.7300 -0.3766  1.3352
12960TIP3   OH260294   1.189   5.216   0.536 -0.2986  0.3787  0.6603
12960TIP3    H160295   1.199   5.157   0.611 -0.4484  0.2900  0.6113
12960TIP3    H260296   1.178   5.303   0.576 -1.6748  0.1724  0.8023
12961TIP3   OH260297   2.242   3.926   5.266 -0.1576 -0.4544  0.4406
12961TIP3    H160298   2.260   3.833   5.281 -0.6351 -0.4836  0.8576
12961TIP3    H260299   2.163   3.944   5.317 -0.9740 -0.1868 -0.8776
12962TIP3   OH260300   3.842   4.361  16.370 -0.2440 -0.5532  0.5722
12962TIP3    H160301   3.841   4.451  16.337 -0.3018 -1.2372 -1.4084
12962TIP3    H260302   3.931   4.330  16.355  0.1521 -0.4458  2.4605
12963TIP3   OH260303   6.584   1.332  12.489 -0.1089 -0.1569 -0.5437
12963TIP3    H160304   6.531   1.298  12.561  1.4286 -1.7466 -0.1063
12963TIP3    H260305   6.599   1.256  12.432 -0.2115  0.7880 -1.8737
12964TIP3   OH260306   4.832   2.102   4.980  0.5798 -0.3477  0.5679
12964TIP3    H160307   4.926   2.092   4.994  0.4030 -1.8977  0.8165
12964TIP3    H260308   4.818   2.080   4.888  0.7522  2.4526 -0.2242
12965TIP3   OH260309   2.166   3.292   1.388  0.4485 -0.2034  0.5532
12965TIP3    H160310   2.106   3.327   1.323 -0.5228 -1.1849  0.9050
12965TIP3    H260311   2.236   3.252   1.336  1.7660  2.4211  0.1280
12966TIP3   OH260312   4.421   2.087   2.972 -0.0008 -0.0286  0.6164
12966TIP3    H160313   4.479   2.117   3.043 -0.0996 -1.7930  1.5041
12966TIP3    H260314   4.462   2.007   2.941 -0.5249  0.1769 -0.6433
12967TIP3   OH260315   4.597   1.062   3.338 -0.3344  0.0510  0.3018
12967TIP3    H160316   4.551   1.141   3.311 -0.2348  0.0652  0.1748
12967TIP3    H260317   4.660   1.092   3.404 -1.8690 -0.2462  1.9951
12968TIP3   OH260318   2.952   5.287   0.962  0.4217 -0.0628  0.0561
12968TIP3    H160319   2.998   5.372   0.965  1.9090 -0.8460  0.7387
12968TIP3    H260320   2.872   5.305   0.913  1.9402  1.1653 -2.1530
12969TIP3   OH260321   2.105   1.527   3.291  0.4998  0.0710  0.1394
12969TIP3    H160322   2.103   1.457   3.226  0.4540  0.5237 -0.3555
12969TIP3    H260323   2.158   1.492   3.362  3.0001  0.5763 -1.3443
12970TIP3   OH260324   2.135   0.624   5.369  0.8808  0.4540  0.5866
12970TIP3    H160325   2.045   0.613   5.339  0.6742  2.7239  0.1364
12970TIP3    H260326   2.182   0.654   5.291  1.8115  0.1790  1.0315
12971TIP3   OH260327   4.612   2.047  14.867  0.0170  0.3914 -0.1958
12971TIP3    H160328   4.689   2.035  14.923 -0.3140  0.2591  0.2386
12971TIP3    H260329   4.564   2.118  14.909 -2.1830 -2.1365  1.9025
12972TIP3   OH260330   5.879   4.925  13.210 -0.1437  0.0065  0.0986
12972TIP3    H160331   5.956   4.871  13.190 -0.1123  1.2178 -3.9510
12972TIP3    H260332   5.916   5.006  13.245  0.0986 -0.6507  1.4644
12973TIP3   OH260333   5.646   2.332  10.597 -0.4326 -0.2164 -0.0522
12973TIP3    H160334   5.676   2.308  10.685  0.7921  0.5017 -0.2414
12973TIP3    H260335   5.660   2.427  10.593  1.3071 -0.4819 -1.6321
12974TIP3   OH260336   4.004   4.736   4.924  0.4097 -0.2243 -0.0202
12974TIP3    H160337   3.997   4.831   4.917  0.5888 -0.0286  1.9056
12974TIP3    H260338   3.930   4.703   4.875  0.5072  0.8982 -0.9661
12975TIP3   OH260339   1.847   1.286   1.568  0.3040 -0.2758  0.4301
12975TIP3    H160340   1.763   1.275   1.611  1.1638 -0.4012  2.1498
12975TIP3    H260341   1.857   1.381   1.557 -0.4715 -0.3015 -0.7106
12976TIP3   OH260342   2.203   2.773  14.412 -0.4275 -0.2270 -0.2961
12976TIP3    H160343   2.215   2.866  14.393 -0.2107 -0.1000  0.4074
12976TIP3    H260344   2.197   2.770  14.508 -0.2866 -0.9501 -0.3107
12977TIP3   OH260345   0.439   5.469  14.057  0.2819  0.0790 -0.4837
12977TIP3    H160346   0.418   5.378  14.038  0.0352 -0.1301  0.6695
12977TIP3    H260347   0.359   5.503  14.099  1.7956 -0.5071  3.3020
12978TIP3   OH260348   5.627   6.800  15.327 -0.2300 -0.1834  0.3412
12978TIP3    H160349   5.541   6.787  15.368  0.2017  0.2912  1.4501
12978TIP3    H260350   5.609   6.856  15.251 -0.6419  2.0264  1.9542
12979TIP3   OH260351   6.121   5.788  14.014  0.4941  0.7780 -0.3852
12979TIP3    H160352   6.051   5.851  14.029 -0.2624 -0.1863  0.2677
12979TIP3    H260353   6.150   5.806  13.924  2.3944  4.0191  0.7083
12980TIP3   OH260354   5.005   0.711   4.986  0.3540  0.2798 -0.0937
12980TIP3    H160355   5.073   0.761   4.940  1.7107  0.2703  1.7681
12980TIP3    H260356   4.981   0.767   5.060 -2.5936  0.8088 -1.2986
12981TIP3   OH260357   4.901   1.906   3.002  1.1589 -0.1415 -0.6956
12981TIP3    H160358   4.876   1.909   3.094  4.2617 -1.5896  0.3255
12981TIP3    H260359   4.850   1.834   2.966 -0.7372  0.9930 -0.3937
12982TIP3   OH260360   1.128   3.346   1.627 -0.1443 -0.2493 -0.1778
12982TIP3    H160361   1.157   3.294   1.702 -0.6927  0.1998  0.3538
12982TIP3    H260362   1.202   3.404   1.609 -0.6013  0.7657  1.0557
12983TIP3   OH260363   0.844   5.574  12.551 -0.5839 -0.4806 -0.1271
12983TIP3    H160364   0.785   5.503  12.528 -0.7064 -0.3372 -0.2625
12983TIP3    H260365   0.929   5.532  12.563 -0.6071 -0.6208 -0.4309
12984TIP3   OH260366   0.482   5.481   3.348  0.0258  0.4896  0.0785
12984TIP3    H160367   0.465   5.417   3.279  2.1403  0.6942 -0.6828
12984TIP3    H260368   0.567   5.519   3.326 -1.2626  3.8299  0.3110
12985TIP3   OH260369   4.177   3.840  12.234  0.1014 -0.7011 -0.3663
12985TIP3    H160370   4.172   3.832  12.330  1.3051  0.4934 -0.1771
12985TIP3    H260371   4.089   3.819  12.204 -0.2184 -1.4457  0.9702
12986TIP3   OH260372   1.579   0.587   5.344  0.8698  0.4975 -0.7810
12986TIP3    H160373   1.661   0.574   5.295  0.6809 -0.2894 -0.9077
12986TIP3    H260374   1.578   0.515   5.408 -2.1065 -2.7960 -4.0594
12987TIP3   OH260375   3.346   1.653  13.683 -0.0349 -0.5824 -0.3992
12987TIP3    H160376   3.380   1.635  13.770  1.4150 -1.3048 -1.0731
12987TIP3    H260377   3.408   1.611  13.624  0.3081  1.7882 -1.8855
12988TIP3   OH260378   2.731   2.903   2.878  0.1571  0.3688  0.0545
12988TIP3    H160379   2.769   2.984   2.912  2.4388 -1.2057  1.5232
12988TIP3    H260380   2.645   2.897   2.921  0.0826  1.8401  0.1461
12989TIP3   OH260381   2.296   2.231   3.132 -0.0148 -0.1994  0.2093
12989TIP3    H160382   2.221   2.202   3.081 -0.3446 -0.2167  0.6954
12989TIP3    H260383   2.365   2.168   3.111 -0.9033 -1.7749  1.7256
12990TIP3   OH260384   2.483   2.836   2.991  0.4760 -0.0583  0.6495
12990TIP3    H160385   2.447   2.916   3.029  0.8812  0.5824 -0.2659
12990TIP3    H260386   2.418   2.810   2.925  0.4803 -0.3336  0.7519
12991TIP3   OH260387   4.735   6.682  11.318 -0.0284 -0.0058  0.2649
12991TIP3    H160388   4.702   6.772  11.325 -0.4728 -0.2448  1.4736
12991TIP3    H260389   4.718   6.657  11.227 -0.9999  0.7199  0.2346
12992TIP3   OH260390   6.135   4.551   3.962  0.3077  0.1358  0.4048
12992TIP3    H160391   6.130   4.647   3.955  1.0130  0.2560  1.3201
12992TIP3    H260392   6.045   4.523   3.975  0.1915  0.7646  1.0211
12993TIP3   OH260393   1.957   5.844   3.971 -0.6407 -0.0381 -0.1598
12993TIP3    H160394   1.939   5.801   3.888  1.3864 -0.5252 -0.3914
12993TIP3    H260395   1.944   5.937   3.954 -0.5594 -0.1660 -0.9292
12994TIP3   OH260396   5.537   6.088  16.013 -0.4094 -0.1689  0.4940
12994TIP3    H160397   5.589   6.010  15.995 -1.3380 -0.9653  1.1231
12994TIP3    H260398   5.461   6.080  15.954 -0.3522  0.4296  0.3352
12995TIP3   OH260399   5.250   4.696  15.216 -0.4584 -0.3211 -0.0652
12995TIP3    H160400   5.202   4.623  15.177 -0.6348 -0.7928  1.0003
12995TIP3    H260401   5.204   4.774  15.185 -2.0294 -0.7603  1.0280
12996TIP3   OH260402   2.018   2.423  12.403 -0.4964 -0.5287  0.2067
12996TIP3    H160403   2.030   2.357  12.334  0.2122 -0.0064 -0.1699
12996TIP3    H260404   2.024   2.507  12.358  0.5536 -0.1690  0.9880
12997TIP3   OH260405   1.575   5.653  16.444 -0.4650  0.1700 -0.1137
12997TIP3    H160406   1.589   5.591  16.372 -0.9611 -0.7248  0.5472
12997TIP3    H260407   1.626   5.730  16.418  2.1662 -1.3448  0.1223
12998TIP3   OH260408   6.178   1.807  14.665 -0.4362  0.6811 -0.1490
12998TIP3    H160409   6.110   1.835  14.726 -0.9453  1.1574 -0.9183
12998TIP3    H260410   6.141   1.730  14.621 -0.5698  1.0714 -0.7239
12999TIP3   OH260411   0.317   2.576  11.282 -0.0630 -0.1555  0.3580
12999TIP3    H160412   0.324   2.510  11.351  0.9452  0.1160  0.5288
12999TIP3    H260413   0.406   2.585  11.249 -0.5988 -0.5925 -1.2851
13000TIP3   OH260414   2.557   2.550  15.323  0.2944  0.2767  0.1590
13000TIP3    H160415   2.635   2.601  15.345  1.2437 -0.1839 -1.8603
13000TIP3    H260416   2.591   2.466  15.292 -1.1424 -0.8243  1.4491
13001TIP3   OH260417   4.897   5.933  13.781 -0.1848 -0.3334 -0.0270
13001TIP3    H160418   4.871   6.004  13.840  0.8479 -0.2584  0.3600
13001TIP3    H260419   4.915   5.859  13.839 -0.5903 -0.7079 -0.3725
13002TIP3   OH260420   1.192   2.940  15.206  0.0930 -0.1836 -0.1537
13002TIP3    H160421   1.205   2.845  15.205  0.4224 -0.1375 -0.3560
13002TIP3    H260422   1.133   2.956  15.280  0.9759 -0.4186  0.6083
13003TIP3   OH260423   1.866   4.540   3.853 -0.2815  0.0765 -0.0231
13003TIP3    H160424   1.853   4.615   3.794 -1.5576  1.5192  1.9429
13003TIP3    H260425   1.943   4.565   3.905 -1.5384  0.7490  1.5906
13004TIP3   OH260426   0.801   5.567   0.912  0.1000  0.0074  0.1553
13004TIP3    H160427   0.775   5.657   0.896 -1.4468 -0.5802 -0.7757
13004TIP3    H260428   0.766   5.517   0.838  0.2821 -1.4707  1.0127
13005TIP3   OH260429   3.730   2.964  10.847 -0.5283 -0.7203 -0.1431
13005TIP3    H160430   3.721   3.046  10.895 -0.1670 -0.2462 -0.8672
13005TIP3    H260431   3.640   2.937  10.828 -0.7163 -1.2899  1.3873
13006TIP3   OH260432   5.403   2.300   1.647  0.1243  0.6218 -0.5020
13006TIP3    H160433   5.454   2.298   1.728 -0.6880  0.6496  0.0250
13006TIP3    H260434   5.406   2.391   1.619 -2.0007  1.2872  1.1126
13007TIP3   OH260435   1.062   1.102  11.431  0.1010 -0.4791 -0.8626
13007TIP3    H160436   1.041   1.012  11.406 -1.0112 -0.3335 -0.5041
13007TIP3    H260437   0.982   1.151  11.412  0.1447  0.1338  0.4217
13008TIP3   OH260438   1.983   1.001  12.294 -0.6231 -0.4079  0.2535
13008TIP3    H160439   1.950   1.032  12.210 -1.4598  0.0612  0.7470
13008TIP3    H260440   1.928   0.925  12.315  0.3264 -1.2274 -0.1529
13009TIP3   OH260441   5.172   2.836   1.483  0.3409  0.8450 -0.1024
13009TIP3    H160442   5.211   2.919   1.456  0.9922  1.5802  2.7939
13009TIP3    H260443   5.078   2.854   1.489  0.4113  1.2060 -0.0467
13010TIP3   OH260444   4.736   0.031  14.565  0.0712  0.3621  0.2007
13010TIP3    H160445   4.831   0.027  14.579 -0.0348  0.7197  1.0852
13010TIP3    H260446   4.725   0.016  14.471  0.9791 -0.0588  0.1496
13011TIP3   OH260447   2.441   3.448   4.935  0.3864 -0.4069 -0.0391
13011TIP3    H160448   2.407   3.442   4.845 -0.0007 -1.0805  0.1410
13011TIP3    H260449   2.449   3.542   4.951  1.7652 -0.2859 -1.2500
13012TIP3   OH260450   5.072   0.132   5.123  0.6393 -0.1394  0.2029
13012TIP3    H160451   5.011   0.186   5.173 -0.1040  0.7170 -1.5140
13012TIP3    H260452   5.143   0.112   5.184 -0.3257  0.6374  1.6316
13013TIP3   OH260453   2.915   2.474   0.217 -0.9045  0.3272  0.3311
13013TIP3    H160454   2.875   2.413   0.279 -3.3316  0.5079 -0.9229
13013TIP3    H260455   2.998   2.434   0.193 -1.9972 -2.0381  0.2697
13014TIP3   OH260456   0.448   0.122   3.713  0.0008 -0.4943 -0.1826
13014TIP3    H160457   0.497   0.084   3.641  0.9867 -1.4702  0.9599
13014TIP3    H260458   0.514   0.163   3.768 -0.6677 -0.2469  0.4472
13015TIP3   OH260459   1.042   5.759  15.199  0.4808  0.6022  0.2489
13015TIP3    H160460   0.982   5.796  15.265  1.3094  0.3363  1.1784
13015TIP3    H260461   1.045   5.666  15.219  0.0622  0.3610 -0.7446
13016TIP3   OH260462   1.797   3.106   5.402 -0.4562 -0.4407  0.4085
13016TIP3    H160463   1.859   3.177   5.413 -0.1544 -1.0163  3.1097
13016TIP3    H260464   1.737   3.137   5.334  3.0514 -0.1593 -2.9269
13017TIP3   OH260465   5.596   0.370   1.017 -0.0895  0.1123  0.1058
13017TIP3    H160466   5.553   0.454   1.034 -0.2448  0.0825 -0.1432
13017TIP3    H260467   5.606   0.367   0.922  0.2182 -0.0032  0.1419
13018TIP3   OH260468   2.358   5.942  12.411  0.2364  0.4762 -0.4386
13018TIP3    H160469   2.296   6.015  12.402 -0.0862  0.0786 -1.7041
13018TIP3    H260470   2.408   5.944  12.329  2.4907  1.2881  0.8662
13019TIP3   OH260471   5.749   2.270   1.668 -0.0860  0.0663 -0.0297
13019TIP3    H160472   5.708   2.326   1.601 -0.3955 -0.0571  0.0537
13019TIP3    H260473   5.842   2.288   1.660 -0.2387  1.1917  0.5130
13020TIP3   OH260474   2.778   6.242   4.714 -0.0805  0.4441  0.0413
13020TIP3    H160475   2.773   6.305   4.642  0.3869 -1.6950 -1.9780
13020TIP3    H260476   2.872   6.229   4.728 -0.1256 -1.3822 -1.0946
13021TIP3   OH260477   1.570   5.172  16.439 -0.3105 -0.4629 -0.3028
13021TIP3    H160478   1.547   5.189  16.348 -1.5442 -1.4431 -0.2060
13021TIP3    H260479   1.617   5.088  16.437 -0.4123 -0.5271 -0.0246
13022TIP3   OH260480   6.550   1.186   2.520  0.2013  0.2020 -0.2979
13022TIP3    H160481   6.498   1.190   2.600  1.0579  0.0922  0.2763
13022TIP3    H260482   6.514   1.112   2.471 -0.0050 -0.0393  0.2160
13023TIP3   OH260483   6.399   2.524   5.482  0.3768  0.5416  0.3709
13023TIP3    H160484   6.476   2.516   5.426  0.4928  0.2646  0.5677
13023TIP3    H260485   6.358   2.437   5.479  0.8961  0.2427  1.4489
13024TIP3   OH260486   0.425   5.004   3.206 -0.0873 -0.2930 -0.7305
13024TIP3    H160487   0.485   5.068   3.246  0.4723 -0.7153 -0.8752
13024TIP3    H260488   0.344   5.011   3.257 -0.4634  1.3839 -1.5016
13025TIP3   OH260489   4.774   0.643  14.602 -0.2299 -0.2642 -0.5332
13025TIP3    H160490   4.853   0.641  14.548 -0.1481 -0.2193 -0.4144
13025TIP3    H260491   4.798   0.595  14.681 -0.1808  0.1472 -0.3006
13026TIP3   OH260492   5.212   5.385  13.777  0.2589 -0.2788  0.0741
13026TIP3    H160493   5.236   5.315  13.836 -0.0773 -0.5198 -0.0717
13026TIP3    H260494   5.261   5.367  13.696  0.2023 -0.3261  0.0501
13027TIP3   OH260495   1.976   3.140   3.719 -0.6234 -0.0922 -0.4795
13027TIP3    H160496   2.039   3.184   3.662  0.3466  0.5351  0.9966
13027TIP3    H260497   2.010   3.051   3.729 -0.4281 -0.0082 -0.3757
13028TIP3   OH260498   3.047   1.676  10.548 -0.2402  0.7508 -0.4173
13028TIP3    H160499   3.055   1.712  10.460  0.0317  0.4602 -0.5153
13028TIP3    H260500   2.968   1.716  10.584 -2.0062 -1.2646 -1.8065
13029TIP3   OH260501   0.420   5.372   2.433  0.0800 -1.0643 -0.3437
13029TIP3    H160502   0.481   5.362   2.506  0.4191 -0.4156 -0.5276
13029TIP3    H260503   0.348   5.313   2.453  0.2519 -1.0155  0.4266
13030TIP3   OH260504   4.044   2.096   0.051 -0.2243 -0.4511 -0.3699
13030TIP3    H160505   4.116   2.062  -0.002  1.0880  1.7598 -0.1573
13030TIP3    H260506   4.013   2.021   0.101  1.8303 -1.5364 -0.6232
13031TIP3   OH260507   4.073   1.629   2.216 -0.2205  0.2284  0.1219
13031TIP3    H160508   4.011   1.699   2.199 -1.0943 -0.8127 -1.1393
13031TIP3    H260509   4.021   1.558   2.253 -0.0314 -1.0054 -1.8113
13032TIP3   OH260510   1.302   2.379  12.634 -1.3917  0.2096 -0.2136
13032TIP3    H160511   1.311   2.366  12.728 -1.6146  0.2664 -0.1837
13032TIP3    H260512   1.282   2.473  12.625  0.2135  0.5593 -0.4239
13033TIP3   OH260513   1.842   0.824   0.280  0.3874  0.2629  0.7250
13033TIP3    H160514   1.857   0.918   0.276 -0.2748  0.4198 -3.4468
13033TIP3    H260515   1.905   0.792   0.344  1.5833  3.3815  1.3061
13034TIP3   OH260516   6.642   1.932   4.473  0.3197 -0.4803  0.6233
13034TIP3    H160517   6.645   2.011   4.526  2.6629 -0.3727  0.4086
13034TIP3    H260518   6.607   1.961   4.389  1.5564  0.4517  0.4043
13035TIP3   OH260519   1.276   6.273  11.589 -0.1528 -0.5543 -0.1352
13035TIP3    H160520   1.342   6.278  11.658  1.7669 -0.1139 -1.8739
13035TIP3    H260521   1.309   6.332  11.521 -1.1302 -2.1449 -2.0869
13036TIP3   OH260522   3.355   2.607  12.093  0.3065  0.1170  1.0151
13036TIP3    H160523   3.440   2.569  12.117  1.0822  0.1833 -1.3705
13036TIP3    H260524   3.322   2.643  12.175  2.0823 -0.8501  2.2417
13037TIP3   OH260525   6.107   0.352  11.461 -0.5615  0.4161  0.0100
13037TIP3    H160526   6.201   0.344  11.445 -0.3619  1.2585  0.6936
13037TIP3    H260527   6.068   0.275  11.418  0.4583 -0.0816 -0.0358
13038TIP3   OH260528   4.437   4.245   2.995  0.1952  0.0643  0.3747
13038TIP3    H160529   4.400   4.163   3.029  0.1720 -0.2014 -0.2773
13038TIP3    H260530   4.363   4.288   2.952  0.6419 -0.5325 -1.0520
13039TIP3   OH260531   3.666   3.411   5.267  0.0654 -0.8722 -0.2730
13039TIP3    H160532   3.640   3.367   5.347  0.6891 -0.2892  0.2647
13039TIP3    H260533   3.754   3.379   5.248  1.0909  1.0672  0.8726
13040TIP3   OH260534   5.636   1.944  12.527 -0.2367 -0.6553 -0.0461
13040TIP3    H160535   5.680   1.867  12.490  0.1834 -0.7728  0.6757
13040TIP3    H260536   5.600   1.990  12.451  1.1389 -0.5541 -0.6667
13041TIP3   OH260537   0.443   3.749  14.782 -0.3930  0.5825 -0.6963
13041TIP3    H160538   0.479   3.756  14.694 -1.6750  1.4242 -1.1741
13041TIP3    H260539   0.375   3.816  14.786 -1.3455 -0.4036  0.4471
13042TIP3   OH260540   4.358   2.918  12.618  0.3551 -0.2202  0.1684
13042TIP3    H160541   4.378   3.011  12.611  1.2233 -0.3510  0.8317
13042TIP3    H260542   4.330   2.906  12.709 -0.1946 -0.5260 -0.0357
13043TIP3   OH260543   4.560   0.296  10.624 -0.1973  0.1560  0.3024
13043TIP3    H160544   4.624   0.227  10.642  1.0763  1.7213  2.3404
13043TIP3    H260545   4.601   0.349  10.556 -0.1825  0.0932  0.2623
13044TIP3   OH260546   6.505   0.638  15.491 -0.1808 -0.0197 -0.0149
13044TIP3    H160547   6.477   0.553  15.456  1.3672  0.2618 -2.1258
13044TIP3    H260548   6.488   0.700  15.420  0.9534  1.0052  0.5698
13045TIP3   OH260549   1.839   0.807  11.426 -0.3917 -0.0369  0.7475
13045TIP3    H160550   1.862   0.723  11.387 -1.1860  0.2151 -0.3346
13045TIP3    H260551   1.915   0.862  11.411 -0.8201  0.1760 -0.8857
13046TIP3   OH260552   4.612   4.592   0.146 -0.6030  0.2486 -0.0447
13046TIP3    H160553   4.611   4.499   0.172 -1.7117  0.8673  2.4836
13046TIP3    H260554   4.519   4.615   0.137 -0.3920  1.3781  0.5255
13047TIP3   OH260555   0.999   4.954   1.877 -0.4990 -0.5307 -0.1442
13047TIP3    H160556   0.944   5.032   1.876  0.8782  0.6045  2.3228
13047TIP3    H260557   1.037   4.951   1.789 -0.8831  1.3813 -0.4301
13048TIP3   OH260558   2.512   6.037   4.246 -0.1245 -0.2831  0.1342
13048TIP3    H160559   2.548   6.124   4.266 -3.8976  2.2216 -2.4029
13048TIP3    H260560   2.553   6.013   4.163 -1.4115  0.8029 -0.8712
13049TIP3   OH260561   5.386   3.387  13.282  0.2178 -0.1104  0.5605
13049TIP3    H160562   5.365   3.346  13.198 -0.6469  0.1496  0.6453
13049TIP3    H260563   5.469   3.433  13.265 -0.0077  0.0384 -0.1867
13050TIP3   OH260564   4.846   1.101  15.030  0.0186  0.2128  0.4128
13050TIP3    H160565   4.936   1.101  15.062  0.0799 -0.2195  0.2444
13050TIP3    H260566   4.841   1.024  14.973  0.0906  1.3101 -1.1300
13051TIP3   OH260567   0.678   3.406  11.366  0.1983  0.1000  0.1829
13051TIP3    H160568   0.709   3.316  11.355 -1.0492 -0.2561 -0.6526
13051TIP3    H260569   0.583   3.399  11.370  0.0014  1.4525 -0.9561
13052TIP3   OH260570   1.023   5.332   2.651  0.5111  0.0753  0.0596
13052TIP3    H160571   1.107   5.289   2.661 -0.4226 -1.9755 -0.4545
13052TIP3    H260572   1.040   5.404   2.590  1.9018 -0.1885  0.1069
13053TIP3   OH260573   6.763   4.385   4.221 -0.1421 -0.4811 -0.0519
13053TIP3    H160574   6.856   4.403   4.207 -0.5780  0.6919 -1.7591
13053TIP3    H260575   6.742   4.316   4.158 -0.1257 -1.8427  1.3812
13054TIP3   OH260576   1.866   5.666   1.661 -0.4003  0.2981  0.6645
13054TIP3    H160577   1.820   5.743   1.695  1.0678  0.7696  1.6995
13054TIP3    H260578   1.846   5.665   1.568 -0.7686  1.7264  0.7114
13055TIP3   OH260579   4.559   2.488   2.956  0.4110 -0.0749  0.1210
13055TIP3    H160580   4.606   2.405   2.945 -0.3643 -0.6149  0.7887
13055TIP3    H260581   4.526   2.485   3.046  2.3103  1.9661  0.9792
13056TIP3   OH260582   2.816   4.511   3.768  0.5072 -0.0632  0.9085
13056TIP3    H160583   2.900   4.555   3.772 -0.4204  2.4067 -2.1854
13056TIP3    H260584   2.824   4.452   3.692 -0.3649 -0.2737  0.9708
13057TIP3   OH260585   5.226   1.478   2.932 -0.0786 -0.1782  0.5132
13057TIP3    H160586   5.197   1.569   2.920  0.9125 -0.1231 -2.1087
13057TIP3    H260587   5.317   1.485   2.959  1.5579 -0.1916 -4.1321
13058TIP3   OH260588   4.445   5.089  12.873  0.3784 -0.1130 -0.1974
13058TIP3    H160589   4.445   5.150  12.946  0.3958 -2.9081  2.3116
13058TIP3    H260590   4.354   5.085  12.844 -0.4353 -1.7511  2.3039
13059TIP3   OH260591   0.624   3.179  13.510  0.3962  0.2235  0.2318
13059TIP3    H160592   0.695   3.119  13.488  0.4806  0.3660  0.1174
13059TIP3    H260593   0.647   3.211  13.597  0.6782  0.5737  0.0306
13060TIP3   OH260594   1.336   5.815  12.832  0.5509 -0.3485 -0.0485
13060TIP3    H160595   1.256   5.830  12.781 -0.2300 -0.8569  0.9641
13060TIP3    H260596   1.345   5.720  12.835  0.8735 -0.3107  0.3008
13061TIP3   OH260597   4.815   4.869  11.635  0.2548 -0.0303  0.1817
13061TIP3    H160598   4.859   4.929  11.695  0.9900 -0.3518 -0.0276
13061TIP3    H260599   4.721   4.885  11.650  0.4332  0.4849  0.8087
13062TIP3   OH260600   0.425   4.582  10.908  0.0645 -0.2633 -0.1355
13062TIP3    H160601   0.509   4.552  10.944 -0.8676 -0.1116  2.3658
13062TIP3    H260602   0.399   4.654  10.965 -0.7653  1.1623 -2.2092
13063TIP3   OH260603   4.482   0.754   4.464  0.6383 -0.4473 -0.0813
13063TIP3    H160604   4.460   0.735   4.372  2.7041 -2.7958 -0.1997
13063TIP3    H260605   4.401   0.736   4.512 -0.1940 -0.1659 -1.3081
13064TIP3   OH260606   4.195   0.704  11.317  0.1910 -0.2816 -0.4645
13064TIP3    H160607   4.280   0.748  11.309  0.0030 -0.0153 -1.0642
13064TIP3    H260608   4.160   0.704  11.228 -0.5517 -0.1676 -0.1770
13065TIP3   OH260609   3.871   2.574  14.205  0.2172 -0.6024  0.3197
13065TIP3    H160610   3.931   2.643  14.175 -1.0089  0.2192 -0.3192
13065TIP3    H260611   3.901   2.555  14.295  2.0458 -0.9563 -0.3181
13066TIP3   OH260612   1.771   3.976  11.880  0.0456 -0.8027 -0.3385
13066TIP3    H160613   1.710   4.050  11.875  1.3446  0.4310  0.7861
13066TIP3    H260614   1.807   3.982  11.969  0.5262 -2.5361 -0.3844
13067TIP3   OH260615   2.116   3.578  10.627 -0.9539  0.1704  1.0222
13067TIP3    H160616   2.205   3.589  10.595 -1.7131  0.2979 -1.2289
13067TIP3    H260617   2.120   3.500  10.683  0.1266 -1.4396 -1.1344
13068TIP3   OH260618   2.771   0.444  15.568  0.0389 -0.3338  0.6285
13068TIP3    H160619   2.745   0.535  15.558 -0.1300 -0.2058  2.0586
13068TIP3    H260620   2.861   0.448  15.603  0.1309 -0.7122  0.4454
13069TIP3   OH260621   3.524   1.405   1.854  0.3265  0.2704  0.1076
13069TIP3    H160622   3.429   1.417   1.845  0.3328  0.4444  0.2531
13069TIP3    H260623   3.549   1.468   1.921  0.4896 -0.0423  0.3384
13070TIP3   OH260624   2.496   1.459  14.782  0.2957  0.0537  0.1738
13070TIP3    H160625   2.414   1.420  14.811 -0.5746  0.3052 -1.8188
13070TIP3    H260626   2.553   1.385  14.765 -0.2106 -0.2043 -0.3920
13071TIP3   OH260627   6.042   6.189   0.538 -0.4036  0.3186 -0.4410
13071TIP3    H160628   6.089   6.207   0.619  0.0414  1.5425 -0.9375
13071TIP3    H260629   6.109   6.185   0.470 -0.8095 -0.2282 -0.8262
13072TIP3   OH260630   1.576   5.775  10.338 -0.0139  0.1305  0.3074
13072TIP3    H160631   1.617   5.841  10.282  0.2122 -1.5219 -1.5689
13072TIP3    H260632   1.483   5.795  10.335  0.0354  0.2690 -0.3932
13073TIP3   OH260633   0.162   3.933   5.336 -0.2878  0.9960 -0.1965
13073TIP3    H160634   0.091   3.996   5.322 -0.1654  0.7777 -2.0672
13073TIP3    H260635   0.242   3.984   5.323 -0.1431  0.8535  0.1398
13074TIP3   OH260636   0.642   2.000  10.381 -0.3193  0.4645  0.0644
13074TIP3    H160637   0.677   2.083  10.349  1.8300 -1.3034 -2.5818
13074TIP3    H260638   0.552   2.020  10.407  1.0735  4.3220  2.9849
13075TIP3   OH260639   0.807   6.808   2.524 -0.0368 -0.8374  0.1739
13075TIP3    H160640   0.750   6.850   2.588 -0.4262 -1.5061  0.2685
13075TIP3    H260641   0.748   6.770   2.460  0.3517  1.5103 -1.7315
13076TIP3   OH260642   4.615   2.548  14.402  0.2983 -0.7064  0.3240
13076TIP3    H160643   4.639   2.510  14.487  0.1204  0.7318  1.0455
13076TIP3    H260644   4.660   2.632  14.400  2.0116 -1.5610 -1.9419
13077TIP3   OH260645   2.645   4.167   1.947 -0.3360  0.1052 -0.5930
13077TIP3    H160646   2.652   4.149   1.854 -3.1107  1.9865 -1.2833
13077TIP3    H260647   2.562   4.214   1.957  0.6091  1.4071  2.5968
13078TIP3   OH260648   3.141   6.629  12.733 -0.0833  0.3566 -1.0109
13078TIP3    H160649   3.116   6.721  12.744  0.1341  0.2884  0.1208
13078TIP3    H260650   3.236   6.629  12.746 -0.3289 -0.3143  1.0690
13079TIP3   OH260651   0.050   2.553  14.815 -0.5290  0.4507  0.3919
13079TIP3    H160652   0.015   2.642  14.816 -0.6856  0.4103  2.0125
13079TIP3    H260653   0.144   2.564  14.832 -0.7215  0.2775  1.6727
13080TIP3   OH260654   5.749   2.837  15.297  0.4249  0.1785 -0.2621
13080TIP3    H160655   5.758   2.891  15.376 -1.2465 -0.1033  0.1502
13080TIP3    H260656   5.826   2.779  15.299  0.1644 -0.1636  1.4403
13081TIP3   OH260657   6.602   2.654   9.748 -0.1444 -0.1598  0.0143
13081TIP3    H160658   6.688   2.633   9.712  0.7165  0.5232  1.5800
13081TIP3    H260659   6.562   2.711   9.682  0.5834 -0.5017 -0.7370
13082TIP3   OH260660   6.027   1.590  12.021  0.1563  0.5773 -0.3310
13082TIP3    H160661   6.001   1.560  11.934 -2.5677 -0.3810  0.7034
13082TIP3    H260662   6.081   1.519  12.057 -1.2193 -0.4047 -0.1545
13083TIP3   OH260663   3.714   1.940  14.330  0.2830 -0.2543 -0.1160
13083TIP3    H160664   3.794   1.993  14.330 -0.6762  1.2848  0.8240
13083TIP3    H260665   3.712   1.899  14.243  1.3155  0.9057 -0.7179
13084TIP3   OH260666   3.265   0.974   1.400 -0.2435 -0.1575 -0.3602
13084TIP3    H160667   3.297   0.887   1.374 -0.2094 -0.4142  0.5260
13084TIP3    H260668   3.343   1.019   1.432 -0.6839 -0.6951  1.5669
13085TIP3   OH260669   1.167   4.439  12.624 -0.1805  0.2236 -0.4253
13085TIP3    H160670   1.106   4.490  12.677  0.3844  0.0373  0.4150
13085TIP3    H260671   1.254   4.472  12.648  0.1744 -0.9479 -0.0538
13086TIP3   OH260672   6.291   1.551  10.234  0.4331  0.2055  0.3237
13086TIP3    H160673   6.285   1.620  10.167 -0.7742  1.3239  1.5226
13086TIP3    H260674   6.378   1.561  10.271  1.6328 -1.2549 -1.8632
13087TIP3   OH260675   4.357   5.231   0.600 -0.1267  0.2723 -0.6764
13087TIP3    H160676   4.378   5.282   0.522 -3.4833 -0.7736 -2.4566
13087TIP3    H260677   4.388   5.143   0.580  0.0557  0.2510 -0.3120
13088TIP3   OH260678   3.323   5.846   0.507 -0.1589  0.3812  0.6182
13088TIP3    H160679   3.240   5.800   0.501  0.4819 -0.8069  0.5264
13088TIP3    H260680   3.300   5.939   0.507 -1.5479  0.0685  1.6337
13089TIP3   OH260681   5.968   1.135  11.706  0.0324 -0.2252  0.2914
13089TIP3    H160682   6.017   1.176  11.635 -1.8717  0.6478 -0.5912
13089TIP3    H260683   5.948   1.047  11.673 -0.0210 -0.1590  0.1442
13090TIP3   OH260684   0.868   0.556  11.854 -0.3423 -0.1626  0.0768
13090TIP3    H160685   0.889   0.526  11.942 -0.1475  2.9288  1.2313
13090TIP3    H260686   0.919   0.636  11.843 -1.2513  0.1762 -2.3927
13091TIP3   OH260687   0.096   4.189  15.116 -0.2673  0.1219  0.3512
13091TIP3    H160688   0.137   4.275  15.128 -0.9445  0.2179  2.3542
13091TIP3    H260689   0.093   4.177  15.022 -0.5963  2.5362 -0.0215
13092TIP3   OH260690   5.466   0.851  13.458  0.1522  0.2987 -0.7599
13092TIP3    H160691   5.530   0.906  13.505  0.1200 -0.4866  0.2363
13092TIP3    H260692   5.511   0.827  13.377  0.6356  0.7997 -0.6514
13093TIP3   OH260693   6.623   3.223   1.302  0.0172  0.5500 -0.3491
13093TIP3    H160694   6.558   3.209   1.371 -0.8292  0.6904 -1.1034
13093TIP3    H260695   6.583   3.188   1.223  1.3605 -0.4605 -0.6200
13094TIP3   OH260696   6.615   1.158  13.151  0.1841  0.4052 -0.6489
13094TIP3    H160697   6.529   1.171  13.191  1.2897  3.7608  1.0685
13094TIP3    H260698   6.617   1.219  13.078  0.6498 -0.6465 -1.5335
13095TIP3   OH260699   4.022   6.390  16.330 -0.0145  0.1372 -0.4657
13095TIP3    H160700   4.072   6.357  16.255  0.5568 -0.3831  0.1366
13095TIP3    H260701   4.077   6.372  16.406 -0.9140 -0.0357  0.1651
13096TIP3   OH260702   2.739   6.712  12.374 -0.1918  0.5493  0.4226
13096TIP3    H160703   2.674   6.646  12.351 -0.1138  0.2121  1.1395
13096TIP3    H260704   2.749   6.703  12.469 -0.1694  1.5787  0.5300
13097TIP3   OH260705   3.230   2.466   2.125 -0.0444  0.7853 -0.2129
13097TIP3    H160706   3.245   2.402   2.056 -1.2981 -0.0798  0.2728
13097TIP3    H260707   3.250   2.550   2.084  1.1327  0.1391 -1.0162
13098TIP3   OH260708   3.036   4.016   5.026  0.0613  0.7133 -0.1669
13098TIP3    H160709   2.962   4.065   5.062  0.4100  0.8362  0.3944
13098TIP3    H260710   3.097   4.083   4.997  0.3220  0.6169  0.1491
13099TIP3   OH260711   6.432   3.766   2.185 -0.3587  0.1405  0.2889
13099TIP3    H160712   6.418   3.681   2.144 -0.4742 -0.3896  1.3830
13099TIP3    H260713   6.489   3.814   2.124  1.5495 -1.5243  0.6735
13100TIP3   OH260714   3.162   5.795   1.541  0.3176 -0.7898 -0.0345
13100TIP3    H160715   3.122   5.711   1.563  0.0337 -1.0169 -1.3696
13100TIP3    H260716   3.088   5.853   1.522  0.4934 -0.1077  1.2431
13101TIP3   OH260717   3.260   4.568  15.384 -0.1934 -0.2929 -0.1010
13101TIP3    H160718   3.227   4.621  15.457  0.1402 -0.4252  0.1468
13101TIP3    H260719   3.312   4.630  15.332 -0.2875 -0.2395 -0.1313
13102TIP3   OH260720   4.087   4.406   1.335  0.3278 -0.6086  0.4805
13102TIP3    H160721   4.034   4.448   1.403 -0.5269  0.4273 -0.7640
13102TIP3    H260722   4.167   4.459   1.330 -0.3582  0.3884 -0.4656
13103TIP3   OH260723   2.307   6.158  12.943  0.4185 -0.2300  0.3342
13103TIP3    H160724   2.233   6.175  13.001  1.0559  2.4883  0.4866
13103TIP3    H260725   2.354   6.085  12.984 -0.3303  0.2119  2.0644
13104TIP3   OH260726   2.592   5.070   3.111  0.1853 -0.9005 -0.2856
13104TIP3    H160727   2.628   5.039   3.194  0.8449 -3.6127 -1.5077
13104TIP3    H260728   2.498   5.051   3.117  0.0006  0.1203  0.3106
13105TIP3   OH260729   4.801   2.649   6.303  0.2214  0.7006 -0.2898
13105TIP3    H160730   4.715   2.607   6.305  0.5083 -0.1357 -2.5723
13105TIP3    H260731   4.787   2.728   6.250  0.4737  1.6215  0.9698
13106TIP3   OH260732   3.495   1.932  10.942 -0.2011 -0.2290  0.3477
13106TIP3    H160733   3.406   1.925  10.975 -0.9105 -1.1541 -1.6324
13106TIP3    H260734   3.544   1.865  10.990 -0.5364  0.3072  1.4672
13107TIP3   OH260735   3.677   4.251   5.093 -0.2802  0.7548 -0.3923
13107TIP3    H160736   3.636   4.170   5.124  0.0779  0.5183 -0.5344
13107TIP3    H260737   3.743   4.271   5.160  0.8894 -0.0649 -1.2697
13108TIP3   OH260738   6.523   0.634  10.676  0.3080  0.0422  0.0472
13108TIP3    H160739   6.512   0.591  10.591  2.7530 -0.6837  0.0100
13108TIP3    H260740   6.595   0.586  10.718  1.8522  2.8505  0.8450
13109TIP3   OH260741   6.882   1.088   0.476 -0.4824  0.3490 -0.0335
13109TIP3    H160742   6.876   1.083   0.381 -0.4647  1.3134 -0.0919
13109TIP3    H260743   6.844   1.005   0.507 -0.0393 -0.1847 -0.8844
13110TIP3   OH260744   2.465   5.219  13.348 -0.4173 -0.2126  0.3519
13110TIP3    H160745   2.440   5.152  13.413 -0.8037 -0.4158 -0.0013
13110TIP3    H260746   2.525   5.276  13.395  1.5471 -1.9442  0.1207
13111TIP3   OH260747   4.158   4.274   2.593 -0.3800 -0.1361  0.3728
13111TIP3    H160748   4.223   4.212   2.562 -0.5516 -1.4151  2.3897
13111TIP3    H260749   4.079   4.222   2.605 -0.4549  0.3696  2.3485
13112TIP3   OH260750   5.168   0.427  16.703 -0.3775  0.2215  0.5855
13112TIP3    H160751   5.260   0.422  16.730 -0.3465 -0.9455  0.3246
13112TIP3    H260752   5.126   0.479  16.771  0.1030 -0.9224  1.8132
13113TIP3   OH260753   5.065   4.746   3.848  0.7215  0.4260  0.4050
13113TIP3    H160754   5.096   4.762   3.937  1.8286 -0.8783  0.2823
13113TIP3    H260755   5.138   4.775   3.792  0.1394  0.9991 -0.0755
13114TIP3   OH260756   3.549   1.713   0.492 -0.0503  0.1033 -0.2414
13114TIP3    H160757   3.482   1.726   0.559  1.2606  1.5310  0.8615
13114TIP3    H260758   3.514   1.755   0.414 -0.9090 -0.1729 -0.0177
13115TIP3   OH260759   3.938   6.699  14.784 -0.6296 -0.2576  0.3494
13115TIP3    H160760   3.908   6.751  14.710  2.3271 -0.4095 -1.1209
13115TIP3    H260761   3.977   6.763  14.845 -0.1372 -0.4111  0.2030
13116TIP3   OH260762   0.939   2.645   4.594  0.1725  0.2196 -0.0173
13116TIP3    H160763   0.968   2.650   4.503 -0.4035 -2.3696 -0.4211
13116TIP3    H260764   1.014   2.605   4.640 -0.1436 -0.0202  0.2913
13117TIP3   OH260765   4.300   5.826   2.623 -0.0798  0.1284  0.0925
13117TIP3    H160766   4.221   5.868   2.589  0.1035  0.9334  0.6334
13117TIP3    H260767   4.279   5.803   2.713 -1.0974 -3.3854 -0.8967
13118TIP3   OH260768   0.106   6.781  10.582 -0.1564 -0.5535  0.0783
13118TIP3    H160769   0.036   6.834  10.545 -0.4493  0.2780  1.7549
13118TIP3    H260770   0.154   6.748  10.506 -1.2704  0.3487 -1.0436
13119TIP3   OH260771   4.826   4.405   3.868 -0.9791  0.0609  0.3940
13119TIP3    H160772   4.874   4.458   3.932 -0.7553  0.6039 -0.2069
13119TIP3    H260773   4.841   4.315   3.895  1.5127  0.1298 -0.5160
13120TIP3   OH260774   1.947   2.350   1.104 -0.0387  0.3709  0.7752
13120TIP3    H160775   1.863   2.395   1.101  0.5899  1.5507 -0.4205
13120TIP3    H260776   1.969   2.334   1.012  1.7352  1.5340  0.9424
13121TIP3   OH260777   2.510   5.602   5.523  0.0182  0.0080  0.0279
13121TIP3    H160778   2.439   5.642   5.472  0.7631  1.4786  0.0725
13121TIP3    H260779   2.509   5.649   5.606  0.1516 -0.9318  0.5645
13122TIP3   OH260780   4.812   0.548  14.881 -0.6136 -0.3119  0.4059
13122TIP3    H160781   4.758   0.497  14.941 -0.9844  0.2390  0.5464
13122TIP3    H260782   4.902   0.531  14.910 -0.7522 -0.5892  0.6794
13123TIP3   OH260783   6.560   0.011  13.461  0.0498  1.0076  0.2117
13123TIP3    H160784   6.526   0.065  13.532 -0.1786 -2.4983  3.0289
13123TIP3    H260785   6.655   0.006  13.477  0.0225  0.3096  0.1716
13124TIP3   OH260786   5.998   1.197  11.982 -0.2207 -0.2827 -0.1987
13124TIP3    H160787   6.091   1.180  11.999 -0.5222 -0.8878  0.9639
13124TIP3    H260788   5.984   1.165  11.893  0.4306 -1.2614  0.0304
13125TIP3   OH260789   6.317   0.162  11.763 -0.2067  0.5019 -0.3487
13125TIP3    H160790   6.237   0.137  11.716  0.0866  2.3850 -1.9902
13125TIP3    H260791   6.347   0.081  11.804 -2.3053 -0.5121 -0.6500
13126TIP3   OH260792   5.264   5.065   3.839 -0.0895  0.3043 -0.7106
13126TIP3    H160793   5.187   5.121   3.851 -0.2747 -0.0151 -0.3876
13126TIP3    H260794   5.324   5.118   3.787 -0.1778  0.8896 -0.2284
13127TIP3   OH260795   0.898   1.391  12.131  0.2280  0.4226  0.0588
13127TIP3    H160796   0.847   1.320  12.170  0.4292  0.6075  0.6741
13127TIP3    H260797   0.848   1.418  12.054  1.5008 -2.2832 -1.8734
13128TIP3   OH260798   3.803   1.869  12.765 -0.2474  0.3480  0.7631
13128TIP3    H160799   3.717   1.871  12.809  0.0679  0.4578  1.3879
13128TIP3    H260800   3.833   1.959  12.768 -0.0083  0.2677  0.7524
13129TIP3   OH260801   0.922   5.655   3.876 -0.0764 -0.3440 -0.1473
13129TIP3    H160802   0.885   5.740   3.852 -2.1417 -0.8539  1.0518
13129TIP3    H260803   0.973   5.629   3.799 -1.4214  0.8766 -1.5221
13130TIP3   OH260804   4.069   4.653  14.725  0.0224 -0.2450  0.1958
13130TIP3    H160805   4.084   4.560  14.740  3.7755  0.1800  0.1116
13130TIP3    H260806   4.125   4.675  14.651 -1.7515  1.8783 -0.6301
13131TIP3   OH260807   2.479   2.335  14.822 -0.3454 -0.5351  0.3555
13131TIP3    H160808   2.514   2.409  14.871 -1.0964  0.6500 -0.8199
13131TIP3    H260809   2.554   2.276  14.810  0.4440  0.3845  0.6726
13132TIP3   OH260810   5.918   0.086   3.561  0.0582  0.2279 -0.4865
13132TIP3    H160811   5.835   0.084   3.512 -0.2079  1.3582 -0.1039
13132TIP3    H260812   5.925   0.176   3.592  1.3019  0.0653 -0.2751
13133TIP3   OH260813   4.106   5.633   1.132 -0.0177 -0.2959  0.5266
13133TIP3    H160814   4.012   5.618   1.133 -0.4086  1.7584 -0.5423
13133TIP3    H260815   4.143   5.550   1.102 -1.4416 -1.1898  1.1105
13134TIP3   OH260816   0.651   3.604  14.877 -0.2695  0.1931 -0.0645
13134TIP3    H160817   0.562   3.636  14.860 -0.1934  0.9197  0.8194
13134TIP3    H260818   0.692   3.675  14.927  1.0787  0.2331 -1.1831
13135TIP3   OH260819   3.675   3.004   3.382 -0.0632 -0.0415 -0.0547
13135TIP3    H160820   3.699   2.911   3.386  0.2454  0.0725  0.9591
13135TIP3    H260821   3.724   3.038   3.307  0.0658 -0.6173 -0.2426
13136TIP3   OH260822   6.509   0.604  11.086 -0.8178 -0.1152  0.5560
13136TIP3    H160823   6.571   0.670  11.117 -0.9124 -0.7102  2.1123
13136TIP3    H260824   6.430   0.654  11.063 -0.8882  0.3308  1.7014
13137TIP3   OH260825   5.380   3.976   0.646  0.0179 -0.6898  0.0588
13137TIP3    H160826   5.466   4.007   0.618  0.2622 -1.3623  0.0327
13137TIP3    H260827   5.399   3.904   0.706 -0.5318 -1.2387 -0.4073
13138TIP3   OH260828   4.967   1.574   3.298  0.1294  0.1808  0.0502
13138TIP3    H160829   4.889   1.520   3.310  0.5297 -1.4506 -3.5053
13138TIP3    H260830   5.030   1.517   3.254  2.0600  2.4635 -0.3780
13139TIP3   OH260831   6.546   1.685   3.750  0.0232  0.7559 -0.2156
13139TIP3    H160832   6.635   1.683   3.786  0.2131  1.2920 -0.6508
13139TIP3    H260833   6.556   1.664   3.657 -0.2251  1.4705 -0.4128
13140TIP3   OH260834   2.342   6.125   1.756  0.4759  0.0866  0.4217
13140TIP3    H160835   2.314   6.084   1.675 -0.1379  0.6292  0.3545
13140TIP3    H260836   2.377   6.210   1.729 -1.0620  0.8787  0.8592
13141TIP3   OH260837   3.893   1.929   0.975  0.5801  0.0245  0.6615
13141TIP3    H160838   3.813   1.956   1.021 -0.4419  1.2578 -1.6736
13141TIP3    H260839   3.920   2.007   0.927  3.7825 -0.0816  2.0815
13142TIP3   OH260840   6.431   5.622   2.070 -0.2015  0.0774 -0.3103
13142TIP3    H160841   6.464   5.555   2.010 -0.3600  0.5679 -0.9517
13142TIP3    H260842   6.389   5.572   2.140 -0.8030 -0.4941 -1.0614
13143TIP3   OH260843   4.993   2.928   6.112  0.0841  0.1331 -0.2983
13143TIP3    H160844   5.000   2.981   6.033 -0.4012  2.1309  0.9167
13143TIP3    H260845   5.072   2.875   6.112  0.4543  0.6426 -1.7439
13144TIP3   OH260846   5.002   6.770   3.386 -0.0456 -0.4149  0.3450
13144TIP3    H160847   4.914   6.807   3.392  0.1402 -0.1552  2.0525
13144TIP3    H260848   5.018   6.733   3.472  1.7781  0.1469  0.2866
13145TIP3   OH260849   2.968   2.780  13.931 -0.3368 -0.1801 -0.3660
13145TIP3    H160850   2.954   2.711  13.866 -3.4998 -0.1127  0.0569
13145TIP3    H260851   2.892   2.774  13.989  0.6628  1.9278  1.3419
13146TIP3   OH260852   0.818   0.317   0.992  0.1859 -0.5454 -0.0236
13146TIP3    H160853   0.802   0.227   1.019  1.8408 -0.5610  0.9753
13146TIP3    H260854   0.903   0.315   0.949 -1.0558  0.0297 -2.7616
13147TIP3   OH260855   3.108   5.193  13.762  0.3570  0.1283  0.5059
13147TIP3    H160856   3.040   5.138  13.800  0.5439  0.3173  1.1218
13147TIP3    H260857   3.122   5.156  13.675 -0.4018 -0.0228  0.4383
13148TIP3   OH260858   4.182   1.496  11.466 -0.4237 -0.8538 -0.1785
13148TIP3    H160859   4.119   1.566  11.485 -1.2014 -1.8378  0.9904
13148TIP3    H260860   4.135   1.415  11.487  1.1170 -1.6309  0.4026
13149TIP3   OH260861   5.054   4.675  11.700  0.4668  0.1484  0.1332
13149TIP3    H160862   4.993   4.743  11.670  2.3382  1.4208 -0.9625
13149TIP3    H260863   5.141   4.711  11.683  1.5516 -2.5588 -0.5508
13150TIP3   OH260864   3.178   5.623  12.232 -0.0820 -0.2044  0.3997
13150TIP3    H160865   3.228   5.563  12.175 -0.4295 -2.2730  2.1498
13150TIP3    H260866   3.236   5.638  12.307 -0.7089  0.2431  0.7978
13151TIP3   OH260867   1.691   0.776  10.345  0.4609 -0.5594  0.6297
13151TIP3    H160868   1.667   0.699  10.396 -0.0138 -0.8420 -0.0119
13151TIP3    H260869   1.639   0.847  10.383  1.6926 -0.2994  1.9377
13152TIP3   OH260870   5.056   1.614   4.101  0.3786  0.1081 -0.1489
13152TIP3    H160871   5.073   1.627   4.194  1.2523 -0.3828 -0.2290
13152TIP3    H260872   5.112   1.679   4.057  0.4022 -0.0425 -0.3458
13153TIP3   OH260873   2.221   0.669   2.983  0.2479 -0.0105 -0.2673
13153TIP3    H160874   2.233   0.690   2.890 -0.7202 -1.7715 -0.8414
13153TIP3    H260875   2.285   0.724   3.028 -1.0272  2.8999 -1.7012
13154TIP3   OH260876   2.468   2.048  15.250  0.3070  0.1159 -0.0564
13154TIP3    H160877   2.428   1.978  15.300  0.1567 -0.2204 -0.6437
13154TIP3    H260878   2.394   2.097  15.214  0.4123  0.4685  0.1949
13155TIP3   OH260879   5.465   1.461  11.311 -0.4905 -0.3674  0.0612
13155TIP3    H160880   5.480   1.378  11.267 -0.0838  0.0103 -0.5232
13155TIP3    H260881   5.471   1.440  11.404 -0.7126 -1.0488 -0.0682
13156TIP3   OH260882   6.256   4.128  16.234 -0.0402 -0.2395  0.0967
13156TIP3    H160883   6.269   4.209  16.284 -1.8464  1.5193 -2.0312
13156TIP3    H260884   6.254   4.059  16.300  1.7172  1.3749  2.0077
13157TIP3   OH260885   4.572   0.471   3.413  0.0367  0.2775 -0.0784
13157TIP3    H160886   4.507   0.445   3.479 -0.5314 -0.2726 -0.8236
13157TIP3    H260887   4.625   0.537   3.456  0.2238 -0.6677  1.2198
13158TIP3   OH260888   6.309   0.920   1.633 -0.8169 -0.1621 -0.2593
13158TIP3    H160889   6.264   0.965   1.562  0.5934  0.7715 -0.6111
13158TIP3    H260890   6.289   0.828   1.620 -0.7916  0.0193 -1.7251
13159TIP3   OH260891   2.992   4.068  13.230 -0.0434 -0.0406 -0.2061
13159TIP3    H160892   2.947   4.096  13.310  1.7461  0.9664  0.5198
13159TIP3    H260893   2.942   4.107  13.159 -0.3113  1.0935  0.5733
13160TIP3   OH260894   2.270   3.153  12.459 -0.1394 -0.2783  0.6396
13160TIP3    H160895   2.282   3.246  12.477 -0.9393 -0.2126  0.8964
13160TIP3    H260896   2.286   3.144  12.366  1.6604 -0.1938  0.9051
13161TIP3   OH260897   4.096   5.748  10.805 -0.1178 -0.0314  0.4014
13161TIP3    H160898   4.005   5.766  10.827 -0.1826 -0.6908  0.7023
13161TIP3    H260899   4.093   5.675  10.744  0.1562  0.7381 -0.5637
13162TIP3   OH260900   3.953   1.844   3.485 -0.1498 -0.3175  0.3616
13162TIP3    H160901   3.895   1.802   3.421  0.9196 -2.0391  0.4401
13162TIP3    H260902   3.980   1.926   3.444 -0.7190 -0.6476 -0.7094
13163TIP3   OH260903   4.282   3.246   3.843 -0.3026 -0.3917  0.2641
13163TIP3    H160904   4.296   3.156   3.814 -1.4264 -0.4032 -0.3232
13163TIP3    H260905   4.207   3.240   3.902  0.6972 -0.0690  1.6081
13164TIP3   OH260906   4.805   5.257   0.399 -0.1184  0.4020  0.2939
13164TIP3    H160907   4.715   5.278   0.373  0.4906  2.6706 -0.1867
13164TIP3    H260908   4.828   5.181   0.346 -0.8263  1.5069 -1.7095
13165TIP3   OH260909   0.411   1.217   3.891  0.2092 -0.2776 -1.0204
13165TIP3    H160910   0.369   1.298   3.921  0.9814  0.3771 -1.6185
13165TIP3    H260911   0.498   1.219   3.931  0.1295 -0.9675 -0.8072
13166TIP3   OH260912   4.255   5.503  10.573 -0.4318  0.0200 -0.1330
13166TIP3    H160913   4.183   5.510  10.635 -1.9327 -0.9967 -1.6422
13166TIP3    H260914   4.262   5.589  10.533  0.6334  0.7170  1.4709
13167TIP3   OH260915   1.517   3.286   2.329  0.3501  0.1511 -0.0222
13167TIP3    H160916   1.596   3.308   2.378  0.6755  0.1755 -0.5574
13167TIP3    H260917   1.522   3.340   2.250  0.2567 -0.5220 -0.4953
13168TIP3   OH260918   0.843   6.051  16.401  0.7051 -0.5768  0.1593
13168TIP3    H160919   0.842   5.982  16.334  0.3737 -0.6160  0.2056
13168TIP3    H260920   0.895   6.014  16.473 -0.2983 -1.1728  0.5974
13169TIP3   OH260921   4.016   2.432   4.307  0.1954  0.9710  0.2431
13169TIP3    H160922   4.005   2.402   4.217  1.1074  2.8877 -0.5635
13169TIP3    H260923   4.091   2.381   4.340  0.1692  0.6081 -0.2450
13170TIP3   OH260924   2.214   0.222  14.612  0.3168 -0.3976  0.3521
13170TIP3    H160925   2.126   0.191  14.636  1.0904 -1.5612  1.8466
13170TIP3    H260926   2.221   0.309  14.650  0.2723 -0.8438  1.4146
13171TIP3   OH260927   1.037   3.021   3.083 -0.1371  0.4329  0.2194
13171TIP3    H160928   0.942   3.013   3.093 -0.0513  1.2746  2.1311
13171TIP3    H260929   1.070   3.027   3.172  1.8805 -1.2240 -0.3216
13172TIP3   OH260930   4.096   6.507  12.425  0.1998  0.4050 -0.4710
13172TIP3    H160931   4.045   6.524  12.504 -0.7137  0.5605 -1.0676
13172TIP3    H260932   4.185   6.534  12.446 -0.1175  0.8116  0.3687
13173TIP3   OH260933   5.260   6.359   0.292  0.2174  0.0664 -0.5186
13173TIP3    H160934   5.267   6.301   0.368  0.1251 -0.0174 -0.5741
13173TIP3    H260935   5.304   6.311   0.222 -0.9852 -0.5231 -0.9076
13174TIP3   OH260936   2.628   1.664  13.469 -0.2737  0.3592 -0.2696
13174TIP3    H160937   2.678   1.726  13.417  1.0796  0.7767  1.4450
13174TIP3    H260938   2.578   1.719  13.529  1.0655 -0.1576  1.3837
13175TIP3   OH260939   3.159   1.776  16.560  0.8373  0.5846  0.2232
13175TIP3    H160940   3.197   1.757  16.474 -0.1823 -1.5571  0.1767
13175TIP3    H260941   3.064   1.777  16.545  0.6201 -0.3101  1.3728
13176TIP3   OH260942   0.759   3.234   0.124 -0.0761 -0.5726  0.1876
13176TIP3    H160943   0.766   3.316   0.076  0.9646 -0.3954  0.6167
13176TIP3    H260944   0.721   3.172   0.061  1.3730 -0.3881 -0.9091
13177TIP3   OH260945   1.091   1.669   5.201  0.0859 -0.2526 -0.1619
13177TIP3    H160946   1.175   1.679   5.155 -0.2939 -1.0408 -1.0624
13177TIP3    H260947   1.080   1.575   5.210 -1.2015 -0.2048 -1.0213
13178TIP3   OH260948   5.657   3.913   2.788 -0.3597  0.0508  0.3332
13178TIP3    H160949   5.747   3.934   2.816 -0.4149 -0.6328  1.0689
13178TIP3    H260950   5.649   3.954   2.702 -0.7670  3.9177  1.9815
13179TIP3   OH260951   5.628   0.550  12.480 -0.0813  0.0517  0.3048
13179TIP3    H160952   5.566   0.599  12.426 -1.3346 -2.2414 -0.4752
13179TIP3    H260953   5.608   0.577  12.569 -2.5790 -0.8985  0.1189
13180TIP3   OH260954   0.402   4.980   4.229 -0.1090  0.1100 -0.3225
13180TIP3    H160955   0.337   4.910   4.236  1.2263 -1.1985 -0.5273
13180TIP3    H260956   0.373   5.032   4.154 -0.4187 -1.0027 -1.0009
13181TIP3   OH260957   3.178   3.633  13.339  0.0877 -0.7801 -0.1968
13181TIP3    H160958   3.202   3.613  13.430  0.7363  1.1500  0.0965
13181TIP3    H260959   3.128   3.557  13.311  0.2399 -1.6224  1.6337
13182TIP3   OH260960   5.003   3.517  11.726  0.3782 -0.1072  0.3842
13182TIP3    H160961   4.919   3.560  11.711 -0.2833 -1.3016  0.4957
13182TIP3    H260962   5.064   3.562  11.669 -0.2755  0.9747  0.5082
13183TIP3   OH260963   5.447   3.113  14.395  0.3691  0.2570 -0.8779
13183TIP3    H160964   5.510   3.091  14.463  0.5482  2.9040 -0.0752
13183TIP3    H260965   5.479   3.069  14.316  0.4579 -2.4329  0.5286
13184TIP3   OH260966   2.494   4.290  13.779  0.3249 -0.0030  0.0591
13184TIP3    H160967   2.400   4.288  13.764  0.6072 -1.7818 -2.0013
13184TIP3    H260968   2.511   4.377  13.814 -2.0045  0.5385  0.0053
13185TIP3   OH260969   2.213   5.289   4.471  0.2382  0.2249 -0.4016
13185TIP3    H160970   2.179   5.266   4.384 -0.1252 -0.1007 -0.1742
13185TIP3    H260971   2.136   5.290   4.527  0.7304 -1.7878  0.4007
13186TIP3   OH260972   3.754   6.792   3.967  0.4236  0.5120  0.9347
13186TIP3    H160973   3.675   6.823   4.012 -0.3088  2.4795 -1.4865
13186TIP3    H260974   3.823   6.796   4.033 -1.1143  0.5913  2.6054
13187TIP3   OH260975   2.347   0.858  14.577 -0.8424  0.1797 -0.0374
13187TIP3    H160976   2.413   0.871  14.509  1.0423  0.1202  1.6792
13187TIP3    H260977   2.397   0.845  14.657 -2.9168 -1.6991  1.0727
13188TIP3   OH260978   6.838   5.430  10.703 -0.3586  0.2215 -0.0453
13188TIP3    H160979   6.867   5.339  10.697 -2.5640 -0.4944 -0.9902
13188TIP3    H260980   6.792   5.435  10.787 -1.2498  0.1082 -0.5136
13189TIP3   OH260981   2.404   1.106  13.789  0.9123  0.2096  0.5067
13189TIP3    H160982   2.314   1.104  13.820  0.5384 -0.6103 -0.5857
13189TIP3    H260983   2.412   1.188  13.740  0.4141 -0.2594 -0.3725
13190TIP3   OH260984   0.508   4.291  15.209 -0.0118 -0.4814 -0.0183
13190TIP3    H160985   0.525   4.197  15.203  2.0753 -0.3767  2.3910
13190TIP3    H260986   0.541   4.326  15.126 -1.0335 -1.8556 -1.0615
13191TIP3   OH260987   5.726   0.212   5.151 -0.3428  0.8435 -0.3159
13191TIP3    H160988   5.730   0.161   5.070  1.1857  1.0205 -0.3811
13191TIP3    H260989   5.676   0.156   5.212  0.2687 -0.2123 -0.7538
13192TIP3   OH260990   4.310   5.489  16.284  0.4420  1.0005 -0.1403
13192TIP3    H160991   4.289   5.558  16.222 -0.1269  0.0122 -1.0863
13192TIP3    H260992   4.400   5.464  16.263 -0.7515 -1.5966 -2.9321
13193TIP3   OH260993   2.913   3.966  13.716 -0.2666 -0.0140  0.2533
13193TIP3    H160994   2.823   3.997  13.709 -1.0175 -1.8105  1.2372
13193TIP3    H260995   2.934   3.974  13.809  0.7031  0.5970  0.0051
13194TIP3   OH260996   4.002   4.954   5.176 -0.3824 -0.8416  0.3419
13194TIP3    H160997   4.015   4.978   5.085 -0.6098  0.1940  0.5692
13194TIP3    H260998   3.923   5.002   5.202 -1.4533 -2.6250  0.5466
13195TIP3   OH260999   1.417   4.163   3.693 -0.3965  0.2114 -0.0018
13195TIP3    H161000   1.459   4.082   3.720  2.0059  1.4358  0.2256
13195TIP3    H261001   1.473   4.198   3.624 -3.4900 -0.1741 -2.9781
13196TIP3   OH261002   2.077   3.862   3.078  0.1398 -0.2826 -0.2027
13196TIP3    H161003   2.053   3.955   3.077  0.3110 -0.2383 -0.6931
13196TIP3    H261004   2.019   3.823   3.142  0.8009  0.3620  0.8244
13197TIP3   OH261005   5.405   3.381  14.690  0.1786  0.1826  0.3736
13197TIP3    H161006   5.361   3.297  14.676  0.5662 -0.1619  1.1520
13197TIP3    H261007   5.415   3.387  14.785  1.0290  0.6546  0.2636
13198TIP3   OH261008   0.951   1.652   2.170  0.0016  0.1483 -0.6187
13198TIP3    H161009   0.859   1.666   2.191  0.4845  1.7602  0.5640
13198TIP3    H261010   0.986   1.739   2.151  1.8960  0.0041  1.7034
13199TIP3   OH261011   5.006   5.808   1.625  0.0269  0.5962  0.0571
13199TIP3    H161012   5.095   5.812   1.588 -0.1326 -0.2238 -0.4452
13199TIP3    H261013   4.951   5.779   1.552 -0.3930 -0.4573  0.7559
13200TIP3   OH261014   6.295   4.866   5.607 -0.1719  0.0046  0.1012
13200TIP3    H161015   6.374   4.894   5.560  0.1513 -0.7092  0.2060
13200TIP3    H261016   6.223   4.890   5.548 -0.2373  3.9940  1.4921
13201TIP3   OH261017   4.104   2.971  13.440  0.1978  0.4711 -0.3157
13201TIP3    H161018   4.026   3.010  13.402 -0.0888  1.0500  0.8138
13201TIP3    H261019   4.087   2.877  13.440 -1.7076  0.7118  2.3204
13202TIP3   OH261020   4.428   5.226   3.220  0.4111 -0.3831 -0.0921
13202TIP3    H161021   4.457   5.163   3.153  2.9183  1.5706 -0.9988
13202TIP3    H261022   4.438   5.311   3.178  0.9805  0.8500  2.3840
13203TIP3   OH261023   1.309   2.492  14.949  0.0538  0.2825 -0.0085
13203TIP3    H161024   1.310   2.450  14.863 -0.5263  0.4967 -0.1238
13203TIP3    H261025   1.221   2.529  14.956  0.0210  0.0571  0.7795
13204TIP3   OH261026   0.600   6.191   5.441 -0.2594 -0.2642 -0.9206
13204TIP3    H161027   0.635   6.105   5.462  1.1171  0.1655 -1.2834
13204TIP3    H261028   0.599   6.238   5.524  0.7003 -0.0727 -1.0037
13205TIP3   OH261029   6.895   6.875   3.334  1.0283 -0.0337  0.0163
13205TIP3    H161030   6.857   6.787   3.325  0.3952  0.1438  0.8113
13205TIP3    H261031   6.819   6.933   3.341  1.4435  0.5291 -0.0708
13206TIP3   OH261032   2.672   6.554   3.514  1.1890  0.3264 -0.7175
13206TIP3    H161033   2.736   6.547   3.443  2.3812 -0.1373  0.3585
13206TIP3    H261034   2.689   6.477   3.569 -0.0989  0.3649 -0.2227
13207TIP3   OH261035   2.460   1.965  12.299  0.0696 -0.0328 -0.4408
13207TIP3    H161036   2.384   2.021  12.314  1.0705  1.4586 -0.7653
13207TIP3    H261037   2.423   1.880  12.275 -1.4949  0.7714 -0.9870
13208TIP3   OH261038   1.025   4.002   3.850 -1.0453 -0.5013  0.2167
13208TIP3    H161039   1.000   3.990   3.942  0.4431  0.7393  0.8414
13208TIP3    H261040   0.955   4.057   3.814 -2.1181 -1.7512  0.3253
13209TIP3   OH261041   6.029   4.974  16.679  0.3027 -0.2694  0.3218
13209TIP3    H161042   6.005   5.053  16.630  1.5199 -0.5640 -0.7855
13209TIP3    H261043   5.947   4.924  16.684 -0.4801  1.0313  1.0142
13210TIP3   OH261044   3.248   3.996   4.694 -0.5270 -0.3734 -0.5369
13210TIP3    H161045   3.283   4.026   4.778  2.1601 -0.5026 -1.5122
13210TIP3    H261046   3.283   3.908   4.684  1.6214  0.6464 -2.9922
13211TIP3   OH261047   1.827   3.124   2.348 -0.3936  0.4287  0.1166
13211TIP3    H161048   1.922   3.123   2.358 -0.5478 -1.3779  2.0285
13211TIP3    H261049   1.796   3.172   2.425 -1.0091  3.0719 -1.6590
13212TIP3   OH261050   6.529   5.449   0.524  0.3944  0.6066 -0.0524
13212TIP3    H161051   6.470   5.382   0.490 -0.5821  1.4777 -0.1659
13212TIP3    H261052   6.481   5.488   0.598 -0.3850  3.0718 -1.7114
13213TIP3   OH261053   5.032   0.872  12.963 -0.4271 -0.3899  0.4704
13213TIP3    H161054   5.018   0.797  13.020 -0.4049 -0.8803 -0.1517
13213TIP3    H261055   4.977   0.942  12.999 -0.2355 -0.6188  1.2131
13214TIP3   OH261056   6.697   0.973  10.731  0.0400 -0.3502 -0.2062
13214TIP3    H161057   6.739   0.912  10.671  0.5601  0.7198 -0.9762
13214TIP3    H261058   6.604   0.951  10.728  0.3622 -1.9866  0.6204
13215TIP3   OH261059   4.693   2.025  12.488 -0.1417  0.3711  0.0001
13215TIP3    H161060   4.781   2.034  12.452 -0.6735 -0.9671 -1.7339
13215TIP3    H261061   4.644   1.974  12.423 -1.8232 -0.1326  1.5535
13216TIP3   OH261062   0.221   3.442   5.393  0.5889 -0.1265  0.0166
13216TIP3    H161063   0.263   3.521   5.426  0.1126  0.0662  0.1610
13216TIP3    H261064   0.280   3.411   5.324  1.7422 -0.6914  1.2089
13217TIP3   OH261065   6.009   3.410  16.194 -0.3138  0.0664 -0.4919
13217TIP3    H161066   6.008   3.487  16.250  1.7577  0.8120 -1.3595
13217TIP3    H261067   6.101   3.400  16.168 -0.8852 -1.3218 -2.2470
13218TIP3   OH261068   5.574   2.066  10.657  0.0672 -0.2963  0.2346
13218TIP3    H161069   5.607   2.149  10.625 -0.8178  0.1899  0.5545
13218TIP3    H261070   5.520   2.089  10.733  0.7716 -1.2674  1.0490
13219TIP3   OH261071   4.243   0.645   3.797 -0.5036  0.5187  0.2345
13219TIP3    H161072   4.302   0.624   3.870 -3.0946 -0.3060  2.2646
13219TIP3    H261073   4.258   0.738   3.781  0.6211  0.5699  1.3726
13220TIP3   OH261074   3.204   4.378  11.446 -0.6250 -0.0987  0.1407
13220TIP3    H161075   3.110   4.391  11.445 -0.5672  0.3248 -0.8227
13220TIP3    H261076   3.239   4.450  11.394 -0.0705 -2.2556 -2.7591
13221TIP3   OH261077   6.089   1.799   1.465 -0.0184  0.0082  0.5696
13221TIP3    H161078   6.028   1.853   1.414  0.3977 -0.1991 -0.1704
13221TIP3    H261079   6.044   1.782   1.547 -1.4489 -1.0649 -0.3768
13222TIP3   OH261080   6.262   0.495  13.693  0.1316  0.4681 -0.1074
13222TIP3    H161081   6.330   0.452  13.640  0.7729  0.6097  0.5801
13222TIP3    H261082   6.308   0.565  13.738 -0.5277  0.7100  0.1969
13223TIP3   OH261083   3.487   2.434  14.662 -0.1318 -0.7220  0.1587
13223TIP3    H161084   3.443   2.394  14.586 -0.7371 -2.4377  1.3404
13223TIP3    H261085   3.418   2.485  14.705 -0.0203 -0.4835  0.0573
13224TIP3   OH261086   6.397   1.730  13.791 -0.2503  1.0923  0.2272
13224TIP3    H161087   6.337   1.681  13.735  0.5115  0.7184 -0.2896
13224TIP3    H261088   6.343   1.761  13.863 -0.7931 -0.4566  0.5314
13225TIP3   OH261089   3.996   6.882  14.233 -0.1129 -0.0050  0.4898
13225TIP3    H161090   4.073   6.867  14.288 -0.4991 -0.3994  0.9338
13225TIP3    H261091   4.028   6.937  14.161  0.1598  1.5061  1.7126
13226TIP3   OH261092   0.788   5.051  15.123 -0.0570 -0.4583 -0.4384
13226TIP3    H161093   0.841   4.973  15.135 -0.2538 -0.4081  0.9405
13226TIP3    H261094   0.764   5.050  15.030  0.2174 -1.8440 -0.5171
13227TIP3   OH261095   3.742   1.309  15.635 -0.1991 -0.2618 -0.5101
13227TIP3    H161096   3.737   1.218  15.665  0.1348  0.4693  1.9919
13227TIP3    H261097   3.805   1.307  15.564  2.0027 -1.6288  1.3359
13228TIP3   OH261098   4.125   6.227  12.622  0.0640 -0.3746  0.3586
13228TIP3    H161099   4.081   6.308  12.598 -0.0815 -0.1981  1.1739
13228TIP3    H261100   4.217   6.252  12.631 -0.1890  0.0829  2.1210
13229TIP3   OH261101   6.840   5.025  15.391 -0.5895  0.0233  0.2972
13229TIP3    H161102   6.895   5.061  15.322  0.6879 -3.2756 -0.5977
13229TIP3    H261103   6.750   5.046  15.365 -0.1254 -0.9793 -2.3347
13230TIP3   OH261104   0.635   6.264  15.261  0.2798  0.6038 -0.5327
13230TIP3    H161105   0.540   6.256  15.256  0.2307  0.5949  0.2995
13230TIP3    H261106   0.667   6.221  15.182 -0.3182 -1.3687  0.2184
13231TIP3   OH261107   6.800   5.245   4.545  0.2854  0.1914 -0.1493
13231TIP3    H161108   6.873   5.211   4.598  0.4279  0.8255  0.0699
13231TIP3    H261109   6.811   5.340   4.548 -2.0885  0.4939  2.1406
13232TIP3   OH261110   3.894   4.322  11.484 -0.2165  0.0344 -0.5503
13232TIP3    H161111   3.985   4.293  11.481 -0.1923  0.1399 -1.0612
13232TIP3    H261112   3.860   4.299  11.397 -1.0983 -1.3752  0.1361
13233TIP3   OH261113   4.219   4.630  14.491 -0.2154 -0.3542  0.2503
13233TIP3    H161114   4.247   4.538  14.492 -2.2096 -1.0151 -0.1958
13233TIP3    H261115   4.171   4.639  14.409  0.5509  1.3049 -0.0425
13234TIP3   OH261116   0.963   0.809   1.340  0.0371  0.2955  0.3020
13234TIP3    H161117   0.988   0.889   1.388 -0.4202  0.5915  0.0491
13234TIP3    H261118   1.046   0.764   1.325  0.1122 -0.3619  2.3383
13235TIP3   OH261119   2.294   5.291  14.255  0.2609 -0.0728  0.0187
13235TIP3    H161120   2.332   5.206  14.276 -0.0688 -0.2104  0.0606
13235TIP3    H261121   2.202   5.272  14.235  0.0001  0.3717  0.7629
13236TIP3   OH261122   0.516   1.562  15.412 -0.0675 -0.8789 -0.3482
13236TIP3    H161123   0.572   1.497  15.453 -0.4900 -1.4181 -0.6070
13236TIP3    H261124   0.519   1.541  15.318 -0.8984 -1.0861 -0.3402
13237TIP3   OH261125   5.718   6.360  11.702  0.1068 -0.4471 -0.3013
13237TIP3    H161126   5.761   6.297  11.645  0.2139 -0.5583 -0.0999
13237TIP3    H261127   5.628   6.329  11.708  0.9340 -2.7505  2.7280
13238TIP3   OH261128   4.582   2.523   0.187  0.5366 -0.5492 -0.3623
13238TIP3    H161129   4.644   2.532   0.115  0.5850 -0.0324 -0.2583
13238TIP3    H261130   4.496   2.533   0.146  0.5098 -1.4797 -0.5402
13239TIP3   OH261131   2.674   1.095   4.678 -0.0481 -0.5447 -0.0005
13239TIP3    H161132   2.758   1.132   4.649 -1.0411  1.5153 -0.4095
13239TIP3    H261133   2.610   1.131   4.617 -1.3101 -1.8614  0.4891
13240TIP3   OH261134   3.934   3.425   3.684  0.4830 -0.1765 -0.8200
13240TIP3    H161135   3.894   3.338   3.692 -1.8172  0.9732  1.1942
13240TIP3    H261136   3.890   3.464   3.608 -0.6724  0.2822  0.0676
13241TIP3   OH261137   0.510   0.365  14.639  0.4431 -0.1889 -0.4830
13241TIP3    H161138   0.420   0.358  14.607 -0.2597 -1.2749  1.6105
13241TIP3    H261139   0.563   0.321  14.571 -0.8705 -1.5804 -0.6569
13242TIP3   OH261140   0.720   3.265  13.760 -0.6430  0.1019  0.0118
13242TIP3    H161141   0.667   3.298  13.833  0.8655  0.4383  1.0052
13242TIP3    H261142   0.704   3.170  13.760 -2.1488  0.3175 -0.5027
13243TIP3   OH261143   3.678   2.908   1.642 -0.2129 -0.1575 -0.0641
13243TIP3    H161144   3.698   2.898   1.549 -0.2738 -1.7539  0.0673
13243TIP3    H261145   3.762   2.932   1.682  0.0166 -0.3973 -0.4035
13244TIP3   OH261146   3.871   1.127  13.086 -0.3449 -0.3655 -0.0208
13244TIP3    H161147   3.829   1.154  13.004 -1.9030  2.8613  1.6374
13244TIP3    H261148   3.963   1.151  13.076 -0.5546  0.1595 -0.7452
13245TIP3   OH261149   1.092   5.038   2.838 -0.0025 -0.4147 -0.1065
13245TIP3    H161150   1.074   5.073   2.925 -2.2843 -0.8102 -0.3506
13245TIP3    H261151   1.095   4.943   2.851 -0.7126 -0.4951 -0.5117
13246TIP3   OH261152   1.887   1.984  15.434 -0.4533  0.0989  0.4747
13246TIP3    H161153   1.880   2.028  15.350  2.7580 -0.0123  0.0225
13246TIP3    H261154   1.818   2.023  15.488 -1.5011  1.3670 -1.6770
13247TIP3   OH261155   0.750   1.794   9.759  0.0939 -0.5165 -0.3148
13247TIP3    H161156   0.673   1.852   9.761 -0.2794 -1.0064 -0.3539
13247TIP3    H261157   0.801   1.820   9.835  0.1843  0.2086 -0.6093
13248TIP3   OH261158   1.589   2.647  12.521  0.0008 -0.4200  0.5247
13248TIP3    H161159   1.626   2.560  12.538  0.1897 -0.6275 -0.8106
13248TIP3    H261160   1.642   2.682  12.449 -1.3609 -0.0551 -0.3392
13249TIP3   OH261161   3.779   6.319  15.024  0.4431  0.2533 -0.8211
13249TIP3    H161162   3.775   6.414  15.012 -2.4539  0.0260 -2.8651
13249TIP3    H261163   3.787   6.284  14.935 -0.6948 -1.4139 -0.3116
13250TIP3   OH261164   5.816   6.627   0.000 -0.3125  0.4627 -0.0418
13250TIP3    H161165   5.819   6.686   0.075  0.0242 -1.1534  1.2701
13250TIP3    H261166   5.744   6.567   0.019  1.3015 -1.4764  0.2292
13251TIP3   OH261167   2.671   4.504  10.545  0.1887 -0.0753  0.1710
13251TIP3    H161168   2.606   4.546  10.489  0.9026  1.2931  0.3393
13251TIP3    H261169   2.722   4.576  10.582  0.3671 -0.9998  1.8211
13252TIP3   OH261170   5.634   3.910  14.052  0.3583  0.0601  0.8057
13252TIP3    H161171   5.728   3.901  14.066  0.3240 -0.7326  0.5846
13252TIP3    H261172   5.613   3.844  13.986 -0.0884  1.2720 -0.3378
13253TIP3   OH261173   2.031   3.406  15.639  0.6627 -0.2208  0.4824
13253TIP3    H161174   1.978   3.383  15.715 -1.4979  1.5092 -0.3943
13253TIP3    H261175   2.075   3.488  15.663  1.9834 -0.9551  0.7118
13254TIP3   OH261176   4.757   2.089  10.418 -0.0301  0.1939  0.2469
13254TIP3    H161177   4.784   1.998  10.426 -0.9947 -0.0631  0.6742
13254TIP3    H261178   4.839   2.139  10.424  0.3401 -0.5453  1.7381
13255TIP3   OH261179   6.010   0.038  15.182 -0.2298  0.0820  0.1408
13255TIP3    H161180   5.992   0.029  15.276 -0.0091 -0.0158  0.1739
13255TIP3    H261181   6.076  -0.028  15.164  0.8621  1.1095  0.2327
13256TIP3   OH261182   1.463   1.612  13.210 -0.0019  0.1486  0.7420
13256TIP3    H161183   1.383   1.643  13.167 -0.0514  0.7207  1.2339
13256TIP3    H261184   1.437   1.596  13.301  0.2930 -0.2804  0.7532
13257TIP3   OH261185   5.947   1.062  12.524 -0.2656 -0.5291 -0.2078
13257TIP3    H161186   5.931   1.058  12.618 -0.0961  2.1439  0.0086
13257TIP3    H261187   5.916   0.978  12.491 -0.8619 -1.3130  2.1380
13258TIP3   OH261188   4.552   1.738   3.063 -0.4299  0.7878  0.1346
13258TIP3    H161189   4.615   1.787   3.012  1.8073 -0.4321  1.5613
13258TIP3    H261190   4.554   1.778   3.150  0.5861 -1.0078  0.9955
13259TIP3   OH261191   5.029   5.689  10.571 -0.0996  0.0964 -0.1079
13259TIP3    H161192   5.012   5.604  10.531  0.1868 -0.1757  0.3487
13259TIP3    H261193   5.122   5.687  10.593  0.2025  0.9814 -1.1727
13260TIP3   OH261194   3.332   1.810  13.443  0.1770 -1.0132 -0.1399
13260TIP3    H161195   3.362   1.896  13.471  1.4686 -1.4206 -0.2426
13260TIP3    H261196   3.324   1.759  13.524  0.6711 -1.1893 -0.2036
13261TIP3   OH261197   5.162   2.533  12.503  0.2498  0.4450  0.0471
13261TIP3    H161198   5.252   2.512  12.476  0.5153  1.1993  0.3163
13261TIP3    H261199   5.117   2.448  12.503  1.0246  0.0186  0.1514
13262TIP3   OH261200   6.302   1.844  13.251  0.0255 -0.1579  0.6262
13262TIP3    H161201   6.279   1.828  13.160  0.0852 -1.6596  0.8347
13262TIP3    H261202   6.397   1.828  13.255 -0.0700 -0.6515  1.0482
13263TIP3   OH261203   0.863   4.304   1.563 -0.0106  0.6363 -0.3563
13263TIP3    H161204   0.880   4.371   1.496  0.8749  3.2442  2.2564
13263TIP3    H261205   0.946   4.296   1.610 -0.5430 -1.2847  0.3386
13264TIP3   OH261206   2.700   4.402  13.471 -0.0491  0.2880  0.2657
13264TIP3    H161207   2.612   4.398  13.510  0.1419 -1.4674  0.6115
13264TIP3    H261208   2.703   4.327  13.411  0.4866  1.5814 -1.4240
13265TIP3   OH261209   1.007   3.050   0.958  0.5962  0.1508  0.2172
13265TIP3    H161210   0.967   3.041   1.045  4.2071  0.2778  2.0368
13265TIP3    H261211   0.984   2.968   0.913 -1.8428  0.3417  0.9690
13266TIP3   OH261212   2.043   4.846  15.792  0.2602 -0.6919 -0.1294
13266TIP3    H161213   2.125   4.882  15.824  0.0550 -0.5876  0.2931
13266TIP3    H261214   2.067   4.796  15.714  0.2890  2.1169 -2.0520
13267TIP3   OH261215   4.887   5.379   1.677  0.1094  0.1601 -0.0239
13267TIP3    H161216   4.848   5.409   1.759 -1.1829 -0.5823 -0.3385
13267TIP3    H261217   4.951   5.313   1.704  2.0157  2.1398  0.5711
13268TIP3   OH261218   3.601   0.226   0.396  0.1429 -0.3666  0.2890
13268TIP3    H161219   3.575   0.220   0.487  1.7050  0.3793  0.8304
13268TIP3    H261220   3.564   0.148   0.354 -0.1302 -1.0042  1.6831
13269TIP3   OH261221   6.692   4.190   1.572  0.6121 -0.2058  0.3641
13269TIP3    H161222   6.632   4.262   1.592  0.7011 -0.4694  1.6948
13269TIP3    H261223   6.663   4.158   1.487  0.8436  1.6581 -0.4761
13270TIP3   OH261224   4.193   3.963   0.502 -0.4454  0.5431  0.4066
13270TIP3    H161225   4.152   3.946   0.417 -0.1066  0.7506  0.2002
13270TIP3    H261226   4.251   4.037   0.486 -0.3542  0.5611  0.8125
13271TIP3   OH261227   1.191   5.252  12.631 -0.2007 -0.4162 -0.0369
13271TIP3    H161228   1.237   5.222  12.552  2.2176  2.6568  0.0174
13271TIP3    H261229   1.224   5.196  12.701  0.6698 -0.6393 -0.6105
13272TIP3   OH261230   4.191   1.123   2.436 -0.7621  0.8049  0.2777
13272TIP3    H161231   4.245   1.050   2.466  0.2531  1.0251 -0.9429
13272TIP3    H261232   4.251   1.198   2.434 -1.3907  1.3062 -0.0289
13273TIP3   OH261233   6.045   3.212   3.454 -0.3664  0.4103 -0.0177
13273TIP3    H161234   5.981   3.165   3.508 -0.9551  0.8430 -0.3149
13273TIP3    H261235   5.999   3.226   3.371  0.7531 -0.8321 -0.8962
13274TIP3   OH261236   0.114   4.516   4.182  0.3777  0.0927 -0.4155
13274TIP3    H161237   0.083   4.528   4.093  1.9769  0.8560 -0.9233
13274TIP3    H261238   0.064   4.578   4.234 -0.4336 -0.2248 -0.8091
13275TIP3   OH261239   3.643   4.022  14.929  0.1394 -0.2612 -0.2469
13275TIP3    H161240   3.700   4.048  14.857 -0.9504  2.4505 -0.2523
13275TIP3    H261241   3.557   4.010  14.889 -0.4221  1.0340  0.4950
13276TIP3   OH261242   5.939   4.536   2.832 -0.3938 -0.2083 -0.4686
13276TIP3    H161243   5.978   4.555   2.746 -0.8162  0.3462 -0.5429
13276TIP3    H261244   6.012   4.505   2.885  0.1557  0.7931 -0.6121
13277TIP3   OH261245   0.616   3.749   2.675 -0.2416 -0.1398 -0.1646
13277TIP3    H161246   0.689   3.748   2.614 -1.3466  0.5018 -1.5443
13277TIP3    H261247   0.590   3.657   2.684  1.0826 -0.4547  0.8353
13278TIP3   OH261248   0.100   5.644   0.763  0.3607 -0.6560  0.2186
13278TIP3    H161249   0.179   5.600   0.734  1.2735 -0.1040  1.7473
13278TIP3    H261250   0.034   5.622   0.697  2.0893 -0.0980 -1.7898
13279TIP3   OH261251   3.185   1.820  16.250  0.3626  0.3091  1.1276
13279TIP3    H161252   3.243   1.778  16.185 -1.1876  0.3154 -0.3289
13279TIP3    H261253   3.105   1.838  16.202 -1.4946 -1.1543  3.4776
13280TIP3   OH261254   3.075   5.747  11.684  0.0859 -0.2808  0.3415
13280TIP3    H161255   3.012   5.820  11.683 -1.3520 -1.4458  1.0958
13280TIP3    H261256   3.157   5.786  11.656 -1.0176  1.2783 -0.9532
13281TIP3   OH261257   3.050   5.232  14.057  0.4925  0.3012 -0.0598
13281TIP3    H161258   3.099   5.150  14.059  2.4388  1.2584 -2.9762
13281TIP3    H261259   3.087   5.284  14.128  0.1615 -0.7857  0.9445
13282TIP3   OH261260   1.812   1.309   0.469  0.4435  0.1258  0.3870
13282TIP3    H161261   1.726   1.329   0.434 -0.0164 -0.4970  1.1296
13282TIP3    H261262   1.872   1.329   0.397 -0.1993  1.6697  0.2445
13283TIP3   OH261263   0.796   0.593   2.532  0.5850 -0.1767  0.8322
13283TIP3    H161264   0.827   0.505   2.510 -0.3280 -0.0991 -0.9744
13283TIP3    H261265   0.702   0.590   2.514  0.4784  1.0789  1.1008
13284TIP3   OH261266   6.278   3.624   1.688 -0.6411 -0.1980  0.4618
13284TIP3    H161267   6.259   3.608   1.595  1.3639  2.6191 -0.5829
13284TIP3    H261268   6.218   3.694   1.712 -0.1029  0.1467  0.8116
13285TIP3   OH261269   1.229   2.951  13.593 -0.4158 -0.2116  0.0642
13285TIP3    H161270   1.251   2.873  13.542  0.8790  0.3101 -0.1996
13285TIP3    H261271   1.198   3.014  13.527 -0.7733 -0.2480  0.1933
13286TIP3   OH261272   4.315   5.362   5.734 -0.1734 -0.0135 -0.0419
13286TIP3    H161273   4.343   5.381   5.644  1.0351 -3.3791 -0.5461
13286TIP3    H261274   4.365   5.422   5.788 -1.0311  2.1941 -1.5481
13287TIP3   OH261275   2.221   6.661   2.796  0.5435  0.7285 -0.4350
13287TIP3    H161276   2.260   6.671   2.709  0.0379  0.2481 -0.7203
13287TIP3    H261277   2.280   6.710   2.854  2.3602 -1.0797 -0.6380
13288TIP3   OH261278   1.126   1.808   0.037  0.1799 -0.4543  0.0807
13288TIP3    H161279   1.117   1.816  -0.058 -0.8200 -0.1214  0.1909
13288TIP3    H261280   1.130   1.898   0.069  1.9230 -0.5590  0.2583
13289TIP3   OH261281   3.243   5.877  13.855  0.1295  0.1450  0.0444
13289TIP3    H161282   3.306   5.835  13.796  2.1428  2.0627  0.6747
13289TIP3    H261283   3.253   5.831  13.938 -1.0429 -1.0581 -0.4462
13290TIP3   OH261284   1.567   4.933  15.872  0.1171 -0.2989 -0.4334
13290TIP3    H161285   1.493   4.960  15.818 -0.6809  0.7716  1.1330
13290TIP3    H261286   1.638   4.993  15.848  0.5141 -1.2988 -1.9021
13291TIP3   OH261287   4.336   6.468   3.178 -0.1079  0.4580 -0.8379
13291TIP3    H161288   4.362   6.447   3.267 -1.0024 -1.8569 -1.0555
13291TIP3    H261289   4.340   6.564   3.174 -0.9774  0.6977  1.9526
13292TIP3   OH261290   3.179   0.180   0.897  0.1958 -0.4719 -0.3817
13292TIP3    H161291   3.185   0.085   0.909  0.0726 -0.5070 -0.5958
13292TIP3    H261292   3.183   0.193   0.802 -0.0768 -0.2850 -0.3699
13293TIP3   OH261293   5.092   5.632  13.739  0.2999  0.1357  0.2251
13293TIP3    H161294   5.134   5.550  13.764  0.4049 -0.0185 -0.4393
13293TIP3    H261295   5.027   5.648  13.808  0.2815 -0.5008  0.3596
13294TIP3   OH261296   1.165   6.555   2.137 -0.0223  0.5468  0.4719
13294TIP3    H161297   1.247   6.596   2.111 -0.0971  0.9570  0.8660
13294TIP3    H261298   1.102   6.627   2.141 -0.6531  0.0979 -0.7804
13295TIP3   OH261299   4.058   5.515  15.581  0.0663  0.0500 -0.4589
13295TIP3    H161300   3.992   5.565  15.533 -2.6025 -1.2088  1.6205
13295TIP3    H261301   4.115   5.479  15.513 -0.1309  2.8065 -2.2349
13296TIP3   OH261302   1.687   2.430   1.162  0.4020 -0.1370 -0.0173
13296TIP3    H161303   1.602   2.440   1.205  0.1499  0.0342 -0.5417
13296TIP3    H261304   1.679   2.348   1.113  0.5683 -0.1627 -0.0012
13297TIP3   OH261305   6.178   5.807   4.734 -0.3848  0.5430 -0.2122
13297TIP3    H161306   6.177   5.721   4.691 -1.2165  0.8857 -0.9230
13297TIP3    H261307   6.203   5.789   4.824  0.2526 -0.3477 -0.5540
13298TIP3   OH261308   6.889   5.223   0.878  0.3054  0.2450 -0.8030
13298TIP3    H161309   6.982   5.201   0.887 -0.0117 -0.7823  0.1205
13298TIP3    H261310   6.875   5.294   0.942 -0.1547 -1.5833  1.2309
13299TIP3   OH261311   5.023   3.525   2.271 -0.0595 -0.3246  1.5210
13299TIP3    H161312   5.077   3.602   2.290  0.5948 -0.3674 -0.0344
13299TIP3    H261313   5.084   3.451   2.273 -0.6421 -0.8109  2.7628
13300TIP3   OH261314   1.800   0.666   2.277  0.0086  0.1878 -0.1662
13300TIP3    H161315   1.839   0.587   2.241 -0.1664  0.4018 -0.8286
13300TIP3    H261316   1.800   0.651   2.372  1.2634 -0.0093 -0.1761
13301TIP3   OH261317   1.250   3.554   1.942  0.1682  0.1983 -0.2600
13301TIP3    H161318   1.247   3.587   1.853 -3.0074  0.0209 -0.3035
13301TIP3    H261319   1.205   3.470   1.939 -0.2091  0.2880  1.5555
13302TIP3   OH261320   3.763   4.077  11.905  0.2146  0.2819 -0.0979
13302TIP3    H161321   3.772   4.072  11.810  2.1589 -1.5167  0.0936
13302TIP3    H261322   3.851   4.099  11.936 -0.8738  3.3316  1.2538
13303TIP3   OH261323   2.343   3.861   3.045 -0.1234 -0.1548  0.1729
13303TIP3    H161324   2.376   3.950   3.036 -1.7501  0.4426 -0.0965
13303TIP3    H261325   2.263   3.870   3.096 -0.2376 -1.4868  0.2638
13304TIP3   OH261326   2.614   3.556   1.323  0.2517 -0.1098  0.3092
13304TIP3    H161327   2.572   3.637   1.295 -0.2909 -1.1734 -2.2438
13304TIP3    H261328   2.548   3.512   1.377 -0.0518  0.4016  0.3658
13305TIP3   OH261329   6.827   2.536   0.053 -0.0384 -0.4288 -0.4244
13305TIP3    H161330   6.797   2.478   0.122 -3.1397 -0.5809 -1.7268
13305TIP3    H261331   6.800   2.623   0.082  2.2086  0.1195  0.2757
13306TIP3   OH261332   3.557   0.296   1.924  0.5617 -0.5406  0.5635
13306TIP3    H161333   3.565   0.208   1.959  2.0970 -1.1295 -1.1353
13306TIP3    H261334   3.645   0.319   1.895  0.0836  1.3332  0.4253
13307TIP3   OH261335   6.584   2.289   5.148  0.7296  0.3435  0.2894
13307TIP3    H161336   6.513   2.309   5.208  1.0172 -0.2087  0.8307
13307TIP3    H261337   6.568   2.199   5.120  0.7243  0.5195 -0.2894
13308TIP3   OH261338   4.232   5.574  14.593 -0.3839 -0.5133 -0.2255
13308TIP3    H161339   4.262   5.611  14.676 -0.0832  0.0135 -0.5632
13308TIP3    H261340   4.233   5.648  14.532  0.6918 -1.1840 -1.0461
13309TIP3   OH261341   2.847   5.154   3.063 -0.8467 -0.4032 -0.1746
13309TIP3    H161342   2.763   5.109   3.076 -0.3348 -1.2819  0.1816
13309TIP3    H261343   2.913   5.091   3.092 -0.0430  0.1975 -0.6483
13310TIP3   OH261344   5.018   3.033   4.947 -0.2296  0.5684  0.1732
13310TIP3    H161345   5.068   2.955   4.926 -0.9493  0.5732 -1.7661
13310TIP3    H261346   4.930   3.000   4.968 -0.0825  0.7461  1.1218
13311TIP3   OH261347   4.868   6.764  16.012 -0.7637 -0.2065  0.1280
13311TIP3    H161348   4.780   6.725  16.011 -0.5186 -0.7526 -0.9069
13311TIP3    H261349   4.855   6.852  15.978 -0.9256 -0.2475  0.0837
13312TIP3   OH261350   1.279   3.541  14.818 -0.0182 -0.3925 -0.0521
13312TIP3    H161351   1.285   3.502  14.905  0.8677 -1.5987 -0.6244
13312TIP3    H261352   1.188   3.568  14.810 -0.1235 -0.3167  1.2263
13313TIP3   OH261353   0.062   6.862  16.046  0.1112 -0.0645 -0.2848
13313TIP3    H161354   0.064   6.885  15.953 -3.0418 -0.0786 -0.4606
13313TIP3    H261355   0.023   6.939  16.088  0.3115 -0.5627  0.8322
13314TIP3   OH261356   5.994   1.288   4.709 -0.1626  0.5624 -0.0240
13314TIP3    H161357   5.922   1.288   4.646  0.4491  0.0396 -0.7467
13314TIP3    H261358   6.054   1.355   4.676  0.0003  0.5281  0.2011
13315TIP3   OH261359   5.239   2.176   1.475 -0.2551 -0.4812 -0.0810
13315TIP3    H161360   5.270   2.109   1.414 -1.3523 -2.2635  1.2121
13315TIP3    H261361   5.319   2.210   1.515  0.4791  0.6219 -2.3057
13316TIP3   OH261362   2.810   4.865  12.874  0.3396  0.5727  0.4941
13316TIP3    H161363   2.783   4.954  12.896  1.2393  0.7074  1.1331
13316TIP3    H261364   2.729   4.819  12.853 -0.1151  1.5847 -0.0124
13317TIP3   OH261365   5.063   1.070   1.235 -0.3741  0.0495  0.1620
13317TIP3    H161366   5.096   1.057   1.324  0.2123  0.7740  0.0676
13317TIP3    H261367   5.097   1.156   1.209 -1.9622  0.6315 -0.1304
13318TIP3   OH261368   2.237   6.749  10.908 -0.1839  0.5928  0.7328
13318TIP3    H161369   2.244   6.782  10.997 -2.3426 -0.6596  1.4497
13318TIP3    H261370   2.143   6.736  10.894  0.0289  1.2774 -1.9526
13319TIP3   OH261371   6.128   0.253  11.954 -0.3660 -0.1251  0.8291
13319TIP3    H161372   6.066   0.261  11.881 -0.5352 -1.7765  0.7473
13319TIP3    H261373   6.212   0.234  11.912 -0.2102  0.1183  1.0249
13320TIP3   OH261374   0.820   1.679  12.917 -0.2159  0.2590  0.1008
13320TIP3    H161375   0.863   1.762  12.941 -0.0944  0.1300  0.3332
13320TIP3    H261376   0.889   1.628  12.875 -0.4023  0.4418 -0.4318
13321TIP3   OH261377   3.780   1.366   3.715 -0.4199  0.0711 -0.0860
13321TIP3    H161378   3.872   1.385   3.698 -0.7991  2.8264  0.4011
13321TIP3    H261379   3.781   1.295   3.779  1.3850  0.4878  0.3989
13322TIP3   OH261380   6.405   3.659  16.162  0.4508  0.4915 -0.1348
13322TIP3    H161381   6.458   3.679  16.085 -0.6403  0.8352 -0.8200
13322TIP3    H261382   6.334   3.724  16.160 -0.3867 -0.3757  0.3540
13323TIP3   OH261383   1.812   6.123  14.692  0.0348 -0.3314  0.1464
13323TIP3    H161384   1.760   6.050  14.725  1.0603 -1.7825 -1.2527
13323TIP3    H261385   1.748   6.191  14.670 -1.2529 -1.8301 -1.0001
13324TIP3   OH261386   5.608   2.367   5.070  0.0974 -0.3639  0.2366
13324TIP3    H161387   5.542   2.313   5.114 -0.4905  0.9222  0.9896
13324TIP3    H261388   5.612   2.333   4.981  1.1258 -2.8940  1.1461
13325TIP3   OH261389   6.512   1.363   0.881 -0.2267  0.2963  0.6159
13325TIP3    H161390   6.548   1.299   0.819  1.0797  0.3720  1.2703
13325TIP3    H261391   6.425   1.329   0.902 -0.8752  0.4613 -1.5334
13326TIP3   OH261392   1.331   1.490   1.911 -0.1303  0.4840 -0.6549
13326TIP3    H161393   1.384   1.455   1.982 -0.6793 -1.0282 -0.9603
13326TIP3    H261394   1.351   1.584   1.910  0.4026  0.4162  1.0324
13327TIP3   OH261395   4.862   6.346   5.837  0.2616  0.5107 -0.1848
13327TIP3    H161396   4.850   6.325   5.929  1.6143 -1.1755 -0.3380
13327TIP3    H261397   4.934   6.410   5.836  0.7641 -0.0398 -0.0895
13328TIP3   OH261398   0.942   6.466  15.114  0.0065 -0.3195 -0.3500
13328TIP3    H161399   0.925   6.377  15.081 -1.1992 -0.7159  1.1525
13328TIP3    H261400   1.017   6.497  15.064  0.2457 -2.0638 -1.1601
13329TIP3   OH261401   1.539   3.246  12.545 -0.2328  0.5303  0.3913
13329TIP3    H161402   1.604   3.188  12.586  0.5885  1.6731  0.7871
13329TIP3    H261403   1.518   3.309  12.614 -4.1003 -1.4750  1.3497
13330TIP3   OH261404   0.797   2.129   4.172 -0.6055  0.2799 -0.3393
13330TIP3    H161405   0.749   2.211   4.181 -2.8218 -0.9674  0.2514
13330TIP3    H261406   0.811   2.100   4.262  2.4084  1.1371 -0.4406
13331TIP3   OH261407   1.796   1.710  14.571  0.3330  0.3247  0.1830
13331TIP3    H161408   1.817   1.670  14.656  2.7062 -0.0536 -0.5029
13331TIP3    H261409   1.862   1.779  14.561 -0.3648  0.8340 -1.0300
13332TIP3   OH261410   3.566   2.329   2.882  0.3692 -0.2855  0.3844
13332TIP3    H161411   3.549   2.306   2.974 -0.7546 -1.1116 -0.0041
13332TIP3    H261412   3.633   2.267   2.853  0.5076 -0.2161  0.5524
13333TIP3   OH261413   0.639   4.491  11.371  0.2886 -0.0204  0.4340
13333TIP3    H161414   0.645   4.421  11.307  0.8255  1.1077 -0.7887
13333TIP3    H261415   0.723   4.536  11.366  0.7941 -0.5564  2.7562
13334TIP3   OH261416   0.990   0.556   4.885 -0.4142  0.7511 -0.2693
13334TIP3    H161417   1.080   0.583   4.871  0.4761  0.6279  3.8532
13334TIP3    H261418   0.937   0.631   4.858  1.0891  1.6734 -0.7168
13335TIP3   OH261419   6.166   2.214   4.555 -0.4720 -0.0184 -0.2462
13335TIP3    H161420   6.191   2.252   4.639 -1.0442 -2.4955  1.1595
13335TIP3    H261421   6.070   2.213   4.556 -0.4772 -0.8094 -0.5386
13336TIP3   OH261422   1.215   5.829   0.244  0.4157  0.1618  0.0589
13336TIP3    H161423   1.251   5.792   0.324  0.5136 -0.2824 -0.1835
13336TIP3    H261424   1.141   5.882   0.273 -0.3424 -0.9960  0.3562
13337TIP3   OH261425   3.546   0.856   1.414  0.2370  0.4767 -0.1136
13337TIP3    H161426   3.502   0.809   1.484  3.0975 -1.1211  0.7411
13337TIP3    H261427   3.517   0.812   1.334  0.8768 -1.0827  0.4811
13338TIP3   OH261428   0.459   0.433   2.536 -0.2679 -0.2374 -0.2716
13338TIP3    H161429   0.462   0.344   2.501  0.0598  0.2527 -1.5231
13338TIP3    H261430   0.485   0.489   2.463  0.7872  0.7988  0.8442
13339TIP3   OH261431   0.789   0.011   3.889  0.0390  0.1830 -0.0445
13339TIP3    H161432   0.841  -0.063   3.855  0.5151 -0.6307  2.2560
13339TIP3    H261433   0.807   0.083   3.828  0.0203 -1.3926 -2.0390
13340TIP3   OH261434   1.781   3.023  14.827  0.3503  0.4622 -0.1254
13340TIP3    H161435   1.848   2.955  14.830  1.0986  1.2065  1.3235
13340TIP3    H261436   1.727   3.007  14.905  1.1274  2.0636  0.7900
13341TIP3   OH261437   2.538   3.638  13.900 -0.1360 -0.0990  0.2056
13341TIP3    H161438   2.497   3.647  13.986  0.3105 -1.0361  0.5321
13341TIP3    H261439   2.464   3.636  13.839 -0.4399  1.0357  0.5004
13342TIP3   OH261440   4.916   3.595   1.364 -0.4027 -0.4547 -0.4001
13342TIP3    H161441   4.844   3.632   1.414  0.2712 -1.1344  1.1207
13342TIP3    H261442   4.958   3.671   1.323 -0.8203  0.1391  0.2532
13343TIP3   OH261443   1.469   2.577  13.682 -0.6295  0.1994  0.1449
13343TIP3    H161444   1.390   2.524  13.670 -0.1330 -0.3386 -0.8160
13343TIP3    H261445   1.439   2.667  13.666 -0.9932 -0.0307 -0.5285
13344TIP3   OH261446   2.340   0.884  10.860  0.1834 -0.1591 -0.7198
13344TIP3    H161447   2.316   0.948  10.793  1.0536  0.5392 -0.3854
13344TIP3    H261448   2.435   0.892  10.867  0.0385  0.3410  1.1469
13345TIP3   OH261449   3.951   3.152   1.612 -0.4246  0.3895 -0.2838
13345TIP3    H161450   3.909   3.218   1.557 -0.0322  0.2086 -0.8039
13345TIP3    H261451   4.035   3.191   1.636 -0.3686  0.2471 -0.2490
13346TIP3   OH261452   4.128   5.261   5.382 -0.0237  0.5744 -1.0299
13346TIP3    H161453   4.197   5.327   5.380 -0.3544  0.9188 -1.1911
13346TIP3    H261454   4.146   5.210   5.460  1.0586 -0.0407 -1.6546
13347TIP3   OH261455   2.826   4.156   5.131  0.0624  0.7559 -0.0328
13347TIP3    H161456   2.798   4.227   5.074 -1.0448  2.6379  2.6835
13347TIP3    H261457   2.749   4.133   5.182  1.2136 -0.1927  1.3910
13348TIP3   OH261458   3.047   0.490   5.098 -0.0232 -0.2630  0.1389
13348TIP3    H161459   3.007   0.491   5.185 -0.4930  2.8399  0.0115
13348TIP3    H261460   3.128   0.539   5.108  0.2047 -0.3630 -1.0460
13349TIP3   OH261461   4.462   1.442  14.851 -0.2241 -0.4500 -0.0404
13349TIP3    H161462   4.497   1.528  14.873 -1.5360  0.5824 -1.7039
13349TIP3    H261463   4.423   1.453  14.764 -2.7060 -2.0317  0.7466
13350TIP3   OH261464   5.037   4.321   1.955  0.5310  0.7771  0.1425
13350TIP3    H161465   5.107   4.360   1.904 -0.0509 -0.1892 -1.4758
13350TIP3    H261466   4.959   4.371   1.933  0.3270  0.5555  0.3396
13351TIP3   OH261467   4.768   0.689   3.164  0.6666 -0.5536 -0.4870
13351TIP3    H161468   4.794   0.634   3.090  1.2963  1.6987 -2.0691
13351TIP3    H261469   4.848   0.734   3.191  0.1900 -0.4073  0.7562
13352TIP3   OH261470   6.827   5.897  13.016  0.1847  0.4593  0.0573
13352TIP3    H161471   6.902   5.884  13.074 -0.1971  4.9812  2.0213
13352TIP3    H261472   6.762   5.834  13.045  1.8624 -0.9782  0.8863
13353TIP3   OH261473   1.950   2.354  13.277 -0.0428  0.4909 -0.2609
13353TIP3    H161474   1.907   2.302  13.209 -0.3580  1.5603 -0.8958
13353TIP3    H261475   1.885   2.361  13.347 -0.4048  0.9450 -0.6389
13354TIP3   OH261476   0.554   6.002   1.457  0.0463 -0.3630 -0.0913
13354TIP3    H161477   0.569   5.913   1.490  2.3479 -0.2923 -0.7663
13354TIP3    H261478   0.499   6.043   1.524  0.3891 -1.7670  1.1153
13355TIP3   OH261479   4.354   5.166  11.780  0.0896  0.5800  0.2230
13355TIP3    H161480   4.449   5.168  11.773  0.0111  2.9237 -1.0093
13355TIP3    H261481   4.331   5.249  11.822 -1.4393  0.1252  0.3595
13356TIP3   OH261482   4.537   4.741  12.528 -0.0503 -0.0512 -0.6168
13356TIP3    H161483   4.629   4.716  12.534  0.1439  0.6453 -0.5748
13356TIP3    H261484   4.494   4.692  12.598  0.2202 -0.6591 -0.8673
13357TIP3   OH261485   6.873   1.319   1.253 -0.1640 -0.7889 -0.0642
13357TIP3    H161486   6.872   1.405   1.294 -2.0668 -0.7104 -0.1910
13357TIP3    H261487   6.882   1.258   1.327  0.6032 -0.5185  0.0754
13358TIP3   OH261488   0.991   3.600  14.384 -0.0635  0.5794  0.4671
13358TIP3    H161489   1.000   3.657  14.460  1.9858  1.9251 -0.6811
13358TIP3    H261490   0.912   3.548  14.402 -0.2956  1.6395  2.9397
13359TIP3   OH261491   4.966   2.016  13.779 -0.3386  0.0232  0.0468
13359TIP3    H161492   5.018   2.071  13.837 -0.3946 -0.5005  0.6027
13359TIP3    H261493   5.004   2.029  13.693 -0.8062  1.4939  0.0353
13360TIP3   OH261494   4.473   2.279   4.881 -0.3577  0.0018  0.1710
13360TIP3    H161495   4.526   2.288   4.802  0.3809 -0.8890  0.5512
13360TIP3    H261496   4.429   2.364   4.890 -0.3987  0.1333 -1.1499
13361TIP3   OH261497   2.069   3.144  13.071  0.2289  0.8065  0.6538
13361TIP3    H161498   1.979   3.175  13.058  0.4008  1.0886  0.1160
13361TIP3    H261499   2.064   3.049  13.059 -0.1811  0.6940  1.6395
13362TIP3   OH261500   3.113   1.812  13.732 -0.7156 -0.4246 -0.0567
13362TIP3    H161501   3.161   1.729  13.720 -0.9010 -0.4957 -0.3048
13362TIP3    H261502   3.061   1.821  13.652 -0.2894  0.2016 -0.2709
13363TIP3   OH261503   1.022   1.705  15.081 -0.4671 -0.0332 -0.1954
13363TIP3    H161504   0.969   1.763  15.028 -0.0395 -0.6615 -1.3535
13363TIP3    H261505   1.041   1.630  15.024  2.1351  0.4146 -0.0659
13364TIP3   OH261506   3.797   6.194  13.182  0.1263 -0.4095  0.0116
13364TIP3    H161507   3.819   6.224  13.271  0.7596 -1.7527  0.3264
13364TIP3    H261508   3.748   6.267  13.144 -0.5168  0.0278  1.6039
13365TIP3   OH261509   6.793   5.114   2.799  0.2739 -0.6015  0.9178
13365TIP3    H161510   6.868   5.105   2.857 -0.1378 -1.2667  1.3613
13365TIP3    H261511   6.770   5.024   2.775  1.2144 -0.3093 -1.3176
13366TIP3   OH261512   0.640   4.684  14.247 -0.0243  0.1896  0.0848
13366TIP3    H161513   0.603   4.751  14.304 -0.1866  1.8134 -1.8291
13366TIP3    H261514   0.566   4.628  14.225 -0.9039  1.9634 -1.7329
13367TIP3   OH261515   1.418   6.055   1.255 -0.3474 -0.2885  0.0542
13367TIP3    H161516   1.491   6.112   1.279 -0.5821 -0.0644  0.2462
13367TIP3    H261517   1.342   6.114   1.251 -0.3369 -0.3220 -1.1717
13368TIP3   OH261518   2.419   1.603  12.523 -0.4249  0.2328  0.2096
13368TIP3    H161519   2.415   1.509  12.506 -1.3975  0.2534  0.2354
13368TIP3    H261520   2.503   1.631  12.487  0.6806 -0.9379  1.7148
13369TIP3   OH261521   3.395   4.277   4.469  0.8090 -0.0920  0.0691
13369TIP3    H161522   3.433   4.201   4.514  0.9189  0.7099  1.3701
13369TIP3    H261523   3.403   4.349   4.531  0.5039  0.9570 -1.0543
13370TIP3   OH261524   6.659   2.826  13.191  0.4159 -0.2226  0.1210
13370TIP3    H161525   6.638   2.740  13.226  1.3506 -0.6224 -0.2557
13370TIP3    H261526   6.662   2.814  13.096  1.2895  0.0275  0.1012
13371TIP3   OH261527   6.694   6.325   0.914 -0.0863 -0.0140 -0.0088
13371TIP3    H161528   6.616   6.377   0.892 -0.0434  0.1171  0.1540
13371TIP3    H261529   6.745   6.324   0.833 -1.0650 -1.5313 -0.6569
13372TIP3   OH261530   2.389   1.983   2.698  0.8700 -0.3841 -0.1538
13372TIP3    H161531   2.466   1.996   2.643 -0.1962  0.3943 -1.5193
13372TIP3    H261532   2.418   1.923   2.767  2.7934  0.2209 -0.3981
13373TIP3   OH261533   2.282   1.494  14.509  0.2907 -0.4772 -0.0386
13373TIP3    H161534   2.372   1.509  14.537 -0.0429  1.0616  0.3089
13373TIP3    H261535   2.284   1.503  14.413  0.4437 -0.0081  0.0060
13374TIP3   OH261536   1.915   2.095  16.217 -0.7434 -1.0235  0.2541
13374TIP3    H161537   1.941   2.104  16.126 -0.9658 -1.4507  0.1481
13374TIP3    H261538   1.914   2.000  16.233 -1.5419 -0.9869  0.4537
13375TIP3   OH261539   2.156   3.466   3.233 -0.1328 -0.2292  0.4467
13375TIP3    H161540   2.088   3.499   3.175 -0.2615 -0.5825  0.3905
13375TIP3    H261541   2.197   3.395   3.183 -0.2061 -0.4961  0.7652
13376TIP3   OH261542   5.803   1.200   5.817  0.0647 -0.2691  0.1897
13376TIP3    H161543   5.739   1.194   5.888 -0.0475  0.7694  0.1929
13376TIP3    H261544   5.824   1.110   5.796  1.7294 -0.6484  2.9917
13377TIP3   OH261545   1.291   3.703   2.452 -0.5705 -0.4676 -0.6352
13377TIP3    H161546   1.295   3.704   2.356  0.1967 -1.0790 -0.6198
13377TIP3    H261547   1.345   3.776   2.480 -0.5880 -0.4432 -0.6657
13378TIP3   OH261548   1.611   4.079   4.090 -0.3337 -0.0179  0.1252
13378TIP3    H161549   1.548   4.113   4.028 -0.6489  0.2968  0.6159
13378TIP3    H261550   1.623   4.149   4.154  1.9208  0.6994 -0.9498
13379TIP3   OH261551   6.231   6.135  16.360 -0.0469  0.2597 -0.1683
13379TIP3    H161552   6.307   6.141  16.418 -1.9408 -1.9222  2.8168
13379TIP3    H261553   6.208   6.042  16.360 -1.8828  0.6233 -2.1833
13380TIP3   OH261554   5.410   4.899  13.859  0.2231  0.6781  0.2168
13380TIP3    H161555   5.429   4.842  13.933  1.2566  1.4764  0.5888
13380TIP3    H261556   5.392   4.985  13.899 -1.2083  0.6675 -0.3352
13381TIP3   OH261557   6.624   3.965  11.428 -0.4970 -0.3410  0.1363
13381TIP3    H161558   6.561   4.037  11.427  0.3949  0.4657 -0.7225
13381TIP3    H261559   6.654   3.958  11.338  1.2854 -0.1101  0.6773
13382TIP3   OH261560   6.678   6.637  13.585 -0.4832 -0.3523 -0.2258
13382TIP3    H161561   6.626   6.561  13.558 -1.2186 -0.2071  0.7225
13382TIP3    H261562   6.665   6.701  13.516  0.2933 -1.1378 -1.1329
13383TIP3   OH261563   3.605   6.251   3.362 -0.2615 -0.1705  1.0921
13383TIP3    H161564   3.590   6.346   3.353  0.7023  0.0812  1.9287
13383TIP3    H261565   3.517   6.214   3.368 -0.6903  0.5478 -0.2615
13384TIP3   OH261566   4.951   3.383   1.659 -0.8705 -0.0607 -0.2416
13384TIP3    H161567   5.008   3.457   1.682 -2.2939  0.7236  0.9055
13384TIP3    H261568   4.952   3.381   1.563  0.7370  0.1907 -0.2557
13385TIP3   OH261569   3.410   2.983   5.068  0.4547  0.0835  0.5052
13385TIP3    H161570   3.502   2.957   5.065 -0.1203 -2.0014 -1.9069
13385TIP3    H261571   3.405   3.060   5.010  0.5852 -0.1164  0.2289
13386TIP3   OH261572   5.788   4.274   2.095 -0.6479  0.0936  0.0218
13386TIP3    H161573   5.825   4.205   2.039 -0.4715 -0.6291  1.0068
13386TIP3    H261574   5.780   4.350   2.037  2.2124  0.2402 -0.2827
13387TIP3   OH261575   6.551   4.575  12.198 -0.0608 -0.2398 -0.1654
13387TIP3    H161576   6.621   4.616  12.249  0.8888  0.0095 -1.6095
13387TIP3    H261577   6.594   4.547  12.116 -1.5334 -0.5813 -0.8554
13388TIP3   OH261578   5.165   2.150   3.957 -0.6301 -0.1799 -0.2261
13388TIP3    H161579   5.260   2.138   3.964 -0.2853  1.5988 -1.1058
13388TIP3    H261580   5.148   2.234   3.999 -1.9015 -0.6739  0.3074
13389TIP3   OH261581   6.499   1.013   1.110 -0.0359  0.1906 -0.3014
13389TIP3    H161582   6.580   0.963   1.101 -0.0148  0.2705 -0.5621
13389TIP3    H261583   6.523   1.091   1.159  0.3935  1.0276 -1.7977
13390TIP3   OH261584   4.522   4.132   0.422  0.2257  0.1163  0.3861
13390TIP3    H161585   4.544   4.101   0.334  0.3140 -0.3828  0.5837
13390TIP3    H261586   4.602   4.120   0.473  1.4063  3.7279 -0.2998
13391TIP3   OH261587   5.837   6.842   3.800  0.5081 -0.3624 -0.2863
13391TIP3    H161588   5.873   6.904   3.736  2.2857  0.5323  1.4859
13391TIP3    H261589   5.820   6.763   3.750  2.3237  0.1351 -1.7860
13392TIP3   OH261590   1.303   1.455   0.537  0.1200 -0.1012 -0.2116
13392TIP3    H161591   1.319   1.361   0.526 -1.1479 -0.1893 -1.7679
13392TIP3    H261592   1.208   1.464   0.527  0.2132  1.3297  0.0154
13393TIP3   OH261593   2.125   3.440  12.345 -0.2373  0.0129 -0.4939
13393TIP3    H161594   2.066   3.417  12.274 -0.3488 -0.3833 -0.2748
13393TIP3    H261595   2.072   3.430  12.424  0.2459 -0.8017 -0.2586
13394TIP3   OH261596   5.962   5.212  16.565 -0.3382 -0.1119  0.0135
13394TIP3    H161597   5.951   5.288  16.622  4.4245  0.5731  0.4675
13394TIP3    H261598   5.961   5.248  16.476 -0.6426  0.0278  0.0726
13395TIP3   OH261599   2.720   5.018   5.519  0.0907 -1.2093  0.7465
13395TIP3    H161600   2.745   5.086   5.582  2.3760 -0.4832 -0.8142
13395TIP3    H261601   2.787   4.951   5.528 -0.7697 -2.1288  0.5403
13396TIP3   OH261602   5.974   4.596  14.026  0.1960 -0.1876  0.0770
13396TIP3    H161603   5.990   4.584  14.120  0.5286  0.1623  0.0672
13396TIP3    H261604   6.043   4.656  13.997 -0.4372  0.4341 -0.2040
13397TIP3   OH261605   4.247   1.045  11.515 -0.5681  0.1888 -0.1887
13397TIP3    H161606   4.174   0.983  11.513  1.1105 -1.9312  0.2070
13397TIP3    H261607   4.234   1.095  11.595 -1.8425  0.1996 -0.3775
13398TIP3   OH261608   3.741   2.872  14.299 -1.0369  0.2647  0.5376
13398TIP3    H161609   3.664   2.905  14.345 -0.4695  1.8964  0.3831
13398TIP3    H261610   3.781   2.951  14.261 -0.5061 -0.8107 -1.2362
13399TIP3   OH261611   4.594   0.761  10.851 -0.4852  0.0433 -0.1628
13399TIP3    H161612   4.517   0.799  10.810 -0.8763  0.1936  0.6860
13399TIP3    H261613   4.613   0.683  10.800 -1.0019  0.1848 -0.5750
13400TIP3   OH261614   2.319   2.640  15.871 -0.6081  0.3309  0.2466
13400TIP3    H161615   2.324   2.643  15.966  0.1892 -1.7301  0.3148
13400TIP3    H261616   2.369   2.562  15.846 -0.8932  0.7471 -1.8606
13401TIP3   OH261617   5.788   3.498  10.389 -0.2884  0.1030 -0.0711
13401TIP3    H161618   5.752   3.586  10.379 -0.5143  0.1728  1.1583
13401TIP3    H261619   5.836   3.482  10.308  1.4883  2.1645  0.4836
13402TIP3   OH261620   3.671   6.020   5.716  0.3394 -0.4896  0.0478
13402TIP3    H161621   3.760   6.006   5.747 -0.1319 -0.7036  1.3984
13402TIP3    H261622   3.632   6.079   5.781 -0.6581 -0.8631 -0.1877
13403TIP3   OH261623   3.259   0.894  12.037  0.0994 -0.8749  0.3567
13403TIP3    H161624   3.353   0.905  12.047 -0.0675  2.2920 -0.3035
13403TIP3    H261625   3.225   0.984  12.032 -2.5869 -1.8394 -2.6288
13404TIP3   OH261626   4.216   1.059   1.300 -0.0243  0.0957  0.1344
13404TIP3    H161627   4.129   1.101   1.301 -0.8913 -1.5943 -0.6806
13404TIP3    H261628   4.277   1.131   1.285 -1.2857  1.3065  0.5841
13405TIP3   OH261629   0.420   2.570  11.971 -0.2790  0.3365  0.0036
13405TIP3    H161630   0.422   2.649  12.025 -3.7913  0.8929 -0.4219
13405TIP3    H261631   0.414   2.602  11.881 -0.8045 -0.4207 -0.2402
13406TIP3   OH261632   3.627   1.869  10.057 -0.4678  0.3219 -0.2487
13406TIP3    H161633   3.640   1.776  10.039 -1.0177  0.3902 -1.0810
13406TIP3    H261634   3.542   1.889  10.019 -0.1877  1.2560 -0.4157
13407TIP3   OH261635   1.002   3.712  11.325  0.0050 -0.3792  0.0146
13407TIP3    H161636   1.041   3.770  11.392  1.7875  0.1085 -1.3604
13407TIP3    H261637   0.910   3.737  11.323  0.4283  1.3979  0.5156
13408TIP3   OH261638   0.102   3.178  12.777  0.1824  0.4693  0.2860
13408TIP3    H161639   0.046   3.192  12.854 -0.9174 -1.8707 -0.0055
13408TIP3    H261640   0.110   3.265  12.737 -2.5549  1.0654  0.8389
13409TIP3   OH261641   2.607   2.418  12.726  0.0835  0.0785  0.1037
13409TIP3    H161642   2.606   2.509  12.700 -0.2006  0.0613  0.0497
13409TIP3    H261643   2.611   2.369  12.644 -0.1349  0.0366  0.1177
13410TIP3   OH261644   4.036   0.976  15.381  0.1424 -0.3144 -0.5287
13410TIP3    H161645   4.091   0.974  15.302  1.6102 -1.1004  0.4780
13410TIP3    H261646   4.074   1.045  15.435 -0.1846 -0.5274 -0.0194
13411TIP3   OH261647   3.791   4.766   4.747  0.5732  0.1667 -0.1701
13411TIP3    H161648   3.705   4.807   4.733  0.9362  0.8215 -0.5168
13411TIP3    H261649   3.849   4.809   4.684  1.2545  0.0332  0.3508
13412TIP3   OH261650   3.306   3.067  13.828 -0.4301  0.7249 -0.1658
13412TIP3    H161651   3.333   3.095  13.741 -2.0190  0.1408 -0.8928
13412TIP3    H261652   3.237   3.129  13.853 -0.9654  0.0627  0.0547
13413TIP3   OH261653   1.605   5.646  12.345  0.1858 -0.3175  1.0448
13413TIP3    H161654   1.653   5.728  12.351  0.2633 -0.2970  0.2173
13413TIP3    H261655   1.630   5.598  12.424  1.3356 -0.1791  0.7834
13414TIP3   OH261656   3.797   4.830  15.564  0.0765  0.1134  0.3396
13414TIP3    H161657   3.718   4.870  15.527  0.6014 -0.0159 -0.9846
13414TIP3    H261658   3.765   4.768  15.629 -0.8947  0.2929  0.0450
13415TIP3   OH261659   5.023   4.234  15.224  0.1791  0.2485  0.3270
13415TIP3    H161660   4.960   4.190  15.282  0.7090  0.1408  0.8242
13415TIP3    H261661   4.970   4.261  15.149  0.2817 -3.7045 -1.4196
13416TIP3   OH261662   0.766   1.563  16.509 -0.3363  0.1792 -0.9677
13416TIP3    H161663   0.676   1.534  16.496  0.4062 -1.6997 -2.2497
13416TIP3    H261664   0.770   1.648  16.464 -1.3019  0.0084 -1.4054
13417TIP3   OH261665   0.604   3.936   0.448 -0.3632  0.2981  0.0601
13417TIP3    H161666   0.533   3.993   0.479  0.3835  1.2090  0.1223
13417TIP3    H261667   0.684   3.986   0.465  0.3059 -0.7593  0.0721
13418TIP3   OH261668   4.196   2.720   5.631  0.5572  0.1845  0.0291
13418TIP3    H161669   4.274   2.774   5.630 -0.2307  1.5100  2.3604
13418TIP3    H261670   4.179   2.704   5.724 -0.8313 -1.7750 -0.4813
13419TIP3   OH261671   6.823   3.522  13.938 -0.3565 -0.4290  0.2903
13419TIP3    H161672   6.738   3.478  13.939 -1.1162  0.9869 -0.1891
13419TIP3    H261673   6.804   3.613  13.958  0.9571  0.0586 -0.5360
13420TIP3   OH261674   2.312   5.561  11.585  0.3478 -0.0818 -0.0385
13420TIP3    H161675   2.316   5.644  11.633  2.4934  0.2442 -0.6535
13420TIP3    H261676   2.219   5.550  11.564  0.1545  3.2501 -1.6951
13421TIP3   OH261677   2.221   6.386  11.723  0.0460 -0.0409 -0.3441
13421TIP3    H161678   2.283   6.450  11.758 -1.7204  1.3415  0.4035
13421TIP3    H261679   2.217   6.405  11.629  2.0495 -1.3435 -0.7464
13422TIP3   OH261680   1.345   1.051   3.656  0.2798  0.5125 -0.2713
13422TIP3    H161681   1.287   1.114   3.697 -1.4275 -0.9955 -0.2430
13422TIP3    H261682   1.290   1.008   3.590  1.7154 -0.1501 -1.0801
13423TIP3   OH261683   0.157   3.141  11.370  0.0629 -0.5346  0.0131
13423TIP3    H161684   0.142   3.160  11.463 -1.0264  1.2371 -0.4725
13423TIP3    H261685   0.099   3.067  11.351 -2.1547  1.0830  0.0745
13424TIP3   OH261686   1.476   2.821   1.246 -0.6101 -0.3979 -0.0687
13424TIP3    H161687   1.507   2.785   1.328 -2.4195 -0.7431  0.5176
13424TIP3    H261688   1.429   2.900   1.270  1.6583  1.3837 -1.1525
13425TIP3   OH261689   5.164   3.483  12.826 -0.8289  0.2115  0.4915
13425TIP3    H161690   5.193   3.491  12.735 -1.0214  2.7018  0.5939
13425TIP3    H261691   5.068   3.481  12.821 -0.9166  2.0914  0.6762
13426TIP3   OH261692   0.608   4.178   2.105 -0.5171 -0.6133  0.4160
13426TIP3    H161693   0.613   4.202   2.012 -0.8252 -3.3905 -0.4305
13426TIP3    H261694   0.524   4.212   2.135 -1.1968 -1.1374 -0.8320
13427TIP3   OH261695   6.354   6.249   4.263  0.0352 -0.5707 -0.1795
13427TIP3    H161696   6.357   6.248   4.167  1.8121  1.5803 -0.2315
13427TIP3    H261697   6.417   6.182   4.290 -0.0025 -0.7445 -0.5221
13428TIP3   OH261698   1.898   1.838  14.279 -0.6935 -0.1123  0.3481
13428TIP3    H161699   1.899   1.905  14.347 -1.1262  3.0031 -2.4605
13428TIP3    H261700   1.814   1.792  14.292 -0.7384  0.3572  1.8804
13429TIP3   OH261701   1.600   0.590   3.171 -0.0148 -0.7480  0.5651
13429TIP3    H161702   1.641   0.533   3.237 -0.7845 -2.1653 -0.1260
13429TIP3    H261703   1.577   0.531   3.100  1.9690  0.9358 -1.6196
13430TIP3   OH261704   3.224   0.534  11.441  0.1153  0.3664 -0.4617
13430TIP3    H161705   3.209   0.464  11.504  1.6414 -0.3409 -0.8423
13430TIP3    H261706   3.163   0.515  11.369 -0.0706 -0.0867 -0.1849
13431TIP3   OH261707   2.555   6.128   1.505  0.2858  0.6296 -0.2174
13431TIP3    H161708   2.485   6.139   1.570  0.3962  0.7616 -0.1200
13431TIP3    H261709   2.628   6.178   1.540  1.0163 -0.9079  0.5432
13432TIP3   OH261710   1.985   2.885   3.476  0.1630 -0.3010 -0.1247
13432TIP3    H161711   1.998   2.831   3.398  1.8703 -1.4799  0.9247
13432TIP3    H261712   2.055   2.950   3.472  0.2559 -0.3657  0.4325
13433TIP3   OH261713   4.557   4.908  11.341  0.6080  0.9575 -0.4130
13433TIP3    H161714   4.630   4.881  11.285  0.6210  0.6075 -0.2315
13433TIP3    H261715   4.494   4.836  11.332  1.0963  0.3275  0.9237
13434TIP3   OH261716   6.825   3.474   1.702 -0.2921 -0.1787  0.3547
13434TIP3    H161717   6.771   3.532   1.757 -0.0090 -0.0857  0.5358
13434TIP3    H261718   6.762   3.432   1.643 -0.8064 -1.4218  1.7323
13435TIP3   OH261719   2.929   4.670  15.596 -0.2712 -0.1140 -0.1917
13435TIP3    H161720   2.883   4.735  15.649 -1.7565 -0.6644 -0.7646
13435TIP3    H261721   3.012   4.712  15.573 -1.4550  1.8586 -1.0834
13436TIP3   OH261722   3.395   3.202   3.840 -0.1638  0.1208  0.0425
13436TIP3    H161723   3.326   3.176   3.779  0.4804  0.9988 -1.0877
13436TIP3    H261724   3.401   3.297   3.830 -1.3443  0.5979  2.8719
13437TIP3   OH261725   4.598   0.414   4.951 -0.3751  0.2978  0.4918
13437TIP3    H161726   4.544   0.487   4.921 -0.0032  1.0972  1.6958
13437TIP3    H261727   4.688   0.442   4.934 -0.2496 -0.0291  0.6160
13438TIP3   OH261728   0.085   5.040  10.915 -0.3232 -0.5185 -0.9145
13438TIP3    H161729   0.047   5.007  10.834  0.6020 -1.6853 -0.9028
13438TIP3    H261730   0.177   5.056  10.893 -0.1330 -0.5766 -0.1882
13439TIP3   OH261731   3.058   3.631  16.190  0.1800 -0.1700  0.0295
13439TIP3    H161732   3.124   3.590  16.246 -0.4260  1.1352  1.7921
13439TIP3    H261733   2.986   3.569  16.188 -0.4486  0.4255  2.1032
13440TIP3   OH261734   5.223   5.454  12.400  0.2610  0.1029 -0.1832
13440TIP3    H161735   5.260   5.541  12.415 -0.7758  0.4033  0.8075
13440TIP3    H261736   5.208   5.419  12.488  0.0076 -0.7900 -0.5682
13441TIP3   OH261737   0.063   2.350  13.121 -0.0016  0.2804 -0.0418
13441TIP3    H161738   0.013   2.271  13.140 -0.0195 -0.1976 -1.8497
13441TIP3    H261739  -0.001   2.421  13.124  0.1708  0.3953  2.4349
13442TIP3   OH261740   0.838   3.925   3.123  0.4208  0.1974 -0.0266
13442TIP3    H161741   0.832   3.909   3.217  1.2042 -1.2120 -0.1841
13442TIP3    H261742   0.784   4.002   3.108  1.4678  1.3677  1.8045
13443TIP3   OH261743   1.598   5.723   4.151 -0.1716 -0.5453  0.1117
13443TIP3    H161744   1.575   5.802   4.200  0.4264 -0.6944  0.6535
13443TIP3    H261745   1.671   5.685   4.200  1.6983  0.2510 -1.8817
13444TIP3   OH261746   3.456   1.419   4.313  0.1430  0.8542  0.1388
13444TIP3    H161747   3.377   1.420   4.366 -0.9187  1.2535 -1.3773
13444TIP3    H261748   3.450   1.498   4.259 -0.1434 -0.7207 -2.3390
13445TIP3   OH261749   3.154   5.153  12.455 -0.2177  0.4337  0.7894
13445TIP3    H161750   3.126   5.171  12.366 -0.2331 -1.3355  0.4134
13445TIP3    H261751   3.206   5.230  12.480 -0.3048  0.9894 -0.6766
13446TIP3   OH261752   4.053   6.153  12.875 -0.0406  0.1687  0.1491
13446TIP3    H161753   4.061   6.182  12.784  0.2279  0.6507  0.3227
13446TIP3    H261754   3.961   6.166  12.897 -0.3431 -0.9845 -0.3958
13447TIP3   OH261755   2.023   1.384   0.295 -0.1669 -0.0837 -0.6191
13447TIP3    H161756   1.999   1.476   0.285 -1.0788 -0.1676  0.6662
13447TIP3    H261757   2.106   1.386   0.343  0.2451  0.0733 -1.3167
13448TIP3   OH261758   0.483   2.338  16.003  0.5114  0.2192  0.0555
13448TIP3    H161759   0.493   2.282  16.080 -0.0731  0.2140  0.1270
13448TIP3    H261760   0.389   2.352  15.995  0.6674  1.5676  0.3080
13449TIP3   OH261761   4.231   5.851   0.340 -0.1588  0.8135  0.3737
13449TIP3    H161762   4.173   5.927   0.330 -0.0180  0.7339 -1.2139
13449TIP3    H261763   4.262   5.857   0.431  0.8293  3.3834 -0.0308
13450TIP3   OH261764   2.596   3.905  15.995  0.0697 -0.2793 -0.1113
13450TIP3    H161765   2.689   3.886  15.980 -0.1454 -1.7968  0.3089
13450TIP3    H261766   2.552   3.871  15.917 -0.2081 -0.3728  0.0859
13451TIP3   OH261767   4.685   1.512   3.636  0.1211  0.3884 -0.0132
13451TIP3    H161768   4.621   1.443   3.653  1.2225 -0.4121  1.0146
13451TIP3    H261769   4.688   1.563   3.717 -0.3943  1.4241 -0.6271
13452TIP3   OH261770   6.591   5.583  14.491 -0.4725 -0.1992  0.6345
13452TIP3    H161771   6.572   5.650  14.556  1.2769  0.9581  0.0107
13452TIP3    H261772   6.512   5.579  14.437 -0.5543  1.4935  0.5902
13453TIP3   OH261773   5.178   5.269   4.129  0.0075 -0.1548  0.5045
13453TIP3    H161774   5.118   5.252   4.201 -0.5988  1.1594  0.3488
13453TIP3    H261775   5.245   5.328   4.166 -0.6001  0.9544 -0.1027
13454TIP3   OH261776   2.903   0.454   3.174 -0.2078 -0.1546  0.2081
13454TIP3    H161777   2.907   0.429   3.082 -0.3428  1.6090 -0.3100
13454TIP3    H261778   2.895   0.371   3.221  3.6763 -1.4480 -1.0508
13455TIP3   OH261779   2.261   4.717   5.260  0.0500  0.0017 -0.2795
13455TIP3    H161780   2.219   4.732   5.345 -0.7729  2.7001 -1.0578
13455TIP3    H261781   2.353   4.739   5.275 -0.4448  2.5718 -0.4528
13456TIP3   OH261782   6.790   5.057   3.194  0.2830  0.0764 -0.0526
13456TIP3    H161783   6.802   4.962   3.201 -1.6817 -0.1924  0.2887
13456TIP3    H261784   6.869   5.088   3.149  0.2722 -1.9211 -1.5829
13457TIP3   OH261785   1.055   0.260  16.380 -0.2737  0.7546  0.1119
13457TIP3    H161786   1.102   0.325  16.431 -1.3291  0.0144  2.1213
13457TIP3    H261787   1.116   0.236  16.310  0.8701  2.4403  0.4687
13458TIP3   OH261788   5.715   6.732   3.206 -0.3712  0.2187  0.0434
13458TIP3    H161789   5.645   6.712   3.268  1.4279 -0.5319  1.9315
13458TIP3    H261790   5.696   6.821   3.176 -2.0887  0.0513  0.5441
13459TIP3   OH261791   3.829   0.119  12.591 -0.0547  0.4247  0.1154
13459TIP3    H161792   3.923   0.117  12.573 -0.1348 -3.2414 -0.5218
13459TIP3    H261793   3.823   0.147  12.682  1.5542  1.6035 -0.0969
13460TIP3   OH261794   3.037   1.103   1.668  0.0300  0.5772  0.4733
13460TIP3    H161795   2.942   1.119   1.672  0.0662  0.5596  1.4209
13460TIP3    H261796   3.062   1.136   1.581 -0.9162  0.1614  0.0264
13461TIP3   OH261797   2.956   3.145   3.626 -0.2859  0.1360 -0.6101
13461TIP3    H161798   2.881   3.185   3.582 -1.1711 -1.7353 -0.9216
13461TIP3    H261799   2.927   3.055   3.645  2.1938 -0.9713 -1.5955
13462TIP3   OH261800   0.121   0.175   1.706  0.6319  0.0067 -0.1176
13462TIP3    H161801   0.216   0.183   1.696  0.6362 -0.0235 -0.0998
13462TIP3    H261802   0.087   0.255   1.668  0.5159 -1.0127 -2.2978
13463TIP3   OH261803   1.876   2.106  10.507 -0.3964 -0.2817 -0.2180
13463TIP3    H161804   1.954   2.050  10.501  0.1166  0.4436 -0.4819
13463TIP3    H261805   1.808   2.057  10.462 -0.0721 -0.9003 -0.0460
13464TIP3   OH261806   5.624   0.906   3.197  0.0864  0.0168  0.1942
13464TIP3    H161807   5.539   0.866   3.218 -0.9794  1.6895 -0.7433
13464TIP3    H261808   5.620   0.993   3.236  1.9740 -0.3375  1.3342
13465TIP3   OH261809   0.978   4.729  10.310  0.2897 -0.0263  0.0982
13465TIP3    H161810   0.882   4.730  10.319  0.3593 -0.2275  1.0474
13465TIP3    H261811   1.006   4.657  10.367  1.0290  0.2308  0.0657
13466TIP3   OH261812   4.984   4.013   0.366 -0.4760  0.1992 -0.5418
13466TIP3    H161813   5.032   4.082   0.413  1.0495 -1.6744  0.8137
13466TIP3    H261814   5.020   4.016   0.277  0.8304  0.0679 -0.0439
13467TIP3   OH261815   2.207   0.655  14.965 -0.1459  0.6023 -0.4662
13467TIP3    H161816   2.118   0.635  14.937  0.0553 -0.7002 -0.2546
13467TIP3    H261817   2.219   0.603  15.045  0.9409  0.4238 -0.7288
13468TIP3   OH261818   0.658   3.777   5.477  0.6616 -0.4087  0.1376
13468TIP3    H161819   0.583   3.803   5.530 -0.0167 -1.6692 -0.1762
13468TIP3    H261820   0.652   3.682   5.470 -0.1362 -0.2571 -3.3644
13469TIP3   OH261821   3.200   6.372  10.021  0.3404  0.0374 -0.0062
13469TIP3    H161822   3.116   6.396  10.060 -0.4258  1.8283 -2.5106
13469TIP3    H261823   3.243   6.455  10.001  0.5387 -0.6607 -3.0429
13470TIP3   OH261824   5.683   5.353   1.117  0.2074 -0.3038 -0.2499
13470TIP3    H161825   5.674   5.276   1.173  1.2302 -0.6450 -0.5250
13470TIP3    H261826   5.704   5.424   1.178  1.7853 -0.7645 -0.1888
13471TIP3   OH261827   3.428   0.732   1.626  0.1111 -0.4019 -0.2376
13471TIP3    H161828   3.414   0.638   1.640  0.7396 -0.7173 -1.5414
13471TIP3    H261829   3.389   0.774   1.703 -0.3469 -1.7147  0.2777
13472TIP3   OH261830   0.991   4.704  11.543  0.2026 -0.0702 -0.0490
13472TIP3    H161831   0.941   4.771  11.589  0.3355 -0.0545  0.0718
13472TIP3    H261832   1.034   4.751  11.472  0.1583 -0.0583 -0.0679
13473TIP3   OH261833   5.318   4.642   4.134  0.1558 -0.3761  0.2939
13473TIP3    H161834   5.297   4.581   4.064 -0.6125 -2.0332  1.8835
13473TIP3    H261835   5.242   4.699   4.140  0.4249  0.0781 -0.5030
13474TIP3   OH261836   6.234   5.003   4.832 -0.5964 -0.2963  0.0325
13474TIP3    H161837   6.238   4.931   4.895  1.3614 -0.5249 -0.2770
13474TIP3    H261838   6.211   5.080   4.884  0.9275 -0.4930  1.0663
13475TIP3   OH261839   5.906   2.141   4.201  0.6421 -0.0610 -0.0142
13475TIP3    H161840   5.959   2.211   4.239 -0.3874  1.3977 -1.1656
13475TIP3    H261841   5.816   2.159   4.230  0.4049 -1.1373 -0.0130
13476TIP3   OH261842   1.581   6.152   3.711  0.1649 -0.0038  0.2819
13476TIP3    H161843   1.569   6.071   3.661 -2.9255 -0.2676  1.2491
13476TIP3    H261844   1.560   6.222   3.649 -1.1302 -0.1971  0.4750
13477TIP3   OH261845   2.456   3.601  16.584 -0.3269 -0.1528 -0.4864
13477TIP3    H161846   2.437   3.508  16.574  1.2746 -0.6043  0.2612
13477TIP3    H261847   2.550   3.604  16.606  0.0563  1.7426 -2.1018
13478TIP3   OH261848   3.430   4.490  12.945 -0.2520  0.4699 -0.9969
13478TIP3    H161849   3.440   4.396  12.929 -1.0391  0.4475 -1.3661
13478TIP3    H261850   3.494   4.531  12.888  0.6837  0.1295 -0.2281
13479TIP3   OH261851   2.302   1.554  12.124  0.1137  0.4108  0.2537
13479TIP3    H161852   2.262   1.469  12.107  2.8355 -1.3895  1.9939
13479TIP3    H261853   2.246   1.595  12.190 -1.0126 -0.1870 -0.3139
13480TIP3   OH261854   5.346   3.383  12.027 -0.5855 -0.2809 -0.1910
13480TIP3    H161855   5.355   3.407  12.120  1.4735  2.4721 -0.9545
13480TIP3    H261856   5.410   3.314  12.014 -0.6443 -0.4446  0.3717
13481TIP3   OH261857   3.818   2.929   2.096 -0.2579  0.2345 -0.0586
13481TIP3    H161858   3.859   2.876   2.165 -0.5645  0.2786  0.1552
13481TIP3    H261859   3.888   2.988   2.067 -0.1998  0.3923  0.3922
13482TIP3   OH261860   6.789   1.186   2.735 -0.2054 -0.0681  0.2580
13482TIP3    H161861   6.808   1.094   2.750 -3.9679 -1.1115 -0.5554
13482TIP3    H261862   6.781   1.224   2.823 -0.8145 -1.0475  0.6351
13483TIP3   OH261863   1.143   3.297   1.908 -0.1048  0.1644  0.0715
13483TIP3    H161864   1.059   3.251   1.913 -0.5694  0.9033 -0.6623
13483TIP3    H261865   1.196   3.259   1.978 -1.1749 -0.0599  0.7751
13484TIP3   OH261866   3.175   4.157  15.765  0.4739  0.0040 -0.6659
13484TIP3    H161867   3.177   4.117  15.852  1.7886  0.1006 -0.6302
13484TIP3    H261868   3.107   4.225  15.772  0.3767 -0.1678  0.2023
13485TIP3   OH261869   1.555   6.537   1.523 -0.1183  0.1652  0.2310
13485TIP3    H161870   1.645   6.541   1.555  0.1593  0.2208 -0.5354
13485TIP3    H261871   1.504   6.507   1.598  1.0216 -3.5101 -0.2694
13486TIP3   OH261872   6.597   5.887  10.156 -0.3529 -0.3503  0.1273
13486TIP3    H161873   6.501   5.895  10.151 -0.2817  0.6733  0.1118
13486TIP3    H261874   6.615   5.798  10.127 -1.2119 -0.1184 -1.2680
13487TIP3   OH261875   6.011   6.805  12.728  0.2425 -0.1295  0.6821
13487TIP3    H161876   6.051   6.880  12.772 -1.0401  1.0452 -0.0681
13487TIP3    H261877   5.921   6.803  12.761 -0.2597 -0.2166 -0.6436
13488TIP3   OH261878   3.022   0.837  10.979  0.0835  0.1146 -0.0468
13488TIP3    H161879   3.080   0.913  10.984  0.5371 -0.1928 -0.5098
13488TIP3    H261880   3.002   0.829  10.886  1.4354 -1.3487 -0.2557
13489TIP3   OH261881   6.576   1.785  13.273  0.5919 -0.2518 -0.4442
13489TIP3    H161882   6.603   1.808  13.362  0.8240  0.1184 -0.6080
13489TIP3    H261883   6.652   1.739  13.237  0.5277 -0.3308 -0.4787
13490TIP3   OH261884   6.564   4.258   1.296  0.1233  0.2031 -0.1915
13490TIP3    H161885   6.501   4.271   1.225  0.3785  0.0004 -0.4594
13490TIP3    H261886   6.537   4.319   1.364 -1.7474 -1.4234  0.6382
13491TIP3   OH261887   0.857   5.949  10.437  0.4553  0.5343 -0.0098
13491TIP3    H161888   0.817   5.876  10.389 -0.7379  0.5091  0.9745
13491TIP3    H261889   0.947   5.952  10.405  0.4334 -1.1359 -0.3520
13492TIP3   OH261890   0.969   4.517   0.262  0.1152  0.3196 -0.5980
13492TIP3    H161891   0.999   4.452   0.198  1.1994  1.0933 -0.9225
13492TIP3    H261892   1.012   4.598   0.234 -1.8911  1.3978 -0.7322
13493TIP3   OH261893   6.139   4.841  14.020 -0.0316 -0.0734 -0.0880
13493TIP3    H161894   6.059   4.855  14.071  0.0061 -2.2071  0.6493
13493TIP3    H261895   6.202   4.904  14.057 -0.6278 -0.1240  1.0696
13494TIP3   OH261896   6.762   1.100   5.530 -0.1296 -0.2908 -0.0717
13494TIP3    H161897   6.758   1.042   5.455  0.7713  1.0749 -1.2381
13494TIP3    H261898   6.670   1.111   5.557 -0.3127 -2.2104  0.2101
13495TIP3   OH261899   2.332   4.453  16.197  0.1132  0.0118 -0.0212
13495TIP3    H161900   2.373   4.387  16.253  0.6141 -0.9354 -1.4317
13495TIP3    H261901   2.370   4.536  16.226  0.8122 -0.5271  0.6480
13496TIP3   OH261902   3.893   6.568   2.101  0.4379  0.0714  0.1384
13496TIP3    H161903   3.968   6.531   2.146 -0.1373 -1.3246 -0.0159
13496TIP3    H261904   3.925   6.588   2.013  0.1993 -2.3252 -0.5628
13497TIP3   OH261905   4.537   4.852   5.634 -0.3094  0.0361 -0.2683
13497TIP3    H161906   4.472   4.910   5.593 -0.1161  0.4319 -0.0177
13497TIP3    H261907   4.581   4.907   5.699  0.1839 -0.2664 -0.3387
13498TIP3   OH261908   1.262   4.671   1.430 -0.9826  0.1868  0.8648
13498TIP3    H161909   1.307   4.749   1.464 -0.6491  0.4491 -0.1368
13498TIP3    H261910   1.328   4.602   1.435 -0.3152  0.6398 -0.8823
13499TIP3   OH261911   2.375   0.221   3.783  0.6376 -0.5517 -0.2309
13499TIP3    H161912   2.285   0.248   3.802  0.1188 -1.6283 -1.0463
13499TIP3    H261913   2.406   0.284   3.718 -0.4861 -1.7070 -1.9667
13500TIP3   OH261914   6.787   2.779   1.868  0.1525 -0.4493  0.4797
13500TIP3    H161915   6.845   2.726   1.814 -2.3689 -1.8095 -1.0732
13500TIP3    H261916   6.812   2.869   1.848  3.3578 -0.8802  1.8588
13501TIP3   OH261917   4.036   1.954  13.578  0.0986 -0.0552 -0.1697
13501TIP3    H161918   4.112   2.012  13.581 -0.0287  0.1028  0.0216
13501TIP3    H261919   4.073   1.866  13.570  0.3351 -0.0895  1.2008
13502TIP3   OH261920   4.795   5.020  16.701  0.2502  0.0341  0.6682
13502TIP3    H161921   4.723   4.982  16.651 -0.7965 -1.4176  3.1636
13502TIP3    H261922   4.871   5.011  16.643 -1.0205 -0.8999 -0.9338
13503TIP3   OH261923   4.739   0.055  12.851 -0.3351  0.2887 -0.3596
13503TIP3    H161924   4.815   0.108  12.872  0.2439 -0.4435 -0.5655
13503TIP3    H261925   4.670   0.088  12.909  0.7074 -0.4408  1.3656
13504TIP3   OH261926   6.222   0.386   3.279  0.4565  0.0059 -0.1373
13504TIP3    H161927   6.276   0.313   3.310  0.5751 -0.8669 -2.2378
13504TIP3    H261928   6.212   0.370   3.185 -0.3070  2.2084 -0.4837
13505TIP3   OH261929   4.748   0.399   5.484  0.3330 -0.4810  0.1149
13505TIP3    H161930   4.704   0.480   5.460  0.0194 -0.5848  0.3317
13505TIP3    H261931   4.678   0.342   5.518  0.6420 -0.6184  0.5404
13506TIP3   OH261932   3.692   5.471   3.105  0.4254 -0.1373  0.5387
13506TIP3    H161933   3.705   5.487   3.012  1.1333 -0.9840  0.4831
13506TIP3    H261934   3.667   5.379   3.111 -0.5900  0.1522  1.1153
13507TIP3   OH261935   4.781   0.560  11.304 -0.1302 -0.0450 -0.0573
13507TIP3    H161936   4.868   0.579  11.268 -0.3660  1.3594  0.0501
13507TIP3    H261937   4.720   0.606  11.246 -0.9842 -2.4131 -1.1519
13508TIP3   OH261938   2.779   3.216   6.285  0.6682 -0.3016 -0.0542
13508TIP3    H161939   2.709   3.275   6.312 -0.5578 -1.4889 -0.5490
13508TIP3    H261940   2.780   3.222   6.190  0.4534 -1.1499 -0.1178
13509TIP3   OH261941   6.571   6.366   3.815  0.3086  0.2053  0.0952
13509TIP3    H161942   6.537   6.449   3.849 -0.6108  0.4209 -1.2723
13509TIP3    H261943   6.666   6.376   3.818  0.2204  0.9978  0.6591
13510TIP3   OH261944   1.118   1.360   3.487  0.3357  0.2237 -0.5229
13510TIP3    H161945   1.214   1.367   3.479  0.4687  0.2554  0.8602
13510TIP3    H261946   1.099   1.268   3.470  0.6530  0.1432 -0.4459
13511TIP3   OH261947   4.318   2.346   3.346 -0.5447 -0.3336  0.5498
13511TIP3    H161948   4.262   2.314   3.275  0.4711  0.2599 -0.5611
13511TIP3    H261949   4.339   2.436   3.321 -0.0786 -0.1556  1.5558
13512TIP3   OH261950   3.651   3.870   1.512  0.8010  0.2999  0.2914
13512TIP3    H161951   3.669   3.807   1.582 -0.3938  0.9795  1.2517
13512TIP3    H261952   3.567   3.910   1.536  1.4638  2.1890 -0.3201
13513TIP3   OH261953   3.662   6.188  12.386 -0.4486  0.3073 -0.2923
13513TIP3    H161954   3.637   6.259  12.327 -1.1169 -0.6651 -1.2323
13513TIP3    H261955   3.739   6.149  12.346  0.5325  1.1095  0.7590
13514TIP3   OH261956   6.867   5.716  10.682  0.4515 -0.4311 -0.0904
13514TIP3    H161957   6.788   5.769  10.695  2.2507  1.9931  1.7773
13514TIP3    H261958   6.837   5.626  10.690 -2.4581  0.2838 -1.5999
13515TIP3   OH261959   1.149   4.760  16.223  0.0028  0.5717 -0.6359
13515TIP3    H161960   1.069   4.813  16.224  0.1585  0.8072 -0.5878
13515TIP3    H261961   1.143   4.708  16.304 -0.4305  0.0883 -0.9692
13516TIP3   OH261962   6.065   2.307   0.980  0.5706  0.9348  0.7596
13516TIP3    H161963   6.064   2.260   1.063  0.8623  0.6193  0.5846
13516TIP3    H261964   6.155   2.337   0.970  0.6044  0.7298  0.4232
13517TIP3   OH261965   5.255   2.034  15.826 -0.3151  0.4857 -0.5768
13517TIP3    H161966   5.267   1.981  15.904 -0.0646  0.8753 -0.3440
13517TIP3    H261967   5.182   2.093  15.848 -0.0957  0.7500 -0.5485
13518TIP3   OH261968   4.823   1.297   1.580 -0.1579  0.3652 -0.2292
13518TIP3    H161969   4.780   1.332   1.658 -0.6183 -2.7087  1.0458
13518TIP3    H261970   4.907   1.263   1.612  0.9904  1.6341 -1.7081
13519TIP3   OH261971   5.205   2.718   6.167  0.0043  0.2572  0.0145
13519TIP3    H161972   5.255   2.707   6.248 -0.1492  2.2766  0.4370
13519TIP3    H261973   5.271   2.728   6.099  0.3034  2.9250  0.5718
13520TIP3   OH261974   5.363   2.737   0.357  0.1026  0.2000 -0.2502
13520TIP3    H161975   5.318   2.739   0.272 -0.9882 -1.5015  0.2300
13520TIP3    H261976   5.354   2.826   0.391 -0.6271  0.5641 -1.3330
13521TIP3   OH261977   4.453   1.320   3.328  0.2432  0.9059  0.1324
13521TIP3    H161978   4.376   1.318   3.273  0.3248  1.3564  0.0011
13521TIP3    H261979   4.517   1.372   3.280  1.0924 -0.5140 -0.3638
13522TIP3   OH261980   2.145   5.129  16.264 -0.1709  0.1605  0.6062
13522TIP3    H161981   2.199   5.050  16.255  0.3369  0.3883  1.5562
13522TIP3    H261982   2.055   5.095  16.266 -0.0541 -0.2657 -0.4221
13523TIP3   OH261983   1.643   0.741  11.631 -0.7878 -0.0547 -0.3108
13523TIP3    H161984   1.705   0.778  11.568  1.2834 -1.9764  0.4714
13523TIP3    H261985   1.601   0.669  11.585 -1.1275  0.0962 -0.2466
13524TIP3   OH261986   6.467   3.418   5.784  0.2030  0.2977  0.8460
13524TIP3    H161987   6.453   3.420   5.878  1.2755 -0.8612  1.0676
13524TIP3    H261988   6.532   3.349   5.771 -0.0346  0.3302 -0.7610
13525TIP3   OH261989   3.002   6.255   0.839 -0.2565 -0.1870 -0.3418
13525TIP3    H161990   3.057   6.259   0.917 -1.4989 -0.0968  0.5654
13525TIP3    H261991   3.058   6.286   0.768  0.6713  0.4737  0.6482
13526TIP3   OH261992   4.168   3.279  13.486 -0.0937 -0.2247  0.2143
13526TIP3    H161993   4.245   3.246  13.439 -0.1822  1.6774 -1.4060
13526TIP3    H261994   4.137   3.204  13.537  1.4599 -1.7074 -0.9033
13527TIP3   OH261995   5.962   2.177   0.161  0.4271 -0.0794  0.2185
13527TIP3    H161996   6.052   2.170   0.193  0.4739  0.0290  0.1125
13527TIP3    H261997   5.938   2.268   0.179  0.9904  0.4213 -1.4472
13528TIP3   OH261998   6.055   6.621  16.020 -0.0622 -0.6494 -0.2808
13528TIP3    H161999   6.097   6.546  16.062  1.2010 -0.1124 -0.5460
13528TIP3    H262000   5.988   6.582  15.964  0.2880 -1.5544 -0.0975
13529TIP3   OH262001   1.436   3.798  13.577 -0.7074 -0.1211  0.5914
13529TIP3    H162002   1.448   3.750  13.659 -0.1804  0.3552  0.7985
13529TIP3    H262003   1.525   3.813  13.544 -0.9365 -1.3932 -0.7163
13530TIP3   OH262004   6.322   0.877   5.380 -0.3478 -0.3186 -0.2222
13530TIP3    H162005   6.276   0.828   5.448  0.9700 -1.4715 -0.1210
13530TIP3    H262006   6.321   0.968   5.412 -0.8467 -0.6372  0.7111
13531TIP3   OH262007   5.554   5.520  14.486 -0.1267  0.2198  0.2624
13531TIP3    H162008   5.520   5.560  14.566 -0.4813 -1.4161  0.9799
13531TIP3    H262009   5.642   5.490  14.510 -0.4820 -0.8686  0.2769
13532TIP3   OH262010   2.132   3.163  13.659  0.1023  0.4153 -0.4424
13532TIP3    H162011   2.050   3.119  13.638 -1.3541  2.2700  0.9707
13532TIP3    H262012   2.199   3.096  13.646 -1.7882 -1.6985  0.0338
13533TIP3   OH262013   4.837   6.227   4.241  0.2611 -0.4047 -0.2524
13533TIP3    H162014   4.876   6.177   4.312  0.6903  0.9141  0.4638
13533TIP3    H262015   4.899   6.298   4.225 -1.6886  1.6186  0.7536
13534TIP3   OH262016   2.703   6.652  14.370 -0.1488  0.1632  0.0519
13534TIP3    H162017   2.683   6.710  14.443  0.6424 -0.1638  0.5375
13534TIP3    H262018   2.737   6.572  14.411 -0.0729 -0.1766 -0.6550
13535TIP3   OH262019   1.016   6.563   1.133 -0.0049  0.5477  0.5488
13535TIP3    H162020   0.959   6.625   1.087  0.6484  0.2625 -0.6961
13535TIP3    H262021   0.960   6.486   1.147  0.0400  0.2840 -0.6222
13536TIP3   OH262022   3.819   5.959   2.401  0.3576  0.0342 -0.4075
13536TIP3    H162023   3.775   5.901   2.339  0.3165 -1.2844  0.7804
13536TIP3    H262024   3.761   5.960   2.478  1.8833 -0.9947  0.8344
13537TIP3   OH262025   2.268   0.738  11.306  0.5054  0.0791  0.5262
13537TIP3    H162026   2.206   0.803  11.338  1.1502  0.8715  0.2123
13537TIP3    H262027   2.353   0.771  11.334  1.1015  0.7911 -1.9044
13538TIP3   OH262028   5.794   3.139   0.920 -0.2574 -0.4861 -0.8306
13538TIP3    H162029   5.793   3.234   0.910 -3.2500 -0.5744 -2.5692
13538TIP3    H262030   5.850   3.108   0.848 -0.5151 -0.0948 -1.2010
13539TIP3   OH262031   0.548   2.615   1.851  0.0627  0.3217  0.0207
13539TIP3    H162032   0.599   2.537   1.829  2.0039  0.4381  3.4298
13539TIP3    H262033   0.596   2.688   1.812  1.9743  0.2944  2.0829
13540TIP3   OH262034   5.740   1.959  15.931 -0.0679 -0.1041  0.2420
13540TIP3    H162035   5.655   1.939  15.890 -0.6831 -0.8023  1.7705
13540TIP3    H262036   5.766   2.042  15.893 -2.2871  0.9917  0.9363
13541TIP3   OH262037   2.296   6.822  11.183 -0.6288  0.0780  0.2251
13541TIP3    H162038   2.273   6.915  11.186  0.5495  0.3705  0.7177
13541TIP3    H262039   2.391   6.820  11.192 -0.6783 -1.2041  0.7383
13542TIP3   OH262040   3.239   0.624   1.939 -0.0531  0.2802 -0.3741
13542TIP3    H162041   3.309   0.689   1.939 -0.1766  0.4925  1.6748
13542TIP3    H262042   3.164   0.668   1.900  0.4512  0.6453 -0.9495
13543TIP3   OH262043   4.118   4.150  13.918 -0.6646 -0.0077  0.0630
13543TIP3    H162044   4.107   4.134  13.825 -0.3886 -0.5892  0.1284
13543TIP3    H262045   4.166   4.074  13.950 -2.2366 -0.6473  1.0029
13544TIP3   OH262046   5.026   6.383   2.769 -0.1294 -0.2233  0.7056
13544TIP3    H162047   5.029   6.384   2.673 -0.7107  1.3979  0.6857
13544TIP3    H262048   5.008   6.473   2.794 -1.4417 -0.8753  2.3002
13545TIP3   OH262049   1.086   4.612   2.340 -0.1433 -0.1018 -0.4317
13545TIP3    H162050   1.123   4.695   2.367  1.1185  0.4081 -3.3604
13545TIP3    H262051   1.151   4.547   2.365 -0.8954 -0.2199  1.3835
13546TIP3   OH262052   3.832   3.730   0.435 -0.2092 -0.0647 -0.0079
13546TIP3    H162053   3.870   3.673   0.368  1.3242  1.5260 -0.5826
13546TIP3    H262054   3.875   3.704   0.517 -0.2144 -0.3580 -0.1001
13547TIP3   OH262055   0.173   4.834  15.991  0.1002  0.5925 -0.0790
13547TIP3    H162056   0.223   4.871  15.919  0.0604 -0.1196 -0.4858
13547TIP3    H262057   0.084   4.822  15.956 -0.4949  2.2582  0.7739
13548TIP3   OH262058   0.425   2.076  11.840  0.2675 -0.3837 -0.0513
13548TIP3    H162059   0.439   1.999  11.894 -2.1828 -0.8010  0.1234
13548TIP3    H262060   0.413   2.147  11.903  0.5159 -0.2631 -0.1417
13549TIP3   OH262061   5.962   4.249   2.725 -0.3731 -0.2301 -0.5182
13549TIP3    H162062   5.930   4.193   2.795  1.1136 -0.5905 -0.0962
13549TIP3    H262063   6.000   4.324   2.770 -0.7677  0.2781 -1.0152
13550TIP3   OH262064   0.322   0.742  10.976 -0.0131  0.3922  0.5464
13550TIP3    H162065   0.321   0.662  10.924 -0.5732 -0.2916  1.5691
13550TIP3    H262066   0.390   0.797  10.936  2.5443 -1.8040  1.6021
13551TIP3   OH262067   1.210   2.147  11.966 -0.2373 -0.0739  0.0382
13551TIP3    H162068   1.271   2.137  11.893 -0.5116 -0.7879 -0.0989
13551TIP3    H262069   1.131   2.184  11.926  0.2561  1.3391  0.2974
13552TIP3   OH262070   1.267   0.542   3.822  0.1179  0.4605 -0.3900
13552TIP3    H162071   1.210   0.576   3.753 -1.3533  1.4693  1.2206
13552TIP3    H262072   1.311   0.620   3.857  1.3918 -0.1228 -0.6122
13553TIP3   OH262073   1.357   4.539   3.413 -0.1279  0.3122 -0.1918
13553TIP3    H162074   1.401   4.565   3.332 -1.6121 -0.6386 -1.3546
13553TIP3    H262075   1.309   4.618   3.441 -0.4380  0.3500 -0.8189
13554TIP3   OH262076   4.006   5.963  12.281 -0.2714 -0.5054 -0.0014
13554TIP3    H162077   4.036   6.053  12.288  1.2112 -0.9999  0.3347
13554TIP3    H262078   3.922   5.969  12.236 -0.6035  1.1032  0.7508
13555TIP3   OH262079   6.450   0.736  12.382  0.7135  0.4403 -0.2093
13555TIP3    H162080   6.427   0.806  12.442  1.3435  1.6179 -1.2892
13555TIP3    H262081   6.366   0.696  12.358  0.5263 -0.9565  2.4147
13556TIP3   OH262082   0.999   0.258   4.561  0.4020  0.1138 -0.5550
13556TIP3    H162083   1.087   0.256   4.599  0.5418  1.5641 -0.7725
13556TIP3    H262084   1.012   0.284   4.470 -0.0923 -1.6699 -1.1786
13557TIP3   OH262085   0.822   2.215  11.049  0.1088 -0.0032 -0.0942
13557TIP3    H162086   0.886   2.147  11.027  0.0576 -0.0269 -0.1691
13557TIP3    H262087   0.816   2.269  10.971 -0.8709 -0.7203 -0.5348
13558TIP3   OH262088   6.103   5.460   1.582  0.5341  0.3092  0.1495
13558TIP3    H162089   6.086   5.387   1.522  0.5114 -0.2478  0.8304
13558TIP3    H262090   6.144   5.420   1.658  0.5637  1.0187  0.5155
13559TIP3   OH262091   5.412   0.964   5.964 -0.0106 -0.5177 -0.2847
13559TIP3    H162092   5.322   0.992   5.948  0.7069  0.6978 -2.5467
13559TIP3    H262093   5.405   0.871   5.988 -1.9441 -0.0706  1.0855
13560TIP3   OH262094   2.804   1.699  12.908  0.2240  0.3606  0.2464
13560TIP3    H162095   2.795   1.621  12.962  1.5005 -0.9680 -1.3405
13560TIP3    H262096   2.812   1.771  12.970  0.6926 -0.9617  1.7834
13561TIP3   OH262097   0.067   0.381  15.800  0.0977 -0.0960  0.4649
13561TIP3    H162098   0.082   0.410  15.890 -2.8168  1.5108  0.5485
13561TIP3    H262099   0.124   0.437  15.747 -0.1813  0.8621  1.1473
13562TIP3   OH262100   2.759   2.311   5.356  0.2712 -0.4206 -0.0588
13562TIP3    H162101   2.692   2.304   5.424  0.3123  0.1728  0.0507
13562TIP3    H262102   2.740   2.240   5.295 -1.3425  0.6046 -0.8124
13563TIP3   OH262103   2.421   6.558  16.141  0.3992  0.2756 -0.3062
13563TIP3    H162104   2.410   6.653  16.135  0.3974  0.3162  0.2706
13563TIP3    H262105   2.398   6.537  16.232  2.2660 -0.0086  0.1388
13564TIP3   OH262106   4.407   5.120  15.572  0.2646  0.1673  0.1050
13564TIP3    H162107   4.313   5.116  15.553  0.5146  0.0169 -1.2426
13564TIP3    H262108   4.446   5.151  15.490  1.4405 -0.2365  0.4951
13565TIP3   OH262109   0.089   5.754   3.867  0.2305 -0.2578  0.0472
13565TIP3    H162110   0.173   5.722   3.834  0.5650  0.0460  0.5820
13565TIP3    H262111   0.103   5.848   3.882 -0.9714  0.3603 -2.2688
13566TIP3   OH262112   3.306   6.227   4.686 -0.5321  0.8002 -0.2508
13566TIP3    H162113   3.295   6.143   4.729 -1.6855  0.7704 -0.5741
13566TIP3    H262114   3.398   6.250   4.700 -0.3802 -0.1871  0.4139
13567TIP3   OH262115   3.469   6.090  11.264 -0.1916  0.4527  0.5389
13567TIP3    H162116   3.545   6.137  11.229 -0.0057 -1.5017 -2.0373
13567TIP3    H262117   3.396   6.121  11.211 -0.2982 -1.0366 -0.2495
13568TIP3   OH262118   0.842   6.547   1.511  0.4113 -0.2387 -0.1669
13568TIP3    H162119   0.767   6.533   1.569  1.7225 -1.2048  1.3932
13568TIP3    H262120   0.857   6.462   1.470  0.5546 -0.0155 -0.5769
13569TIP3   OH262121   2.844   4.641   1.458 -0.0887 -0.2622  1.2774
13569TIP3    H162122   2.780   4.663   1.391  0.3260 -0.3913  0.8318
13569TIP3    H262123   2.887   4.724   1.479  2.2449 -0.6965 -1.1989
13570TIP3   OH262124   4.464   4.180  14.406  0.5698  0.2839 -0.5468
13570TIP3    H162125   4.409   4.257  14.387  0.7147  0.5366  0.0467
13570TIP3    H262126   4.541   4.192  14.351  0.1586  0.0643 -1.1839
13571TIP3   OH262127   1.737   6.561  12.428 -0.2868  0.3473 -0.3999
13571TIP3    H162128   1.831   6.540  12.435  0.2611  2.7552  0.7423
13571TIP3    H262129   1.699   6.527  12.509  0.0741  1.2115  0.1628
13572TIP3   OH262130   1.980   4.872  16.067 -0.3993  0.0412 -0.4644
13572TIP3    H162131   1.963   4.838  15.979  1.9238  0.3897 -1.1181
13572TIP3    H262132   2.075   4.881  16.071 -0.4063 -0.3791  2.2679
13573TIP3   OH262133   3.393   3.581   6.466 -0.4193  0.1186 -0.0483
13573TIP3    H162134   3.300   3.605   6.468 -0.6486 -0.4435 -1.9171
13573TIP3    H262135   3.436   3.657   6.428 -0.4218 -0.3618 -1.0549
13574TIP3   OH262136   0.182   6.334  10.170 -0.9486  0.2025 -0.2813
13574TIP3    H162137   0.127   6.272  10.122  0.2264  0.6114 -2.2858
13574TIP3    H262138   0.126   6.410  10.185 -1.3703  0.0399 -0.9801
13575TIP3   OH262139   4.634   1.164  13.487 -0.2347 -0.4898 -0.8432
13575TIP3    H162140   4.607   1.170  13.396 -1.3961 -0.0812 -0.4871
13575TIP3    H262141   4.616   1.250  13.524  0.0351 -0.7093 -0.1784
13576TIP3   OH262142   5.177   6.712  14.216 -0.2558 -0.0719 -0.4414
13576TIP3    H162143   5.261   6.691  14.175 -0.7039 -0.0709 -1.3919
13576TIP3    H262144   5.139   6.627  14.236 -0.4224 -0.0901 -0.8362
13577TIP3   OH262145   6.262   6.748   3.409  0.4810  0.1557  0.0670
13577TIP3    H162146   6.219   6.759   3.494  2.4671  2.4010  0.8886
13577TIP3    H262147   6.189   6.736   3.348 -1.0758 -0.1707  1.8690
13578TIP3   OH262148   1.738   1.474   4.873  0.5779 -0.9973  0.4191
13578TIP3    H162149   1.778   1.396   4.913  0.4414  0.2733  3.2417
13578TIP3    H262150   1.645   1.465   4.892  0.1135 -1.4424 -1.7354
13579TIP3   OH262151   5.056   0.439  13.902  0.0654  0.1798 -0.7817
13579TIP3    H162152   5.060   0.407  13.813  0.8601 -0.8720 -0.3862
13579TIP3    H262153   4.977   0.401  13.939 -1.2747  2.0838 -1.5557
13580TIP3   OH262154   3.348   3.511  14.328 -0.2571 -0.3661  0.2998
13580TIP3    H162155   3.413   3.441  14.325 -0.2510 -0.4446  1.6989
13580TIP3    H262156   3.304   3.500  14.412 -0.4444  1.1556  0.4372
13581TIP3   OH262157   0.452   2.515  15.796 -0.7019  0.0532  0.4426
13581TIP3    H162158   0.472   2.459  15.872 -1.4690  0.9391  1.3324
13581TIP3    H262159   0.402   2.458  15.738 -0.0995 -0.6454  0.5740
13582TIP3   OH262160   5.335   3.855  14.966 -0.5853 -0.4070  0.3050
13582TIP3    H162161   5.397   3.783  14.973 -1.8369 -1.5891 -0.3284
13582TIP3    H262162   5.389   3.934  14.973  0.9798 -1.3821 -0.2599
13583TIP3   OH262163   5.651   3.840   5.075  0.2897 -0.1922 -1.0598
13583TIP3    H162164   5.621   3.749   5.082 -0.8212  0.2030 -0.6311
13583TIP3    H262165   5.599   3.877   5.005  0.5156  0.2161 -1.0147
13584TIP3   OH262166   6.120   2.111   0.361 -0.4579  0.7323  0.1420
13584TIP3    H162167   6.181   2.106   0.435  0.7906  0.1412 -0.9027
13584TIP3    H262168   6.041   2.151   0.399 -0.5654 -1.2465  2.2373
13585TIP3   OH262169   6.459   2.595  11.752 -0.0321  0.1238 -0.4668
13585TIP3    H162170   6.426   2.664  11.810 -0.1941 -0.2620 -0.0951
13585TIP3    H262171   6.543   2.569  11.791 -0.2276 -0.2626 -0.2962
13586TIP3   OH262172   6.140   0.135  16.338 -0.2095  0.4489 -0.0231
13586TIP3    H162173   6.096   0.051  16.333  0.9185 -0.0876 -1.6280
13586TIP3    H262174   6.081   0.190  16.390 -1.6193 -0.9024 -0.1256
13587TIP3   OH262175   0.531   5.146  16.232 -0.2895 -0.4579  0.3178
13587TIP3    H162176   0.575   5.141  16.147 -0.7339  1.4658 -0.0635
13587TIP3    H262177   0.451   5.094  16.221 -0.2791 -0.3258 -0.3960
13588TIP3   OH262178   1.608   1.630   1.639 -0.0641 -0.2910 -0.4640
13588TIP3    H162179   1.539   1.692   1.617 -0.1351 -0.0442  0.3985
13588TIP3    H262180   1.599   1.616   1.734  0.4575 -0.9993 -0.5042
13589TIP3   OH262181   6.013   1.700   5.200  0.4140  0.6074 -0.0410
13589TIP3    H162182   6.074   1.713   5.127  0.2224 -1.9494 -0.7599
13589TIP3    H262183   5.932   1.671   5.158 -0.3758  1.1613  1.0750
13590TIP3   OH262184   2.217   0.326  16.528  0.0884  0.3436  0.2378
13590TIP3    H162185   2.260   0.255  16.481 -1.3427 -1.2062  1.1660
13590TIP3    H262186   2.151   0.360  16.467  0.4209  0.5498 -0.0121
13591TIP3   OH262187   6.522   3.783  11.641 -0.4261  0.1864  0.0370
13591TIP3    H162188   6.572   3.767  11.721 -0.1291  0.6267 -0.0564
13591TIP3    H262189   6.586   3.815  11.578 -0.7983  0.6611 -0.1156
13592TIP3   OH262190   1.565   6.161   2.426  0.0466 -0.0182  0.6904
13592TIP3    H162191   1.587   6.251   2.403 -2.5536  0.9350  1.6312
13592TIP3    H262192   1.611   6.108   2.361  0.5708  2.0494 -0.7181
13593TIP3   OH262193   6.708   6.512   5.129 -0.2006 -0.4062  0.0509
13593TIP3    H162194   6.624   6.470   5.115 -0.8873  0.0189  2.3893
13593TIP3    H262195   6.771   6.440   5.136 -0.4668 -0.7547 -1.0289
13594TIP3   OH262196   2.150   6.024  13.931 -0.0571  0.4369 -0.3820
13594TIP3    H162197   2.173   6.113  13.904  0.1316  1.2435  2.2120
13594TIP3    H262198   2.089   5.994  13.863  1.0510  1.9282 -2.1448
13595TIP3   OH262199   6.596   2.770  11.914 -0.2485  0.2852 -0.1614
13595TIP3    H162200   6.583   2.728  11.999  1.8336 -0.1007 -0.0010
13595TIP3    H262201   6.550   2.854  11.921  0.4112  0.5264  1.5488
13596TIP3   OH262202   3.469   1.809   1.195  0.1382 -0.2876 -0.1545
13596TIP3    H162203   3.537   1.835   1.258  0.4477  1.3122 -1.0767
13596TIP3    H262204   3.401   1.876   1.206  0.3525  0.2273 -1.7155
13597TIP3   OH262205   0.498   0.544   0.627  0.6924  0.5145  0.3420
13597TIP3    H162206   0.582   0.515   0.662  0.7807  1.1174  0.6380
13597TIP3    H262207   0.481   0.627   0.671 -1.3208 -0.8311  2.2814
13598TIP3   OH262208   5.595   2.740   2.924  0.3887 -0.1938 -0.6023
13598TIP3    H162209   5.595   2.644   2.916  1.2392 -0.1676 -1.1282
13598TIP3    H262210   5.572   2.771   2.836 -2.3571  0.0943  0.1573
13599TIP3   OH262211   2.958   0.473   5.362  0.2642 -0.1532 -0.0875
13599TIP3    H162212   3.028   0.433   5.414  0.2271  0.4147  0.4038
13599TIP3    H262213   2.929   0.547   5.414  0.0537  0.2792 -0.8133
13600TIP3   OH262214   0.233   6.004   5.232  0.1127  0.1877 -0.3676
13600TIP3    H162215   0.146   6.040   5.214  0.2601  1.5688  1.3659
13600TIP3    H262216   0.288   6.040   5.163 -0.8434 -1.6443 -2.1855
13601TIP3   OH262217   6.750   4.990  13.501 -0.6309 -0.3475 -0.0832
13601TIP3    H162218   6.700   4.909  13.515  1.3542 -1.5086  0.5984
13601TIP3    H262219   6.804   4.972  13.424  0.0506  0.2068  0.2546
13602TIP3   OH262220   2.856   3.328  15.759 -0.2162  0.1909  0.1310
13602TIP3    H162221   2.816   3.315  15.845  2.1414  1.1219  1.4785
13602TIP3    H262222   2.922   3.396  15.774  2.3370 -1.6733 -1.6993
13603TIP3   OH262223   6.402   0.472  15.065 -0.3511 -0.1771 -0.4526
13603TIP3    H162224   6.489   0.450  15.099 -0.5791  0.6907  0.7552
13603TIP3    H262225   6.390   0.413  14.990  0.4780 -1.6481  0.5240
13604TIP3   OH262226   0.465   6.368  14.461  0.2600  0.0639 -0.0523
13604TIP3    H162227   0.518   6.420  14.400  0.3131  1.4618  1.1194
13604TIP3    H262228   0.404   6.431  14.499 -0.3205 -0.9464  0.7324
13605TIP3   OH262229   3.723   3.109   0.185 -0.1719 -0.2025 -0.2319
13605TIP3    H162230   3.795   3.119   0.247 -0.1928  0.1058 -0.2579
13605TIP3    H262231   3.739   3.024   0.143  1.2351  0.6863 -1.5948
13606TIP3   OH262232   2.584   1.842   1.634 -0.3655  0.3185 -0.0072
13606TIP3    H162233   2.492   1.840   1.607 -1.2302  2.5802  2.2961
13606TIP3    H262234   2.601   1.753   1.667 -1.6014 -0.2330 -0.7662
13607TIP3   OH262235   3.063   2.894   2.258  0.0518  0.2192  0.4153
13607TIP3    H162236   3.024   2.819   2.214 -0.9718  1.7711 -1.5032
13607TIP3    H262237   3.027   2.892   2.347 -0.7976 -0.9421  0.0597
13608TIP3   OH262238   3.837   1.463   4.566 -0.1101  0.2043 -0.0307
13608TIP3    H162239   3.800   1.427   4.646 -0.9633  0.7891 -0.1515
13608TIP3    H262240   3.762   1.492   4.515  0.4973  1.6133 -0.1853
13609TIP3   OH262241   1.996   5.151   3.984 -0.5193 -0.3741 -0.1483
13609TIP3    H162242   2.066   5.104   4.030 -0.8187  0.5237  1.2675
13609TIP3    H262243   1.928   5.085   3.970 -0.9356 -0.4141  1.8184
13610TIP3   OH262244   1.088   2.144   4.193  0.5481 -0.0967  0.2135
13610TIP3    H162245   1.047   2.217   4.240  1.1503 -0.6279  1.6382
13610TIP3    H262246   1.023   2.073   4.200  1.0038 -0.4520  1.0853
13611TIP3   OH262247   5.943   2.952   0.423 -0.2760 -0.0552  0.0697
13611TIP3    H162248   5.895   2.898   0.360 -0.5925 -0.6377  0.7989
13611TIP3    H262249   5.882   3.023   0.445  0.8864  1.9612 -2.5328
13612TIP3   OH262250   1.742   4.802  11.774 -0.6137 -0.3474 -0.0473
13612TIP3    H162251   1.805   4.786  11.704 -0.1951  1.8519 -0.2376
13612TIP3    H262252   1.658   4.774  11.738 -0.2609 -0.0946 -1.1128
13613TIP3   OH262253   4.130   1.051  13.853  0.3733 -0.1295 -0.0227
13613TIP3    H162254   4.041   1.044  13.819 -0.4034  0.4748  1.7764
13613TIP3    H262255   4.151   0.962  13.884 -0.0657 -0.0164  0.6118
13614TIP3   OH262256   4.295   0.633   5.285 -0.1017  0.3102  0.3988
13614TIP3    H162257   4.276   0.553   5.333 -0.8699  1.1167  1.4789
13614TIP3    H262258   4.211   0.678   5.279  0.4102  1.2637  0.2372
13615TIP3   OH262259   5.389   6.174  12.683 -0.0166 -0.5167 -0.1096
13615TIP3    H162260   5.470   6.209  12.646 -1.1447  0.9813 -1.3145
13615TIP3    H262261   5.415   6.093  12.727  2.3678  0.6400  0.8008
13616TIP3   OH262262   2.747   4.624  12.198 -0.8720 -0.2584  0.2609
13616TIP3    H162263   2.668   4.577  12.227 -2.2334  0.5180 -1.9611
13616TIP3    H262264   2.782   4.570  12.128  0.0264 -0.0688  0.5521
13617TIP3   OH262265   6.843   6.895  14.470  0.4171 -0.6491 -0.7722
13617TIP3    H162266   6.759   6.851  14.482 -0.2613  0.7301 -0.2692
13617TIP3    H262267   6.847   6.917  14.377 -1.0073  1.5477 -0.3994
13618TIP3   OH262268   5.394   1.429  13.922 -0.4108 -0.5333  0.4124
13618TIP3    H162269   5.401   1.334  13.928 -0.6769 -0.5826 -0.1042
13618TIP3    H262270   5.311   1.450  13.965  0.0622 -0.4487  1.3204
13619TIP3   OH262271   2.283   1.543   3.023  0.4908 -0.6293 -0.5979
13619TIP3    H162272   2.331   1.469   3.060 -0.0660 -0.5814  0.2185
13619TIP3    H262273   2.243   1.507   2.944  0.8686 -0.9864 -0.6350
13620TIP3   OH262274   4.349   5.028   5.433  0.1819  0.3630 -0.5129
13620TIP3    H162275   4.308   5.045   5.517  1.3591  1.0030 -0.0394
13620TIP3    H262276   4.280   4.990   5.379  0.1018 -2.8293  1.6260
13621TIP3   OH262277   0.507   2.894  10.922 -0.3424  0.1441  0.4173
13621TIP3    H162278   0.478   2.916  10.834 -1.4130 -1.8998  0.1872
13621TIP3    H262279   0.520   2.978  10.965 -0.7165  1.1834 -1.3871
13622TIP3   OH262280   0.346   3.512  14.201  0.3637 -0.7487 -0.2559
13622TIP3    H162281   0.303   3.576  14.144 -0.9253 -2.0282 -0.8025
13622TIP3    H262282   0.388   3.564  14.269  0.5373  0.7323 -1.4457
13623TIP3   OH262283   3.248   2.080  11.959 -0.2713  0.1890 -0.5398
13623TIP3    H162284   3.235   1.989  11.989  2.9277 -0.0029  0.6312
13623TIP3    H262285   3.241   2.075  11.864  1.5873 -1.7376 -0.6561
13624TIP3   OH262286   3.181   2.406  14.393 -0.3232  0.9366  0.8255
13624TIP3    H162287   3.148   2.325  14.431  0.3319  0.8187  1.1604
13624TIP3    H262288   3.274   2.388  14.374 -0.6395  0.9436 -0.9625
13625TIP3   OH262289   4.547   1.157   3.952 -0.7435  0.1171 -0.0125
13625TIP3    H162290   4.477   1.110   3.996  0.4054 -0.8275  0.8869
13625TIP3    H262291   4.513   1.246   3.940 -3.3604 -1.0545 -2.6513
13626TIP3   OH262292   5.462   0.337  15.807 -0.4072 -0.7251  0.4119
13626TIP3    H162293   5.401   0.329  15.880  0.1625  0.5312  1.0625
13626TIP3    H262294   5.407   0.359  15.732 -0.6555  2.5087  1.4059
13627TIP3   OH262295   4.764   5.888  11.146  0.2758 -0.4435 -0.6952
13627TIP3    H162296   4.828   5.835  11.193  1.4804  0.6653 -1.0504
13627TIP3    H262297   4.687   5.831  11.140  1.1876 -1.7892 -0.2156
13628TIP3   OH262298   0.084   4.411  14.150 -0.6323  0.0128 -0.2745
13628TIP3    H162299   0.076   4.321  14.182  2.1883 -0.2552 -0.0762
13628TIP3    H262300   0.103   4.402  14.057  0.9557  0.3145  0.0045
13629TIP3   OH262301   1.022   2.081   0.955 -0.1975 -0.2646 -0.0994
13629TIP3    H162302   0.927   2.065   0.950 -0.2866  0.3450 -0.3928
13629TIP3    H262303   1.058   2.037   0.878 -0.4777  1.1325 -1.0687
13630TIP3   OH262304   4.190   4.407  12.837 -0.1085 -0.0400  0.3601
13630TIP3    H162305   4.196   4.448  12.923  1.1511 -0.2614  0.4037
13630TIP3    H262306   4.115   4.348  12.843  0.4334 -0.6266  1.5661
13631TIP3   OH262307   5.451   4.251  14.746 -0.7552  0.3524  0.0708
13631TIP3    H162308   5.372   4.306  14.748 -0.6314  0.5142  0.9694
13631TIP3    H262309   5.451   4.213  14.659 -1.8476  0.3339  0.0587
13632TIP3   OH262310   3.660   4.713  16.151 -0.0833 -0.1232 -0.3257
13632TIP3    H162311   3.630   4.699  16.240  1.4384 -1.6271 -0.0123
13632TIP3    H262312   3.720   4.641  16.133 -0.5680 -0.0507 -2.6809
13633TIP3   OH262313   6.355   1.591   4.476 -0.0785 -0.1656  0.6981
13633TIP3    H162314   6.424   1.641   4.520 -0.4538  0.3158  0.7501
13633TIP3    H262315   6.394   1.564   4.393  0.2400 -0.0742  0.8168
13634TIP3   OH262316   3.885   0.030   0.110 -0.0803 -0.1182  0.3287
13634TIP3    H162317   3.939   0.072   0.043 -0.5470 -0.0660 -0.0201
13634TIP3    H262318   3.822   0.098   0.135 -1.7210 -0.9833 -1.2055
13635TIP3   OH262319   2.637   2.014  15.680 -0.1793 -0.1177 -0.5857
13635TIP3    H162320   2.562   1.958  15.702  1.4899 -3.0413 -1.8133
13635TIP3    H262321   2.600   2.082  15.624 -2.0302 -1.1237 -0.6768
13636TIP3   OH262322   5.456   4.610   4.370 -0.0904  0.1177  0.3680
13636TIP3    H162323   5.458   4.704   4.388 -0.9148  0.0973  0.6074
13636TIP3    H262324   5.416   4.603   4.283  0.7817  0.0327 -0.0311
13637TIP3   OH262325   1.831   6.059   5.083 -0.1563 -0.1621  0.6287
13637TIP3    H162326   1.904   6.011   5.122 -0.5957 -0.9495  0.5046
13637TIP3    H262327   1.772   5.991   5.051 -0.0092  0.4428 -1.0372
13638TIP3   OH262328   0.424   4.148  12.870 -0.2732  0.3385 -0.2131
13638TIP3    H162329   0.455   4.151  12.780 -3.1123 -2.7059 -1.5134
13638TIP3    H262330   0.338   4.190  12.868 -0.4234  0.1328  1.0417
13639TIP3   OH262331   4.540   0.001   3.568  0.2051  0.1805 -0.0052
13639TIP3    H162332   4.527  -0.020   3.660 -1.2391 -0.0062 -0.2238
13639TIP3    H262333   4.516   0.093   3.560  4.0329  1.3678  0.4666
13640TIP3   OH262334   0.339   3.135   1.759  0.7821 -0.1918 -0.2771
13640TIP3    H162335   0.386   3.209   1.796  0.6408 -0.1462 -0.1909
13640TIP3    H262336   0.406   3.087   1.710  0.2890  1.6784 -3.0019
13641TIP3   OH262337   0.363   4.997   2.789  0.2741  0.1874 -0.1514
13641TIP3    H162338   0.431   5.048   2.833  1.4249  0.8528 -2.5656
13641TIP3    H262339   0.281   5.034   2.821  1.0553  1.0061  0.9916
13642TIP3   OH262340   6.567   0.980   1.556 -0.4112  0.1669  0.0810
13642TIP3    H162341   6.496   0.991   1.619 -0.3369  2.5687 -0.1755
13642TIP3    H262342   6.597   1.069   1.537  1.8360 -0.6960 -0.7823
13643TIP3   OH262343   0.027   4.678   0.498  0.0816 -0.0150  0.5184
13643TIP3    H162344  -0.030   4.686   0.574  1.1279  0.0473  1.3163
13643TIP3    H262345   0.017   4.761   0.451 -0.3749  0.0446  0.7186
13644TIP3   OH262346   5.978   4.299  11.307  0.0312 -0.5565  0.2938
13644TIP3    H162347   5.990   4.287  11.213 -1.5207 -3.0184  0.3492
13644TIP3    H262348   6.066   4.289  11.344  0.2629 -2.4087 -0.6651
13645TIP3   OH262349   3.075   1.849  14.592 -0.2257 -0.0148 -0.0381
13645TIP3    H162350   3.113   1.782  14.535  1.9178  1.0806  0.0206
13645TIP3    H262351   3.121   1.840  14.675 -0.0230  1.3949  0.0271
13646TIP3   OH262352   2.658   6.562  10.137  0.7202  0.4577 -0.3840
13646TIP3    H162353   2.701   6.636  10.180  0.0307 -0.3610  1.8104
13646TIP3    H262354   2.726   6.496  10.128  0.6605  0.2968  0.3065
13647TIP3   OH262355   0.799   1.457   0.495  0.4572  0.6978 -0.0571
13647TIP3    H162356   0.717   1.504   0.511  0.0895 -0.3475  1.3954
13647TIP3    H262357   0.785   1.414   0.411 -0.4894  0.5552  0.1573
13648TIP3   OH262358   0.063   6.521   1.956 -0.4101 -0.0718 -0.3967
13648TIP3    H162359   0.143   6.538   1.906 -0.6008  2.8562  0.1467
13648TIP3    H262360   0.088   6.452   2.018  1.7473  0.8609 -0.1497
13649TIP3   OH262361   5.877   5.888  14.795 -0.2606 -0.3434  0.3234
13649TIP3    H162362   5.949   5.951  14.789 -1.3713  0.9688  0.3105
13649TIP3    H262363   5.830   5.914  14.875 -2.4055  0.7339 -1.1949
13650TIP3   OH262364   2.750   5.264  16.425  0.2938  1.1299 -0.2485
13650TIP3    H162365   2.824   5.316  16.457  0.6391 -0.2304  1.3185
13650TIP3    H262366   2.779   5.173  16.435 -0.5215  0.5918 -2.3390
13651TIP3   OH262367   0.459   0.345  14.136 -0.9678  0.0543 -0.5513
13651TIP3    H162368   0.383   0.313  14.184 -1.5020  2.7156  0.5857
13651TIP3    H262369   0.459   0.439  14.152  1.8506  0.3285 -1.5861
13652TIP3   OH262370   3.795   2.945   0.473 -0.2169  0.1506 -0.4842
13652TIP3    H162371   3.802   2.941   0.568 -1.2952  2.1599 -0.2654
13652TIP3    H262372   3.790   2.854   0.445  1.5493 -0.5291  1.2370
13653TIP3   OH262373   1.442   5.531  12.797 -0.7265  0.0371  0.7769
13653TIP3    H162374   1.476   5.455  12.749 -0.3975 -0.2391  1.4284
13653TIP3    H262375   1.465   5.513  12.888  0.9246  1.7694  0.7399
13654TIP3   OH262376   0.196   2.891  16.234 -0.1610 -0.3437 -0.2364
13654TIP3    H162377   0.110   2.925  16.209  0.0277  0.1285 -0.2515
13654TIP3    H262378   0.253   2.968  16.236 -0.2234 -0.2921  1.9228
13655TIP3   OH262379   1.703   6.583   0.481 -0.1807  0.4448  0.1700
13655TIP3    H162380   1.696   6.659   0.539 -0.2338  0.9338 -0.4651
13655TIP3    H262381   1.620   6.582   0.433  0.4152  0.8961 -0.9135
13656TIP3   OH262382   2.921   2.114  13.829 -0.3399  0.2977  0.4106
13656TIP3    H162383   2.938   2.181  13.763 -1.5193 -0.3203 -0.5511
13656TIP3    H262384   3.001   2.113  13.882 -0.5251  2.8990  0.8810
13657TIP3   OH262385   5.009   5.012   4.336  0.3833  0.0527  0.2219
13657TIP3    H162386   5.058   4.997   4.417 -0.0277  0.8725  0.6343
13657TIP3    H262387   5.005   5.107   4.328 -2.5104  0.0831  1.0656
13658TIP3   OH262388   6.675   2.633   1.216 -0.3027  0.2877  0.0107
13658TIP3    H162389   6.756   2.676   1.191  0.2511 -0.1334  1.0269
13658TIP3    H262390   6.702   2.549   1.252 -1.3146 -0.6015 -1.2022
13659TIP3   OH262391   1.439   0.793  14.212  0.5268 -0.3789  0.5388
13659TIP3    H162392   1.405   0.791  14.301  1.2243 -0.0680  0.8257
13659TIP3    H262393   1.523   0.839  14.220 -0.7156  2.2814 -0.7210
13660TIP3   OH262394   1.376   5.046  12.748  0.7014 -0.1065 -0.4819
13660TIP3    H162395   1.468   5.022  12.730  0.7120 -0.1877 -0.3214
13660TIP3    H262396   1.377   5.077  12.838  0.3412 -1.3661 -0.0179
13661TIP3   OH262397   5.359   2.617  13.697  0.8728  0.9289  0.0835
13661TIP3    H162398   5.396   2.641  13.782  3.2769  0.7231 -0.8317
13661TIP3    H262399   5.268   2.648  13.701  1.1439  1.6451  2.4015
13662TIP3   OH262400   2.795   0.146  16.596  0.3495  0.0596 -0.2673
13662TIP3    H162401   2.776   0.179  16.508  1.8007 -2.2284 -1.5139
13662TIP3    H262402   2.785   0.223  16.652 -3.0086  1.1036 -2.0058
13663TIP3   OH262403   3.149   2.473   5.434 -0.3003 -0.2700 -0.4923
13663TIP3    H162404   3.102   2.453   5.515 -0.3914  1.4646 -0.0741
13663TIP3    H262405   3.227   2.417   5.437 -0.6391 -0.7087  0.4695
13664TIP3   OH262406   4.564   0.816  15.850  0.1419  0.2247  0.0423
13664TIP3    H162407   4.496   0.866  15.803 -0.1827 -0.0102  0.2559
13664TIP3    H262408   4.516   0.745  15.891  0.5808 -0.1654 -0.1188
13665TIP3   OH262409   2.073   3.305  13.436  0.5786  0.1341 -0.0006
13665TIP3    H162410   2.003   3.327  13.496  0.6989 -0.1416  0.2438
13665TIP3    H262411   2.131   3.247  13.486  2.0312  1.9154  0.4674
13666TIP3   OH262412   3.575   6.835  13.486  0.5164  0.0583  0.0023
13666TIP3    H162413   3.580   6.799  13.398  2.0481 -0.1678  0.1569
13666TIP3    H262414   3.575   6.930  13.473 -2.2216  0.0926 -0.3384
13667TIP3   OH262415   6.051   3.060  15.413  0.0881 -0.2959  0.5672
13667TIP3    H162416   5.974   3.003  15.415 -0.3768  0.3368  1.5533
13667TIP3    H262417   6.065   3.084  15.505  0.9729  0.2436  0.3000
13668TIP3   OH262418   4.364   0.210  16.594  0.2362 -0.3719  0.0937
13668TIP3    H162419   4.405   0.123  16.594 -0.5300 -0.7449 -0.2447
13668TIP3    H262420   4.283   0.198  16.643  0.1037  0.1467  0.0023
13669TIP3   OH262421   6.329   1.062  15.391 -0.0545  0.9989 -0.4858
13669TIP3    H162422   6.394   1.132  15.389  0.1700  0.7916 -0.5103
13669TIP3    H262423   6.256   1.098  15.442  0.5437  0.8263  0.5213
13670TIP3   OH262424   3.883   0.500   2.507  0.2377  0.1600  0.3222
13670TIP3    H162425   3.806   0.443   2.509 -0.8227  1.4184 -1.3943
13670TIP3    H262426   3.855   0.580   2.551 -0.3350  1.5441 -2.3599
13671TIP3   OH262427   4.140   6.383   1.338  0.1334 -0.2781  0.3872
13671TIP3    H162428   4.186   6.457   1.297  0.4877 -1.0163 -0.5974
13671TIP3    H262429   4.049   6.410   1.341  0.4285  0.6723  1.1324
13672TIP3   OH262430   5.186   2.252  15.260 -0.3972  0.4370  0.6814
13672TIP3    H162431   5.161   2.345  15.261 -3.1949 -0.1737  2.8433
13672TIP3    H262432   5.257   2.246  15.323 -0.1367  1.1286  0.4643
13673TIP3   OH262433   0.087   0.475   2.447  0.2405 -0.1005 -0.3072
13673TIP3    H162434   0.110   0.470   2.539 -0.6851 -0.6405 -0.0901
13673TIP3    H262435   0.089   0.385   2.416 -0.5984 -0.0631 -0.5073
13674TIP3   OH262436   5.967   5.744   1.384  1.2200  1.3137  0.3952
13674TIP3    H162437   6.001   5.680   1.322  0.4528 -0.6965  1.9124
13674TIP3    H262438   5.894   5.785   1.339 -1.2337 -2.1769  0.7790
13675TIP3   OH262439   4.917   1.828   3.902  0.3154  0.2617  0.4121
13675TIP3    H162440   4.892   1.920   3.894 -0.0333  0.0523 -1.3325
13675TIP3    H262441   5.000   1.829   3.949  1.9035  1.7522 -2.2117
13676TIP3   OH262442   2.775   3.719   4.960 -0.1821  0.1526 -0.0203
13676TIP3    H162443   2.683   3.718   4.934 -0.4381 -1.1539  0.8235
13676TIP3    H262444   2.782   3.649   5.026  1.1165  1.1203  0.9325
13677TIP3   OH262445   4.962   4.341   2.505 -0.4754 -0.8490 -0.3137
13677TIP3    H162446   4.957   4.245   2.497 -0.0636 -0.7926 -1.2856
13677TIP3    H262447   4.903   4.374   2.438 -0.4264 -0.4148 -0.1432
13678TIP3   OH262448   4.877   4.066   2.494 -0.2760 -0.2415 -0.1148
13678TIP3    H162449   4.919   4.007   2.432  1.7525 -0.6538  1.5414
13678TIP3    H262450   4.888   4.024   2.579  0.9523  2.2959  1.0944
13679TIP3   OH262451   4.861   1.710  14.808  0.8228 -0.1901  0.2864
13679TIP3    H162452   4.910   1.643  14.856  0.0028 -1.3129 -0.3875
13679TIP3    H262453   4.888   1.697  14.716 -0.3977 -0.5479 -0.0350
13680TIP3   OH262454   5.696   1.120  11.246 -0.4551 -0.0283 -0.6254
13680TIP3    H162455   5.731   1.209  11.251  0.2309 -0.3361  0.0988
13680TIP3    H262456   5.685   1.104  11.152 -2.2164  1.4378 -0.7213
13681TIP3   OH262457   1.350   4.030   3.090  0.7069  0.3054 -0.5772
13681TIP3    H162458   1.258   4.053   3.096  0.5865 -0.2382 -0.2597
13681TIP3    H262459   1.396   4.105   3.127  0.2474 -0.6127  2.0294
13682TIP3   OH262460   6.047   2.647   9.745  0.3117  0.3292 -0.1810
13682TIP3    H162461   6.092   2.714   9.693 -2.4369  0.4291 -2.6191
13682TIP3    H262462   5.957   2.647   9.713 -1.2190 -0.7743  3.5309
13683TIP3   OH262463   5.037   2.713  11.078  0.1168 -0.9460  0.3881
13683TIP3    H162464   5.015   2.804  11.058  3.8248 -0.2541 -1.2643
13683TIP3    H262465   5.042   2.710  11.174 -1.3409  0.1851  0.5309
13684TIP3   OH262466   6.878   4.029  11.780 -0.0775  0.2527  0.2866
13684TIP3    H162467   6.880   3.984  11.864 -0.0100  0.8575  0.6112
13684TIP3    H262468   6.785   4.038  11.759 -0.2696 -3.9691 -1.9382
13685TIP3   OH262469   0.631   6.182  16.531  0.0396 -0.0963  0.1648
13685TIP3    H162470   0.612   6.254  16.471  1.3757 -0.6885 -1.0219
13685TIP3    H262471   0.637   6.105  16.474  1.8354 -0.5906  0.9833
13686TIP3   OH262472   3.818   3.204   5.736 -0.2314  0.4732  0.1749
13686TIP3    H162473   3.802   3.143   5.664  1.4376 -1.1397  1.0588
13686TIP3    H262474   3.894   3.167   5.781 -0.7950  1.7939  2.3542
13687TIP3   OH262475   1.053   5.254   2.225 -0.1755  0.4550  0.8201
13687TIP3    H162476   0.963   5.271   2.252 -0.2223 -0.0735  1.0126
13687TIP3    H262477   1.083   5.186   2.285 -0.3852 -0.9756 -0.6299
13688TIP3   OH262478   0.544   3.174  11.098  0.4842  0.3230  0.3190
13688TIP3    H162479   0.489   3.138  11.167 -2.1215 -0.5262 -2.0186
13688TIP3    H262480   0.523   3.268  11.097  0.3703  0.3007  0.5437
13689TIP3   OH262481   0.176   2.513   1.744  0.0185  0.2821 -0.0212
13689TIP3    H162482   0.182   2.579   1.814 -2.5470  1.4534 -0.7611
13689TIP3    H262483   0.250   2.531   1.687  0.9943  0.6339  1.3245
13690TIP3   OH262484   3.716   2.902  13.183 -0.3434  0.1841 -0.1771
13690TIP3    H162485   3.773   2.977  13.202 -0.9456  0.5041  0.3975
13690TIP3    H262486   3.708   2.902  13.087 -1.7980  1.9789 -0.1026
13691TIP3   OH262487   5.531   2.203   2.121 -0.2195  0.1919  0.6653
13691TIP3    H162488   5.569   2.233   2.038 -0.4928 -0.2421  0.3770
13691TIP3    H262489   5.455   2.261   2.134  0.3602  0.8644  1.0911
13692TIP3   OH262490   4.590   3.914   2.535  0.6123  0.1043  0.0421
13692TIP3    H162491   4.572   3.966   2.457 -1.3250 -0.7597 -0.1513
13692TIP3    H262492   4.609   3.978   2.603  1.6420  0.8964 -0.9539
13693TIP3   OH262493   0.781   1.568  13.919  0.7219 -0.1200 -0.1497
13693TIP3    H162494   0.795   1.504  13.849 -2.0523 -1.2658  0.2133
13693TIP3    H262495   0.708   1.621  13.888  1.3714  1.2876  0.6500
13694TIP3   OH262496   6.471   3.776  12.122  0.5156  0.1377 -0.4808
13694TIP3    H162497   6.548   3.733  12.159 -0.1455  0.2249  1.0480
13694TIP3    H262498   6.497   3.868  12.114  0.7480  0.0756 -0.4690
13695TIP3   OH262499   1.879   4.465  15.913  0.7743  0.3427  0.4778
13695TIP3    H162500   1.831   4.539  15.951 -1.5654 -0.6815 -0.2790
13695TIP3    H262501   1.905   4.411  15.988 -0.8576  0.0349  0.8489
13696TIP3   OH262502   6.645   2.047  10.965  0.4774  0.1774  0.1468
13696TIP3    H162503   6.674   1.990  11.036  0.6612  0.4510  0.2956
13696TIP3    H262504   6.660   2.136  10.998 -1.5016  0.3672  0.6307
13697TIP3   OH262505   3.970   3.175  12.693 -0.1254 -0.0628  0.0502
13697TIP3    H162506   4.043   3.236  12.677  0.1246 -0.6963 -1.3327
13697TIP3    H262507   3.995   3.129  12.773  0.9539 -0.1838 -0.3336
13698TIP3   OH262508   2.197   5.556   2.919 -0.3742  0.1726 -0.3399
13698TIP3    H162509   2.266   5.500   2.882 -1.6712 -1.7333  0.0108
13698TIP3    H262510   2.116   5.525   2.878 -1.4734 -0.0158  1.8161
13699TIP3   OH262511   3.901   5.823   3.432  0.1198  0.6652 -0.2842
13699TIP3    H162512   3.823   5.771   3.413 -0.4053  1.0086  0.8869
13699TIP3    H262513   3.884   5.908   3.392 -0.5009  1.0280  0.7351
13700TIP3   OH262514   2.662   3.882   0.240  0.8761  0.2884  0.3110
13700TIP3    H162515   2.753   3.912   0.241  0.4427  1.7062  1.1652
13700TIP3    H262516   2.667   3.791   0.269  2.3344 -0.9133 -3.1804
13701TIP3   OH262517   4.631   3.133  14.775  0.0330 -0.4283  0.0327
13701TIP3    H162518   4.556   3.169  14.821 -1.1682 -1.5221 -0.9828
13701TIP3    H262519   4.699   3.200  14.782 -1.4684  1.1524 -0.1303
13702TIP3   OH262520   2.906   2.856   3.716  0.5521 -0.1534 -0.1946
13702TIP3    H162521   2.825   2.896   3.749  0.7468  0.2693 -0.2251
13702TIP3    H262522   2.933   2.797   3.786 -0.2002 -0.8930 -0.5069
13703TIP3   OH262523   0.896   1.181  15.988  0.8060  0.0568 -0.0944
13703TIP3    H162524   0.802   1.159  15.986  0.6842  0.5224  0.3743
13703TIP3    H262525   0.901   1.260  16.041  1.2418  1.2300 -1.8052
13704TIP3   OH262526   0.151   4.010  16.215  0.3525  0.1096 -0.8203
13704TIP3    H162527   0.097   4.089  16.209 -0.9217 -0.6871 -0.0044
13704TIP3    H262528   0.107   3.946  16.160  0.2399 -0.6677  0.1591
13705TIP3   OH262529   0.295   2.426   5.308 -0.5741  0.0469 -0.1198
13705TIP3    H162530   0.371   2.429   5.250 -0.5629 -0.4824 -0.1432
13705TIP3    H262531   0.221   2.445   5.250 -0.3604  1.9233  0.1540
13706TIP3   OH262532   4.876   0.841  14.920  0.2579  0.4148 -0.3022
13706TIP3    H162533   4.945   0.808  14.978  0.4361  1.0538 -0.1394
13706TIP3    H262534   4.848   0.764  14.870  1.8864  0.3588 -1.1945
13707TIP3   OH262535   0.775   1.036  15.524  0.0788  0.4054  0.9335
13707TIP3    H162536   0.839   0.967  15.541  0.2912  0.3716  0.0629
13707TIP3    H262537   0.744   1.018  15.435 -2.2778 -0.4787  1.8531
13708TIP3   OH262538   5.006   3.335  15.249 -0.2922 -0.7960 -0.2257
13708TIP3    H162539   4.959   3.304  15.171 -1.6992 -2.2356  1.1233
13708TIP3    H262540   5.061   3.261  15.274 -0.7405 -0.7891  0.8114
13709TIP3   OH262541   1.871   1.251   4.946  0.8077 -0.0124  1.3695
13709TIP3    H162542   1.953   1.203   4.938  0.1908 -1.0441  0.8551
13709TIP3    H262543   1.821   1.202   5.012  0.2931  0.1080  1.0775
13710TIP3   OH262544   2.648   4.544  14.674  0.7467 -0.0575 -0.0293
13710TIP3    H162545   2.553   4.545  14.686  0.5484 -3.3010 -0.3384
13710TIP3    H262546   2.660   4.545  14.579  1.3066  3.9090 -0.0625
13711TIP3   OH262547   3.884   0.654  13.099 -0.5467 -0.4557 -0.2586
13711TIP3    H162548   3.964   0.682  13.143 -2.1460  0.5610  2.2377
13711TIP3    H262549   3.835   0.735  13.083 -1.7883 -1.1598 -0.2084
13712TIP3   OH262550   4.544   5.328   5.317  0.1906  0.1066  0.2299
13712TIP3    H162551   4.580   5.309   5.403 -2.8514 -0.5291  1.4673
13712TIP3    H262552   4.470   5.387   5.334 -1.5584 -1.3800 -1.7206
13713TIP3   OH262553   0.257   6.819   3.359 -0.3267 -0.2985  0.6937
13713TIP3    H162554   0.260   6.819   3.454  0.4433  0.2331  0.6830
13713TIP3    H262555   0.172   6.857   3.337  0.8262  2.9064  1.1936
13714TIP3   OH262556   1.787   0.498   5.121  0.1031 -0.4075 -0.0047
13714TIP3    H162557   1.805   0.552   5.043 -1.1339  0.0373 -0.0088
13714TIP3    H262558   1.867   0.503   5.172 -0.2427  2.2770  0.4611
13715TIP3   OH262559   0.111   4.709  12.664 -0.6619 -0.1499  0.0629
13715TIP3    H162560   0.084   4.619  12.643  0.8630 -0.8301  0.8899
13715TIP3    H262561   0.073   4.725  12.751  0.4304 -0.6188  0.6409
13716TIP3   OH262562   4.272   0.412  12.417 -0.4145 -0.0728 -0.0562
13716TIP3    H162563   4.250   0.319  12.409  1.8370 -0.6140 -0.5761
13716TIP3    H262564   4.263   0.430  12.510 -4.9291  0.3735 -0.3838
13717TIP3   OH262565   3.857   2.933   0.737  0.0311  0.0547 -0.2754
13717TIP3    H162566   3.791   2.900   0.797 -0.3050  0.1010 -0.6172
13717TIP3    H262567   3.928   2.867   0.740 -0.5959 -0.6736 -0.8907
13718TIP3   OH262568   4.927   0.832  13.798 -0.5644  0.5531 -0.2454
13718TIP3    H162569   4.973   0.896  13.853 -0.2829  0.1613 -0.0267
13718TIP3    H262570   4.857   0.799  13.853  1.7295 -2.3809  1.1792
13719TIP3   OH262571   4.257   4.779  14.878  0.5423 -0.2934 -0.3216
13719TIP3    H162572   4.170   4.769  14.841 -0.3490  0.3053  1.5068
13719TIP3    H262573   4.257   4.723  14.956  1.6747 -0.0208 -0.0997
13720TIP3   OH262574   3.656   6.714   2.606 -0.4901  0.4350  0.5330
13720TIP3    H162575   3.750   6.694   2.616 -0.5441 -0.1197  0.0447
13720TIP3    H262576   3.615   6.628   2.597 -0.6936  0.7034 -2.0988
13721TIP3   OH262577   3.027   5.170  14.879 -0.0976 -0.3976  0.1364
13721TIP3    H162578   3.110   5.156  14.835  0.3451 -0.7439  1.0664
13721TIP3    H262579   3.018   5.266  14.884 -0.4991 -0.3356 -1.3076
13722TIP3   OH262580   5.075   4.573  11.330 -0.0223  0.5283 -0.3689
13722TIP3    H162581   5.098   4.579  11.237 -1.8647 -0.2026 -0.9114
13722TIP3    H262582   5.040   4.659  11.352  0.5721  0.7562 -0.2836
13723TIP3   OH262583   4.295   3.990  14.499 -0.1511  0.3097 -0.4647
13723TIP3    H162584   4.348   3.917  14.467  1.5160  1.6501 -0.9136
13723TIP3    H262585   4.339   4.068  14.465 -2.7663  1.5011 -1.3244
13724TIP3   OH262586   2.203   0.303   1.055 -0.6831  0.7997  0.0070
13724TIP3    H162587   2.162   0.329   0.973 -1.1742  0.2760  0.0729
13724TIP3    H262588   2.183   0.210   1.063  3.5474 -0.4372 -1.7035
13725TIP3   OH262589   0.144   2.379   0.327 -0.2515  0.6731  0.1201
13725TIP3    H162590   0.208   2.377   0.255 -1.1614  0.2378 -0.7062
13725TIP3    H262591   0.186   2.331   0.398  1.0121  1.8406  0.1902
13726TIP3   OH262592   3.119   2.987  15.474  0.2815  0.0390 -0.1788
13726TIP3    H162593   3.182   2.917  15.492  0.4506 -0.0199 -0.9673
13726TIP3    H262594   3.087   3.013  15.561 -1.9207 -2.9157  0.0249
13727TIP3   OH262595   2.120   2.208   2.755  0.7567  0.8392 -0.0518
13727TIP3    H162596   2.196   2.154   2.733 -0.6093 -0.5926 -1.4758
13727TIP3    H262597   2.066   2.152   2.811 -0.1473  1.1275 -0.6147
13728TIP3   OH262598   2.341   3.671   2.242 -0.0815 -0.1259 -0.0400
13728TIP3    H162599   2.256   3.631   2.226 -0.3274  0.3823 -0.0466
13728TIP3    H262600   2.328   3.763   2.220  0.4645 -0.0412 -0.0173
13729TIP3   OH262601   1.116   2.657   4.988 -0.1607 -0.2610 -1.1182
13729TIP3    H162602   1.070   2.720   5.044 -0.1446 -0.1524 -1.2261
13729TIP3    H262603   1.050   2.590   4.968 -0.7122  0.6095 -2.4179
13730TIP3   OH262604   5.861   2.449  12.087  0.6712  0.2282  0.8984
13730TIP3    H162605   5.920   2.461  12.162  1.0808  0.3063  0.5681
13730TIP3    H262606   5.793   2.389  12.119  0.5961  0.6098  1.4678
13731TIP3   OH262607   3.010   5.612  16.534 -0.1661 -0.0664  0.2913
13731TIP3    H162608   3.076   5.602  16.466  0.2388  3.2737 -0.0112
13731TIP3    H262609   2.928   5.627  16.486  0.2488  3.0752  0.3208
13732TIP3   OH262610   2.278   1.113  11.874  0.4910 -0.4125 -0.2489
13732TIP3    H162611   2.217   1.050  11.836 -0.7603 -0.0882  1.1340
13732TIP3    H262612   2.249   1.123  11.964  2.8707 -0.5612  0.6051
13733TIP3   OH262613   1.524   4.270  15.808  0.1849 -0.1454  0.3411
13733TIP3    H162614   1.546   4.265  15.901  1.3004  0.1706  0.1091
13733TIP3    H262615   1.532   4.363  15.787 -1.1468 -0.0564  0.1711
13734TIP3   OH262616   4.956   5.485   3.137 -0.0344 -0.4641 -0.4649
13734TIP3    H162617   4.882   5.443   3.179 -1.0906  2.0612  0.3384
13734TIP3    H262618   4.995   5.540   3.205  2.2888 -1.3058 -1.0187
13735TIP3   OH262619   2.449   5.965  12.163  0.1433  0.1140 -0.3077
13735TIP3    H162620   2.483   5.921  12.085 -1.2978 -2.3543  0.3542
13735TIP3    H262621   2.365   6.002  12.135  0.0236 -0.0332 -0.1444
13736TIP3   OH262622   5.189   0.635  14.587 -0.1481  0.3846 -0.2824
13736TIP3    H162623   5.115   0.675  14.541 -0.7249 -0.5597 -0.2070
13736TIP3    H262624   5.192   0.679  14.672 -0.8899  0.1475 -0.1268
13737TIP3   OH262625   2.165   5.189   2.514 -0.6683 -0.3244  0.1776
13737TIP3    H162626   2.240   5.170   2.570 -0.4532  0.9441  0.3550
13737TIP3    H262627   2.175   5.282   2.491 -2.3484 -0.0177  0.5054
13738TIP3   OH262628   5.785   3.341   0.588 -0.6332  0.2733  0.3560
13738TIP3    H162629   5.774   3.425   0.631 -1.9478  0.0006  0.5886
13738TIP3    H262630   5.725   3.343   0.514  2.0537  0.9946 -1.9947
13739TIP3   OH262631   3.788   2.230   2.727  0.1136  0.3622  1.2978
13739TIP3    H162632   3.854   2.167   2.756 -0.0918  0.7039  2.5409
13739TIP3    H262633   3.724   2.176   2.679  0.7737 -0.1185  0.9417
13740TIP3   OH262634   5.989   0.295  14.509  0.0014  0.0839  0.7067
13740TIP3    H162635   5.917   0.357  14.525  0.9981  1.5253 -0.0916
13740TIP3    H262636   5.958   0.241  14.437 -1.0546 -0.6776  1.6861
13741TIP3   OH262637   6.264   2.949   1.610  0.2764  0.1718  0.7028
13741TIP3    H162638   6.178   2.916   1.584 -0.3827  0.3715  2.4657
13741TIP3    H262639   6.309   2.967   1.528 -1.3161 -0.0826 -0.2622
13742TIP3   OH262640   4.227   1.450   3.203 -0.1024  0.2219  0.4486
13742TIP3    H162641   4.261   1.524   3.152  0.5229  1.0414  2.0028
13742TIP3    H262642   4.153   1.487   3.252  0.2727 -0.1375  1.3059
13743TIP3   OH262643   3.977   0.229   4.896 -0.0989 -0.1626 -0.1393
13743TIP3    H162644   3.964   0.176   4.975 -0.2126  1.3830  0.9245
13743TIP3    H262645   3.945   0.174   4.825 -2.4069 -0.6520  1.1765
13744TIP3   OH262646   1.539   6.541   5.493 -0.4584 -0.0042  0.1615
13744TIP3    H162647   1.487   6.585   5.426 -2.2486 -0.9452  0.8467
13744TIP3    H262648   1.561   6.610   5.555  0.0297  0.6075 -0.6773
13745TIP3   OH262649   6.590   1.974  15.960  0.1817  0.0795  0.2938
13745TIP3    H162650   6.577   2.068  15.974  0.7443  0.2535 -0.2903
13745TIP3    H262651   6.512   1.933  15.998 -0.6308  0.8595 -0.4824
13746TIP3   OH262652   2.538   2.826  14.831  0.8126  0.2272  0.3272
13746TIP3    H162653   2.591   2.749  14.812  2.1863  1.2548 -0.1982
13746TIP3    H262654   2.542   2.835  14.927 -2.4849 -2.4336  0.9079
13747TIP3   OH262655   0.065   1.953  12.912  0.4676 -0.0253  0.7642
13747TIP3    H162656   0.043   1.860  12.917  1.1022 -0.1776  0.7142
13747TIP3    H262657   0.079   1.979  13.003  1.4447 -0.2583  0.6841
13748TIP3   OH262658   6.853   1.579  15.044  0.6180 -0.4147  0.4358
13748TIP3    H162659   6.876   1.671  15.027 -0.1637 -0.0007  1.5150
13748TIP3    H262660   6.834   1.543  14.957 -0.7332  0.9251  0.1347
13749TIP3   OH262661   2.574   5.247   2.135  0.0076  0.4501 -0.0143
13749TIP3    H162662   2.640   5.316   2.131  1.0714 -0.5642 -0.5191
13749TIP3    H262663   2.590   5.203   2.219 -0.3713  0.5201  0.0972
13750TIP3   OH262664   1.863   4.510   4.802  0.4144 -0.8987  0.4063
13750TIP3    H162665   1.913   4.451   4.745 -0.4880 -0.1349 -1.2565
13750TIP3    H262666   1.772   4.487   4.785  0.1313 -1.0869  2.0758
13751TIP3   OH262667   0.671   0.078  15.361 -0.5407 -0.1598  0.3451
13751TIP3    H162668   0.727   0.140  15.314 -1.6246  1.2647  0.8855
13751TIP3    H262669   0.628   0.028  15.291 -0.4129  0.3666 -0.1202
13752TIP3   OH262670   0.784   0.926   5.499 -0.7779 -0.2851  0.2992
13752TIP3    H162671   0.694   0.897   5.484 -0.7850 -1.0563  1.7035
13752TIP3    H262672   0.827   0.851   5.540  0.1415  0.5391  0.8759
13753TIP3   OH262673   2.523   6.230   0.730  0.1947 -1.0364  0.1998
13753TIP3    H162674   2.444   6.229   0.784  0.8200 -0.2832  1.1496
13753TIP3    H262675   2.594   6.209   0.791  0.6597 -2.4851 -0.7854
13754TIP3   OH262676   5.501   2.989   1.946  0.3582  0.2365  0.7322
13754TIP3    H162677   5.519   2.899   1.921  1.6083  0.2510  1.4723
13754TIP3    H262678   5.412   2.988   1.981  0.5300 -0.8006  1.1605
13755TIP3   OH262679   3.599   6.333   5.268 -0.3292  0.0920 -0.1427
13755TIP3    H162680   3.607   6.394   5.341  2.1714 -0.0075 -0.2399
13755TIP3    H262681   3.674   6.354   5.212 -1.7199 -0.3864 -2.2738
13756TIP3   OH262682   3.988   4.490   2.994  0.2791  0.5900  0.0165
13756TIP3    H162683   4.014   4.458   3.080  0.3288 -0.6726 -0.4413
13756TIP3    H262684   3.897   4.462   2.986  0.2555  0.7640 -0.3083
13757TIP3   OH262685   2.163   1.309   1.374 -0.1240  0.1655  0.1758
13757TIP3    H162686   2.149   1.225   1.331 -0.5751 -1.2253  2.8151
13757TIP3    H262687   2.200   1.365   1.306  0.9301 -2.3673 -1.4862
13758TIP3   OH262688   3.254   0.719   4.189 -0.0836  0.0905 -0.0970
13758TIP3    H162689   3.201   0.643   4.168 -1.4645  1.4209 -1.6802
13758TIP3    H262690   3.219   0.751   4.272 -0.8673  0.1838 -0.4623
13759TIP3   OH262691   6.491   3.493  10.996  0.4343 -0.4231  0.6562
13759TIP3    H162692   6.455   3.487  11.085 -0.0897  3.5591  0.9118
13759TIP3    H262693   6.416   3.477  10.939 -0.6847  2.5301  1.1260
13760TIP3   OH262694   6.296   4.365  11.330  0.1639  0.1383 -0.4032
13760TIP3    H162695   6.304   4.366  11.235 -0.5267 -0.1865 -0.4759
13760TIP3    H262696   6.282   4.457  11.354 -2.5293 -0.0499 -0.9222
13761TIP3   OH262697   1.767   2.691  11.525 -0.5038 -0.0525  0.6292
13761TIP3    H162698   1.690   2.662  11.574  0.0369 -1.2462  0.8043
13761TIP3    H262699   1.751   2.660  11.435 -1.1186  1.4231  0.2012
13762TIP3   OH262700   6.504   6.824  14.803  0.5628 -0.0717  0.3959
13762TIP3    H162701   6.544   6.894  14.854 -0.0775  0.8258 -0.2841
13762TIP3    H262702   6.564   6.750  14.811  1.1976  0.5189  1.2218
13763TIP3   OH262703   3.572   4.284   1.545  1.0504  0.3326  0.3827
13763TIP3    H162704   3.599   4.368   1.582 -1.4680  1.1602  0.5462
13763TIP3    H262705   3.651   4.249   1.504  2.5595  1.9999  1.7174
13764TIP3   OH262706   2.982   4.321   4.209  0.1171  0.4042 -0.2169
13764TIP3    H162707   2.988   4.405   4.254  0.9881 -0.3440  1.1253
13764TIP3    H262708   3.069   4.283   4.217 -1.0040 -1.9703  1.9163
13765TIP3   OH262709   5.534   3.207   4.201  0.0382  0.3855 -0.4040
13765TIP3    H162710   5.451   3.253   4.217  0.9190  1.5419  1.0823
13765TIP3    H262711   5.549   3.216   4.107 -0.6273  1.7399 -0.3943
13766TIP3   OH262712   0.602   5.847   1.786  0.0270 -0.4889 -0.7965
13766TIP3    H162713   0.522   5.896   1.770  0.6220  0.3499 -1.2963
13766TIP3    H262714   0.620   5.801   1.704  0.4098 -0.1373 -0.9162
13767TIP3   OH262715   4.940   4.671  16.178  0.2345  0.1377 -0.0744
13767TIP3    H162716   4.982   4.743  16.225 -1.2732  0.3975  0.9645
13767TIP3    H262717   4.849   4.672  16.210 -0.2753 -1.0807 -1.3999
13768TIP3   OH262718   2.676   5.660   1.236 -0.0207  0.0436  0.4265
13768TIP3    H162719   2.750   5.676   1.177 -1.2141  1.8624 -0.6769
13768TIP3    H262720   2.607   5.627   1.178 -0.7524  0.4766  1.0421
13769TIP3   OH262721   3.833   6.113   5.458 -0.2554  0.1426 -0.0544
13769TIP3    H162722   3.911   6.164   5.479  0.7077 -0.4650 -1.9059
13769TIP3    H262723   3.785   6.108   5.541  1.8465  0.2236  1.2672
13770TIP3   OH262724   4.029   4.761  15.191  0.1968  0.4202  0.5295
13770TIP3    H162725   3.969   4.835  15.180 -1.3228 -0.8798 -0.4614
13770TIP3    H262726   4.043   4.755  15.285 -0.8697  1.0739  0.7449
13771TIP3   OH262727   4.185   5.227   3.008  0.4637  0.3274 -0.6093
13771TIP3    H162728   4.254   5.290   3.027  0.5197  0.5710 -1.5718
13771TIP3    H262729   4.209   5.188   2.924 -0.5019  0.3261 -0.9059
13772TIP3   OH262730   1.040   2.113   2.539 -0.4094 -0.2127 -0.1802
13772TIP3    H162731   0.945   2.109   2.529 -0.6311  0.1201  1.5961
13772TIP3    H262732   1.068   2.022   2.530 -0.8492 -0.2892 -0.9134
13773TIP3   OH262733   6.009   2.957  11.012  0.0070  0.6481  0.6503
13773TIP3    H162734   5.957   3.037  11.003 -0.4897  0.4752  1.8351
13773TIP3    H262735   6.092   2.977  10.969 -1.0639  0.8804 -1.4698
13774TIP3   OH262736   6.263   1.740  10.480 -0.4117  0.2228  0.7242
13774TIP3    H162737   6.342   1.710  10.435 -1.1444  0.5386 -0.8223
13774TIP3    H262738   6.292   1.759  10.569  1.2412  0.2639  0.2042
13775TIP3   OH262739   4.136   0.615  11.058  0.0226 -0.0763  0.2524
13775TIP3    H162740   4.073   0.547  11.035 -1.5787  0.7926  1.7858
13775TIP3    H262741   4.220   0.581  11.028 -0.6066 -2.9732  1.4389
13776TIP3   OH262742   5.351   6.658  10.808 -0.1890  0.6204 -0.7300
13776TIP3    H162743   5.296   6.693  10.738  0.0714 -2.1546 -2.5014
13776TIP3    H262744   5.334   6.715  10.883 -3.7203  1.2676 -1.8254
13777TIP3   OH262745   1.363   3.746   2.770 -0.1544 -0.0844 -0.0856
13777TIP3    H162746   1.315   3.723   2.849  0.1864 -0.0500  0.1355
13777TIP3    H262747   1.306   3.808   2.724 -0.3838 -0.1579  0.0977
13778TIP3   OH262748   5.345   5.803   3.627  0.2444  0.4088  0.5119
13778TIP3    H162749   5.317   5.866   3.694 -0.2085  2.4854 -1.5215
13778TIP3    H262750   5.303   5.832   3.547  0.2812 -2.3623 -0.6368
13779TIP3   OH262751   6.431   5.226   2.043  0.1587  0.2760 -0.4580
13779TIP3    H162752   6.423   5.142   2.088 -0.4632 -0.4748 -1.9102
13779TIP3    H262753   6.525   5.245   2.043  0.0952  0.8535  2.0648
13780TIP3   OH262754   0.690   3.760   1.122  0.9304  0.0442 -0.2996
13780TIP3    H162755   0.673   3.687   1.181 -2.9777  1.0765  0.1214
13780TIP3    H262756   0.659   3.729   1.037  0.7108  0.6843 -0.4538
13781TIP3   OH262757   3.640   0.764   3.362 -0.4405 -0.3732  0.0420
13781TIP3    H162758   3.713   0.712   3.328  0.2742  0.2077  0.6570
13781TIP3    H262759   3.654   0.766   3.456 -1.3879 -0.4414  0.1925
13782TIP3   OH262760   1.122   5.307   4.505  0.2197 -0.1906  0.1154
13782TIP3    H162761   1.048   5.284   4.561  0.6603  1.8933  1.7098
13782TIP3    H262762   1.131   5.233   4.445 -1.1762 -1.9067  1.8840
13783TIP3   OH262763   3.387   3.179  11.365  0.1175 -0.1938 -1.0088
13783TIP3    H162764   3.341   3.095  11.366 -0.1046 -0.0697 -0.8259
13783TIP3    H262765   3.407   3.196  11.457 -1.2800  0.7475 -0.8629
13784TIP3   OH262766   6.346   5.399  12.323  0.6538  0.7907 -0.2587
13784TIP3    H162767   6.363   5.482  12.367  0.0406  1.3629 -1.0866
13784TIP3    H262768   6.399   5.335  12.372 -1.9552  0.8672  3.0320
13785TIP3   OH262769   4.545   5.487   4.225  0.0784  0.4591  0.3322
13785TIP3    H162770   4.490   5.416   4.256  0.1757 -0.7079 -1.9298
13785TIP3    H262771   4.572   5.460   4.137  1.4079  2.5918 -0.0033
13786TIP3   OH262772   6.116   3.089  13.998  0.1178 -0.1955  0.2018
13786TIP3    H162773   6.075   3.003  14.005  0.4426 -0.2774  1.3051
13786TIP3    H262774   6.210   3.070  13.993  0.1980  0.0831  0.5507
13787TIP3   OH262775   6.666   6.842   2.933  0.5409 -0.3936 -0.0710
13787TIP3    H162776   6.616   6.774   2.977  0.3483  1.1391  2.2217
13787TIP3    H262777   6.758   6.818   2.948  0.4761 -0.2638  0.5466
13788TIP3   OH262778   5.725   3.794   6.336 -0.2669  0.4707 -0.3839
13788TIP3    H162779   5.761   3.721   6.387 -1.1519  0.8781  0.8885
13788TIP3    H262780   5.652   3.755   6.288 -0.6057  0.4684  0.1283
13789TIP3   OH262781   1.321   6.392  13.947 -0.3436  0.0737 -0.4747
13789TIP3    H162782   1.358   6.480  13.953  2.1925 -1.0098  1.5692
13789TIP3    H262783   1.396   6.336  13.927 -0.9277 -2.1275  2.8220
13790TIP3   OH262784   3.327   0.033  14.691 -0.2847  0.4947  0.1976
13790TIP3    H162785   3.415   0.026  14.728 -1.2620  0.8043  2.7214
13790TIP3    H262786   3.303   0.124  14.702 -0.8115  0.4997 -0.8365
13791TIP3   OH262787   1.929   4.921  14.736 -0.4928  0.3114  0.0869
13791TIP3    H162788   1.881   4.873  14.805  1.5168  0.2376  1.5104
13791TIP3    H262789   1.909   5.013  14.753 -0.2858  0.2722  0.5513
13792TIP3   OH262790   4.357   5.650  10.946 -0.0330 -0.5169  0.4611
13792TIP3    H162791   4.417   5.621  10.877 -0.5866  1.0868 -0.7781
13792TIP3    H262792   4.310   5.571  10.972  0.8667 -1.3362 -0.3199
13793TIP3   OH262793   1.847   4.926   5.068  0.1655  0.0118  0.2882
13793TIP3    H162794   1.802   4.870   5.131  1.5300 -0.7587  0.6269
13793TIP3    H262795   1.819   4.894   4.983  2.3990 -2.6312  0.3875
13794TIP3   OH262796   6.168   2.007  10.440  0.5098 -0.1501 -0.3522
13794TIP3    H162797   6.238   1.944  10.455  1.0222  0.0452 -1.8101
13794TIP3    H262798   6.157   2.051  10.525  1.6277 -0.6890  0.0963
13795TIP3   OH262799   5.841   3.401  13.557  0.3716 -0.2554 -0.1955
13795TIP3    H162800   5.933   3.391  13.581  0.3058  0.3931  0.3598
13795TIP3    H262801   5.840   3.473  13.493  0.2005  0.0934  0.1919
13796TIP3   OH262802   5.325   0.033   3.764  0.1164 -0.2969  0.0448
13796TIP3    H162803   5.260  -0.036   3.750 -0.1516  0.2154 -1.4721
13796TIP3    H262804   5.397  -0.010   3.810 -0.9645 -1.0479  1.0727
13797TIP3   OH262805   5.803   0.865  16.635  0.4563 -0.1559 -0.2581
13797TIP3    H162806   5.782   0.862  16.728 -0.6514  0.5300 -0.4590
13797TIP3    H262807   5.769   0.950  16.606 -1.0559 -1.1979 -1.6957
13798TIP3   OH262808   4.036   0.002  14.968 -0.5681 -0.4700  0.0524
13798TIP3    H162809   4.130   0.022  14.968 -0.2306 -1.9552  0.3473
13798TIP3    H262810   3.994   0.087  14.957  0.8372  0.0728 -1.5631
13799TIP3   OH262811   3.484   3.553   1.816  0.2266  0.0265  1.3497
13799TIP3    H162812   3.488   3.643   1.848  3.4637  0.3784  0.3046
13799TIP3    H262813   3.503   3.499   1.894 -1.8488  0.1669  2.0040
13800TIP3   OH262814   6.239   0.703   4.670 -0.2187 -0.0370  0.0411
13800TIP3    H162815   6.184   0.628   4.650  0.8401 -0.6035 -0.8807
13800TIP3    H262816   6.238   0.756   4.590  2.2102 -1.1413 -0.8121
13801TIP3   OH262817   6.263   5.528  11.495  0.1708  0.4830  0.3150
13801TIP3    H162818   6.305   5.464  11.553 -1.5527  0.5767  1.7559
13801TIP3    H262819   6.256   5.607  11.549 -0.1488  1.0444 -0.5362
13802TIP3   OH262820   5.710   5.453  15.809  0.4769 -0.2159  0.0747
13802TIP3    H162821   5.781   5.515  15.830  0.5037  0.4674 -1.8351
13802TIP3    H262822   5.640   5.508  15.775  0.4641 -1.2075 -1.5865
13803TIP3   OH262823   1.721   2.951  11.084  0.2631  0.3228 -0.0524
13803TIP3    H162824   1.633   2.988  11.086 -0.7387 -1.9319  0.5225
13803TIP3    H262825   1.712   2.869  11.034  1.5790 -0.9472  1.6682
13804TIP3   OH262826   2.907   6.039  16.077 -0.2052  0.2366 -0.7616
13804TIP3    H162827   2.968   6.031  16.150 -1.3525 -0.3724  0.1477
13804TIP3    H262828   2.937   5.973  16.014  0.0810 -0.0490 -0.3302
13805TIP3   OH262829   6.496   0.737  15.169 -0.1653  0.5666 -0.8614
13805TIP3    H162830   6.417   0.770  15.212  0.2472 -1.3540  1.5845
13805TIP3    H262831   6.462   0.682  15.097 -1.1904 -1.0850  0.7943
13806TIP3   OH262832   5.171   3.797   1.480 -0.0341 -0.3085  0.6072
13806TIP3    H162833   5.205   3.879   1.515  0.0640  0.1579 -0.5414
13806TIP3    H262834   5.113   3.824   1.409 -0.2972 -1.2270  0.4610
13807TIP3   OH262835   4.915   3.852  13.518 -0.0193  0.9073  0.1136
13807TIP3    H162836   4.860   3.822  13.590 -2.5032 -0.3586 -2.1111
13807TIP3    H262837   4.998   3.877  13.559 -1.0584 -0.3539  3.2683
13808TIP3   OH262838   4.925   6.482  16.326 -0.0510  0.5798  0.9076
13808TIP3    H162839   5.018   6.507  16.321 -0.0360  0.5088  0.8259
13808TIP3    H262840   4.902   6.461  16.235  0.1687 -0.5500  1.1052
13809TIP3   OH262841   6.065   6.713   5.366  0.6536  0.5205  0.9392
13809TIP3    H162842   6.100   6.634   5.407 -1.4189 -1.3272 -0.6249
13809TIP3    H262843   6.005   6.749   5.431 -3.7020 -3.1587 -0.4614
13810TIP3   OH262844   6.822   6.251   1.712 -0.0538 -0.4855 -0.5987
13810TIP3    H162845   6.787   6.340   1.718 -0.4345 -0.6320 -0.5766
13810TIP3    H262846   6.826   6.234   1.618 -1.6460 -1.0738 -0.5883
13811TIP3   OH262847   1.405   0.045  14.805 -0.4158 -0.0450  0.3141
13811TIP3    H162848   1.499   0.028  14.797 -0.4121 -0.0402  0.3456
13811TIP3    H262849   1.376   0.063  14.715 -0.4128 -0.1821  0.2850
13812TIP3   OH262850   0.788   0.404   2.203  0.0573 -0.0979  0.2144
13812TIP3    H162851   0.804   0.408   2.109  0.7060 -0.0376  0.3236
13812TIP3    H262852   0.695   0.423   2.212 -0.0296 -0.1994 -0.4224
13813TIP3   OH262853   3.263   1.625  10.725 -0.6312 -0.1646 -0.4388
13813TIP3    H162854   3.349   1.652  10.692 -0.5084 -0.0172 -0.0049
13813TIP3    H262855   3.204   1.642  10.652 -0.0096 -2.1226 -1.4600
13814TIP3   OH262856   3.714   1.669   3.776 -0.4037 -0.6247 -0.0338
13814TIP3    H162857   3.748   1.743   3.827  0.5757 -1.7823  1.0490
13814TIP3    H262858   3.707   1.703   3.687  0.7613  0.5440  0.2860
13815TIP3   OH262859   1.539   5.536   3.011 -0.2412  0.0274 -0.4447
13815TIP3    H162860   1.446   5.535   3.036 -0.0039 -0.4478  0.4739
13815TIP3    H262861   1.550   5.458   2.957 -0.7864  1.1245 -2.1942
13816TIP3   OH262862   5.269   6.450   0.880 -0.6646  0.2347  0.7370
13816TIP3    H162863   5.258   6.391   0.954 -3.1026  0.8873  0.9606
13816TIP3    H262864   5.197   6.512   0.887 -0.9915  0.3236 -2.1842
13817TIP3   OH262865   6.196   5.217   2.605  0.1284 -0.5199  0.3834
13817TIP3    H162866   6.166   5.280   2.539  2.6958 -0.4672 -0.8446
13817TIP3    H262867   6.171   5.257   2.689 -0.1183  1.1487 -0.4344
13818TIP3   OH262868   2.587   5.985   2.750  0.2492 -0.2135 -0.1564
13818TIP3    H162869   2.557   5.894   2.750 -1.0593  0.1454  1.8256
13818TIP3    H262870   2.621   5.999   2.838  0.0115  1.3401 -0.2771
13819TIP3   OH262871   1.645   1.439   5.461  0.2161 -0.6351  0.5592
13819TIP3    H162872   1.606   1.512   5.413 -0.6872 -1.1135  0.5427
13819TIP3    H262873   1.740   1.451   5.452  0.0624 -0.0570 -0.3276
13820TIP3   OH262874   2.655   0.548  13.745  0.0328 -0.1237 -0.2282
13820TIP3    H162875   2.577   0.534  13.690  1.1499 -2.6452 -1.3217
13820TIP3    H262876   2.637   0.497  13.824  1.0373 -1.8510 -1.0498
13821TIP3   OH262877   5.495   3.959  16.246  0.1687 -0.0874 -0.4705
13821TIP3    H162878   5.462   3.870  16.257  1.4835 -0.5931 -0.4654
13821TIP3    H262879   5.427   4.015  16.286  0.0362 -1.1803  0.9084
13822TIP3   OH262880   1.445   4.915   5.140  0.0041 -0.1419  0.1399
13822TIP3    H162881   1.515   4.853   5.156  0.9267  0.9846  0.6508
13822TIP3    H262882   1.388   4.872   5.076  1.4528 -0.8727 -0.7083
13823TIP3   OH262883   2.455   2.928  11.451  0.7814 -0.1051 -0.0316
13823TIP3    H162884   2.544   2.957  11.431  0.7090 -0.8601 -1.6406
13823TIP3    H262885   2.421   2.897  11.367 -1.1542  0.5374  0.4542
13824TIP3   OH262886   3.778   4.929  11.427  0.4196  0.1741 -0.3029
13824TIP3    H162887   3.854   4.927  11.369  1.5512 -0.8922  1.1617
13824TIP3    H262888   3.763   4.837  11.451  0.4402  0.6392  1.6402
13825TIP3   OH262889   4.508   4.218   3.368 -0.1821  0.8043 -0.2726
13825TIP3    H162890   4.540   4.286   3.308  0.7360 -0.1526 -0.9199
13825TIP3    H262891   4.588   4.176   3.400 -0.7463 -0.6370 -0.6914
13826TIP3   OH262892   1.656   4.859  14.251  0.3338 -0.1450 -0.3787
13826TIP3    H162893   1.729   4.854  14.190  0.0448 -1.5694 -0.6399
13826TIP3    H262894   1.697   4.878  14.336  0.8904  0.1748 -0.7137
13827TIP3   OH262895   6.250   1.092  13.537  0.5140 -0.1656  0.1046
13827TIP3    H162896   6.326   1.064  13.485 -0.5608  0.2754 -1.8189
13827TIP3    H262897   6.236   1.183  13.511 -0.9808 -0.3993 -0.0059
13828TIP3   OH262898   0.494   2.673  14.252  0.1866 -0.2459  0.7509
13828TIP3    H162899   0.489   2.604  14.318 -0.6361 -1.0268 -0.0916
13828TIP3    H262900   0.455   2.634  14.174 -0.8609  1.3821  0.4196
13829TIP3   OH262901   0.628   2.278  10.597 -0.9371  0.1735  0.5282
13829TIP3    H162902   0.546   2.288  10.644 -0.6555  0.3039  0.9975
13829TIP3    H262903   0.602   2.268  10.505 -1.3969  2.3361  0.3721
13830TIP3   OH262904   4.597   6.106   3.665 -0.0592 -0.7525  0.1369
13830TIP3    H162905   4.616   6.166   3.738 -1.4432 -0.8102  0.5659
13830TIP3    H262906   4.502   6.107   3.657 -0.0475 -2.2536 -0.4112
13831TIP3   OH262907   4.257   0.402   0.280 -0.3550 -0.6139  0.0034
13831TIP3    H162908   4.255   0.383   0.374 -2.2764 -1.2184 -0.1011
13831TIP3    H262909   4.300   0.326   0.242 -0.0835 -0.6382  0.3517
13832TIP3   OH262910   3.262   1.425  10.409 -0.1140 -0.5870  0.6825
13832TIP3    H162911   3.266   1.341  10.456 -0.7872 -0.1243  1.5903
13832TIP3    H262912   3.176   1.461  10.431 -1.1624 -1.0755 -2.1890
13833TIP3   OH262913   5.215   3.762   3.331 -0.1430 -0.5309  0.5703
13833TIP3    H162914   5.154   3.743   3.259  0.5692  0.4616 -0.3242
13833TIP3    H262915   5.282   3.695   3.323 -0.1040 -0.4675  0.3387
13834TIP3   OH262916   2.881   5.165  15.229 -0.3057 -0.1094 -0.3336
13834TIP3    H162917   2.914   5.096  15.172 -1.3769 -0.8980 -0.0305
13834TIP3    H262918   2.938   5.162  15.306 -0.6245 -0.9746 -0.1204
13835TIP3   OH262919   0.734   3.678   0.319 -0.3560 -0.3712  0.3269
13835TIP3    H162920   0.797   3.743   0.350  0.2855 -0.7848 -0.0801
13835TIP3    H262921   0.722   3.698   0.226 -0.6675 -0.4267  0.3529
13836TIP3   OH262922   5.736   0.250  11.565 -0.4058 -0.0094  0.1352
13836TIP3    H162923   5.664   0.313  11.575 -1.2806 -0.8445 -0.7137
13836TIP3    H262924   5.730   0.221  11.474  0.6727 -0.5097  0.2068
13837TIP3   OH262925   6.327   5.312  13.669 -0.1901  0.0203 -0.3031
13837TIP3    H162926   6.334   5.293  13.575 -2.0328 -0.4086 -0.3978
13837TIP3    H262927   6.234   5.301  13.688  0.0052  1.0268  1.3889
13838TIP3   OH262928   5.972   0.076   1.902 -1.0584 -0.6611  0.4980
13838TIP3    H162929   5.932   0.162   1.916  3.0176  1.3640  1.2222
13838TIP3    H262930   5.981   0.038   1.990  0.2632 -0.1920  0.5866
13839TIP3   OH262931   5.432   5.220  10.789  0.1329 -0.4695 -0.0455
13839TIP3    H162932   5.411   5.313  10.797 -0.5023 -0.5858 -0.3261
13839TIP3    H262933   5.498   5.216  10.720  0.1200 -0.2374 -0.0722
13840TIP3   OH262934   4.355   0.647   0.853  0.0169 -0.2136 -0.0839
13840TIP3    H162935   4.435   0.697   0.869  0.0025 -0.3942  0.5609
13840TIP3    H262936   4.311   0.695   0.783  0.5136  0.0896 -0.1955
13841TIP3   OH262937   6.401   5.047   1.758  0.2774  0.0408 -0.4989
13841TIP3    H162938   6.443   5.128   1.728 -1.5513  0.9640 -0.7253
13841TIP3    H262939   6.464   5.009   1.819  1.7579  0.9283 -1.4034
13842TIP3   OH262940   3.555   6.508   3.988  0.3486  0.5179 -0.3739
13842TIP3    H162941   3.559   6.514   4.083 -0.6109 -0.8922 -0.2136
13842TIP3    H262942   3.501   6.583   3.962  1.4485  1.4936  0.0778
13843TIP3   OH262943   6.274   4.495   2.126  0.1529  0.9327 -0.2529
13843TIP3    H162944   6.201   4.435   2.115  0.2045  0.7824  0.2190
13843TIP3    H262945   6.325   4.459   2.199 -1.0910  2.7730  1.6575
13844TIP3   OH262946   6.815   3.802  12.485 -0.6301  0.0534 -0.3505
13844TIP3    H162947   6.772   3.730  12.531 -0.4167  1.6826  2.6727
13844TIP3    H262948   6.814   3.875  12.548  2.4997  1.5566 -1.7964
13845TIP3   OH262949   6.777   1.001  13.716 -0.5245  0.2665  0.1885
13845TIP3    H162950   6.797   1.013  13.623 -0.1834  2.0526  0.4553
13845TIP3    H262951   6.700   1.056  13.731  0.2826  1.1354  1.2534
13846TIP3   OH262952   6.310   6.077  13.972  0.4229 -0.3514 -0.1944
13846TIP3    H162953   6.391   6.025  13.968 -0.0073 -1.0687  0.2027
13846TIP3    H262954   6.264   6.043  14.048  0.9771  1.8964  1.2357
13847TIP3   OH262955   4.490   4.553   2.885  0.2640 -0.3402 -0.0861
13847TIP3    H162956   4.396   4.533   2.894 -0.1725  0.4438 -2.3455
13847TIP3    H262957   4.502   4.570   2.792  2.2453  1.6501  0.4538
13848TIP3   OH262958   0.398   3.538   5.953  0.1347 -0.6493 -0.6870
13848TIP3    H162959   0.441   3.496   6.027 -0.0058  1.3209  0.5967
13848TIP3    H262960   0.334   3.474   5.922 -1.4474 -0.7273  2.3941
13849TIP3   OH262961   0.787   3.424   1.415  0.4974  0.4979 -0.9367
13849TIP3    H162962   0.726   3.356   1.385 -0.3152 -0.1011  1.7724
13849TIP3    H262963   0.737   3.505   1.411 -0.1906  0.1658  0.2690
13850TIP3   OH262964   4.953   5.420   0.570 -0.6846 -0.3966  0.3906
13850TIP3    H162965   4.938   5.359   0.498 -2.2602  0.7631 -0.3297
13850TIP3    H262966   4.979   5.501   0.528 -1.9100  0.3853  1.0813
13851TIP3   OH262967   4.112   0.355  14.411  0.6311 -0.5882 -0.0551
13851TIP3    H162968   4.144   0.413  14.480  0.9896 -0.1656 -0.5688
13851TIP3    H262969   4.032   0.397  14.379  1.2963  0.0317 -0.9402
13852TIP3   OH262970   1.757   6.095   3.078  0.3667 -0.9792 -0.0653
13852TIP3    H162971   1.713   6.033   3.020 -1.3980  0.0929  0.0440
13852TIP3    H262972   1.836   6.121   3.031 -1.3871  0.4677 -2.4200
13853TIP3   OH262973   3.189   5.795  10.634  0.6025  0.2076 -0.2243
13853TIP3    H162974   3.109   5.751  10.606  1.8343 -1.0806 -1.8631
13853TIP3    H262975   3.205   5.861  10.567  0.4150  1.1409  0.6208
13854TIP3   OH262976   1.348   0.734   0.097 -0.1459  0.0371 -0.4089
13854TIP3    H162977   1.306   0.657   0.135  0.6633 -0.2589 -0.1004
13854TIP3    H262978   1.276   0.797   0.087 -0.7390 -0.6007 -0.2827
13855TIP3   OH262979   5.134   1.673   5.484  0.3358 -0.3752  0.0806
13855TIP3    H162980   5.083   1.749   5.513 -1.0688 -1.8076  1.5674
13855TIP3    H262981   5.221   1.709   5.466 -0.3842  1.6452  0.3546
13856TIP3   OH262982   0.667   5.613   2.261  0.0928  0.0697 -0.2445
13856TIP3    H162983   0.577   5.630   2.286  0.4870 -0.1508  1.4522
13856TIP3    H262984   0.714   5.693   2.285  0.0593  1.1047 -3.1658
13857TIP3   OH262985   2.861   1.281  12.405 -0.4289  0.6527 -0.2643
13857TIP3    H162986   2.784   1.251  12.455  1.0361 -0.0277  1.7023
13857TIP3    H262987   2.934   1.232  12.442  1.2377  2.5366 -0.8884
13858TIP3   OH262988   1.319   1.950   5.788  0.4613  0.1275  0.3509
13858TIP3    H162989   1.411   1.938   5.764 -0.0144  0.4580 -1.8548
13858TIP3    H262990   1.284   1.861   5.791  1.1202 -0.1050  2.5829
13859TIP3   OH262991   5.249   3.141  11.129 -0.1231 -0.2905 -0.4199
13859TIP3    H162992   5.154   3.141  11.116  0.0177 -0.0990 -1.5716
13859TIP3    H262993   5.284   3.178  11.048  0.9109  0.1575  0.2122
13860TIP3   OH262994   5.528   1.738   3.801  0.3404 -0.0385  0.3102
13860TIP3    H162995   5.591   1.665   3.794 -1.5661 -2.0311  2.3252
13860TIP3    H262996   5.474   1.730   3.722  1.4117  0.5476 -0.5134
13861TIP3   OH262997   4.742   3.898   0.167 -0.2978 -0.0432 -0.2431
13861TIP3    H162998   4.796   3.889   0.089 -1.4224 -1.6654 -0.8945
13861TIP3    H262999   4.798   3.942   0.231  0.6572  1.2540 -1.9243
13862TIP3   OH263000   4.495   5.531  11.515 -0.0708 -0.3188  0.3357
13862TIP3    H163001   4.555   5.604  11.501 -0.6988  0.3201  0.9578
13862TIP3    H263002   4.538   5.457  11.470  0.4573  0.4666 -0.4975
13863TIP3   OH263003   3.689   4.621   0.131  0.0904 -0.1298  0.5110
13863TIP3    H163004   3.598   4.597   0.148  0.4372 -2.9004 -0.9724
13863TIP3    H263005   3.741   4.559   0.181  1.1705  0.5578  0.2829
13864TIP3   OH263006   5.495   5.973   2.433  0.2444  0.3512 -0.8385
13864TIP3    H163007   5.538   6.009   2.511 -0.0651  0.7452 -0.8484
13864TIP3    H263008   5.482   6.049   2.375 -1.5127  0.4663 -0.3523
13865TIP3   OH263009   1.424   1.966  13.633 -0.0570 -0.3252 -0.0596
13865TIP3    H163010   1.460   2.045  13.672 -0.0076 -0.3811  0.0092
13865TIP3    H263011   1.481   1.896  13.664 -0.6211 -0.5045  0.5978
13866TIP3   OH263012   4.367   6.361  16.345  0.1368  0.1689  0.1199
13866TIP3    H163013   4.421   6.283  16.339 -1.3290 -0.7785 -2.3268
13866TIP3    H263014   4.304   6.342  16.416 -0.2712 -0.9435 -0.5168
13867TIP3   OH263015   3.785   3.901  10.817 -0.6035  0.2621 -0.1234
13867TIP3    H163016   3.775   3.965  10.888 -0.1277  1.5079 -1.1342
13867TIP3    H263017   3.877   3.875  10.821 -1.0899 -1.3886  1.1010
13868TIP3   OH263018   0.780   2.516   5.530  0.5485  0.7618 -0.4946
13868TIP3    H163019   0.709   2.562   5.486 -0.4104 -0.4522 -0.2708
13868TIP3    H263020   0.860   2.555   5.495 -0.2180  1.2225 -1.7686
13869TIP3   OH263021   1.938   1.967   3.182 -0.1804  0.7313  0.7585
13869TIP3    H163022   1.901   1.931   3.262 -0.8740  2.0010  1.0414
13869TIP3    H263023   2.003   1.903   3.154 -2.8534 -1.8703 -0.0152
13870TIP3   OH263024   5.973   5.064  11.455  0.7202  0.5064  0.5270
13870TIP3    H163025   5.925   5.044  11.374  1.0290  1.3039  0.1316
13870TIP3    H263026   5.921   5.024  11.524 -0.0158  0.5463  0.0091
13871TIP3   OH263027   4.693   1.612  11.444 -0.2558  0.7860 -0.0861
13871TIP3    H163028   4.682   1.531  11.494 -0.8729  2.3008  2.4238
13871TIP3    H263029   4.771   1.653  11.481 -3.2117  4.1736  3.2963
13872TIP3   OH263030   5.426   4.290  10.442 -0.0057 -0.0282  0.0181
13872TIP3    H163031   5.345   4.264  10.398 -0.2694 -1.0474  1.0372
13872TIP3    H263032   5.440   4.381  10.416 -0.5187 -0.3767 -1.5716
13873TIP3   OH263033   3.168   2.408   0.154 -0.3334  0.1561  0.1084
13873TIP3    H163034   3.195   2.422   0.245 -0.3697  0.8387  0.0198
13873TIP3    H263035   3.234   2.454   0.103  0.1733 -0.9446 -0.2608
13874TIP3   OH263036   0.827   4.677  11.289 -0.4945  0.3105 -0.4491
13874TIP3    H163037   0.861   4.754  11.336  1.2370 -1.2147  0.9617
13874TIP3    H263038   0.899   4.652  11.231  0.7484 -2.5803  2.0799
13875TIP3   OH263039   2.784   1.317   2.512 -0.1924  0.0960  0.4017
13875TIP3    H163040   2.774   1.245   2.450  0.7634 -0.1981  0.5614
13875TIP3    H263041   2.730   1.292   2.587 -1.6443  0.6245 -0.4342
13876TIP3   OH263042   0.644   2.976  15.444  0.3651  0.0040  0.6828
13876TIP3    H163043   0.583   2.908  15.417  1.9130 -1.7982  1.4750
13876TIP3    H263044   0.713   2.929  15.491  1.0622  2.2348  2.0624
13877TIP3   OH263045   6.435   2.659   2.313  0.3288 -0.0122  0.2561
13877TIP3    H163046   6.365   2.631   2.372 -1.4810  0.3857 -1.5438
13877TIP3    H263047   6.468   2.578   2.274 -0.4713 -0.1105 -0.2505
13878TIP3   OH263048   1.551   3.899   0.561  0.1195  0.4806  0.2515
13878TIP3    H163049   1.541   3.804   0.564  0.0955  0.4738 -0.0275
13878TIP3    H263050   1.592   3.916   0.477  0.6048  0.6779  0.5217
13879TIP3   OH263051   2.338   0.277   2.691  0.1027 -0.0661 -0.2812
13879TIP3    H163052   2.409   0.284   2.754  1.3277  1.3348 -1.7524
13879TIP3    H263053   2.279   0.349   2.712 -0.6763 -0.9293  0.6196
13880TIP3   OH263054   0.851   2.452  15.121 -0.2455 -0.7632 -0.0370
13880TIP3    H163055   0.891   2.478  15.038  0.8585 -0.5698  0.5372
13880TIP3    H263056   0.758   2.473  15.111  0.1937  1.1386 -0.5063
13881TIP3   OH263057   2.811   2.662  14.119 -1.0727 -0.2160 -0.1957
13881TIP3    H163058   2.837   2.570  14.108  2.1594  0.2299  2.0868
13881TIP3    H263059   2.759   2.662  14.199  0.1917  0.0564  0.6552
13882TIP3   OH263060   6.822   2.589   3.656 -0.0460  0.2542 -0.4389
13882TIP3    H163061   6.744   2.542   3.627 -1.2164  1.6478  0.3400
13882TIP3    H263062   6.860   2.624   3.575  0.0251 -0.7544 -0.8624
13883TIP3   OH263063   5.762   5.815  12.556  0.3818 -0.0210  0.5526
13883TIP3    H163064   5.790   5.770  12.477 -1.0291  0.4036 -0.2196
13883TIP3    H263065   5.705   5.752  12.600  0.2486  0.1740  0.6570
13884TIP3   OH263066   2.513   3.015  14.638 -0.1912 -0.7370 -0.4106
13884TIP3    H163067   2.547   2.958  14.706  1.8137  1.0694  0.2091
13884TIP3    H263068   2.447   3.069  14.681  0.1770 -0.4589 -0.1857
13885TIP3   OH263069   3.164   5.918   9.752 -0.1210 -0.1530  0.2575
13885TIP3    H163070   3.210   5.876   9.679 -0.9565 -0.3596 -0.1686
13885TIP3    H263071   3.215   5.997   9.770 -1.0442  1.0511 -1.9890
13886TIP3   OH263072   5.391   5.762  16.375 -0.8789  0.0509 -0.0607
13886TIP3    H163073   5.309   5.797  16.411 -1.6797  0.3349 -2.0520
13886TIP3    H263074   5.409   5.685  16.429 -1.3065  1.1431  1.7551
13887TIP3   OH263075   1.907   5.773  15.711 -0.0623 -0.0387 -0.7516
13887TIP3    H163076   1.814   5.774  15.732  0.7100  3.8786  4.6965
13887TIP3    H263077   1.945   5.710  15.773  1.1546  1.6349  0.3113
13888TIP3   OH263078   2.599   1.941  11.313 -0.3217  0.2541 -0.3966
13888TIP3    H163079   2.510   1.971  11.295 -0.3882  0.4048  0.1837
13888TIP3    H263080   2.653   1.987  11.249 -0.8144 -0.8556 -1.6677
13889TIP3   OH263081   6.378   4.468  15.618 -0.4487 -0.3819  0.1712
13889TIP3    H163082   6.284   4.449  15.612 -0.1406 -1.4834 -2.1641
13889TIP3    H263083   6.393   4.538  15.555  0.2440  0.1576  0.9060
13890TIP3   OH263084   2.724   6.667  14.811  0.2065 -0.6188 -0.1680
13890TIP3    H163085   2.677   6.584  14.815 -1.6325  0.3243 -0.7185
13890TIP3    H263086   2.761   6.679  14.898 -2.2664 -0.5386  0.9565
13891TIP3   OH263087   3.106   4.088   0.818  0.5720 -0.1401  0.2676
13891TIP3    H163088   3.019   4.096   0.857  0.7078  1.1754  0.3277
13891TIP3    H263089   3.118   4.169   0.769  1.8557 -0.2090  0.4434
13892TIP3   OH263090   6.662   5.278  13.250 -0.2092  0.4272 -0.0121
13892TIP3    H163091   6.593   5.213  13.236 -0.8490  0.9893  0.5066
13892TIP3    H263092   6.619   5.362  13.237  0.7242  0.7622 -1.1492
13893TIP3   OH263093   4.869   3.700   5.790 -0.2994  0.5528  0.1786
13893TIP3    H163094   4.785   3.737   5.815 -0.5209  0.1969 -0.0205
13893TIP3    H263095   4.930   3.773   5.793 -0.7870  1.0011 -0.5084
13894TIP3   OH263096   5.850   5.040  15.248  0.2544  0.0022  0.3064
13894TIP3    H163097   5.776   5.011  15.301 -1.0091  1.6811 -0.4583
13894TIP3    H263098   5.865   5.131  15.273  1.3460  0.0263 -0.3424
13895TIP3   OH263099   0.742   0.118   1.899  0.4741  0.7703 -0.1362
13895TIP3    H163100   0.679   0.111   1.971  0.2421 -1.2467 -0.4942
13895TIP3    H263101   0.775   0.029   1.887  1.3408  1.2813 -1.7939
13896TIP3   OH263102   4.670   6.872   5.087  0.3119  0.5767  0.3397
13896TIP3    H163103   4.606   6.831   5.029  1.4302 -1.6586  0.5556
13896TIP3    H263104   4.632   6.862   5.175  0.6621 -0.2375  0.4105
13897TIP3   OH263105   6.594   4.144  16.705 -0.1738  0.3598  0.0460
13897TIP3    H163106   6.652   4.213  16.739  0.7006  0.2179 -1.1161
13897TIP3    H263107   6.506   4.172  16.731  0.0044  2.6129 -1.4693
13898TIP3   OH263108   0.019   6.308   2.449 -0.8239  0.1927 -0.1974
13898TIP3    H163109  -0.044   6.300   2.521 -0.1042 -0.8675  0.3326
13898TIP3    H263110   0.009   6.227   2.399  0.9709 -0.5913  0.6175
13899TIP3   OH263111   0.407   6.523  16.164  0.6162 -0.2730  0.1866
13899TIP3    H163112   0.314   6.541  16.150  0.7018 -0.3539 -0.5170
13899TIP3    H263113   0.451   6.605  16.141  0.7107 -0.1561  0.7503
13900TIP3   OH263114   6.725   0.273   2.458  0.4651 -0.2407 -0.6493
13900TIP3    H163115   6.782   0.202   2.490  1.1541  1.0529  1.2156
13900TIP3    H263116   6.645   0.264   2.510  0.5350  0.2827 -0.4444
13901TIP3   OH263117   5.541   1.827   1.381  0.5353 -0.3615 -0.1480
13901TIP3    H163118   5.513   1.917   1.398 -0.7670 -0.4975 -1.4188
13901TIP3    H263119   5.460   1.776   1.385  1.1469 -1.3499 -0.2412
13902TIP3   OH263120   5.640   5.096  11.531  0.6247  0.7218 -0.2344
13902TIP3    H163121   5.604   5.026  11.476  1.8318  0.9260 -1.3368
13902TIP3    H263122   5.674   5.050  11.608  0.1478  0.2707 -0.2798
13903TIP3   OH263123   3.559   0.566   0.428  0.0796 -0.0372 -0.0775
13903TIP3    H163124   3.631   0.595   0.370 -0.6690  2.4801  0.1382
13903TIP3    H263125   3.480   0.577   0.374 -0.5542  1.6834  1.1113
13904TIP3   OH263126   5.686   6.244   3.030 -0.2027  0.3472  0.8614
13904TIP3    H163127   5.610   6.201   3.071  0.9574 -0.6901  2.0301
13904TIP3    H263128   5.717   6.180   2.966  1.9289 -1.0101  3.0635
13905TIP3   OH263129   1.959   0.189  16.022  0.1129 -0.0447  0.3153
13905TIP3    H163130   1.925   0.164  15.936  0.5453 -2.9034  0.8754
13905TIP3    H263131   2.052   0.167  16.018 -0.1491 -1.7832  1.9414
13906TIP3   OH263132   2.535   5.594  15.670  0.2177 -0.1992  0.0488
13906TIP3    H163133   2.533   5.640  15.754 -0.0273  2.6723 -1.4003
13906TIP3    H263134   2.500   5.507  15.690  0.4529  0.2533  2.9491
13907TIP3   OH263135   5.301   2.599  15.017  0.1712  0.0210  0.0145
13907TIP3    H163136   5.264   2.687  15.028  0.1308  0.0292 -0.1859
13907TIP3    H263137   5.381   2.600  15.070 -0.4658 -0.2143  1.0057
13908TIP3   OH263138   0.501   2.083   4.503 -0.5259  0.4055 -0.5247
13908TIP3    H163139   0.562   2.048   4.568 -0.4283  2.5865  0.6419
13908TIP3    H263140   0.414   2.058   4.535 -0.3742 -0.8897 -1.0687
13909TIP3   OH263141   2.149   5.588   4.715  0.1633 -0.1774 -0.0631
13909TIP3    H163142   2.212   5.577   4.787  0.3409  0.5761 -0.0942
13909TIP3    H263143   2.203   5.608   4.639  0.1310 -2.7031 -0.8612
13910TIP3   OH263144   2.321   5.332   5.690  0.2879 -0.1575 -0.5754
13910TIP3    H163145   2.269   5.398   5.643 -0.0936  0.5151  0.7384
13910TIP3    H263146   2.322   5.256   5.632 -1.5905  0.0535 -0.9430
13911TIP3   OH263147   3.005   0.653   3.002  0.6340 -0.9914 -0.0995
13911TIP3    H163148   2.986   0.621   3.090  0.8234 -0.0987  0.2846
13911TIP3    H263149   3.018   0.574   2.950 -1.7605 -1.6147  0.1351
13912TIP3   OH263150   4.079   1.613   3.388  0.1426 -0.1186 -0.8856
13912TIP3    H163151   4.150   1.672   3.363  1.4639 -0.7710  1.1295
13912TIP3    H263152   4.025   1.663   3.449  1.4792 -1.0400  1.1247
13913TIP3   OH263153   4.388   5.902  13.883  0.0090  0.2631 -0.3232
13913TIP3    H163154   4.457   5.893  13.817 -1.8547  0.6109 -2.4715
13913TIP3    H263155   4.415   5.977  13.936  2.2761 -0.9116  0.3147
13914TIP3   OH263156   4.185   1.825   4.049  0.8930  0.0465  0.8102
13914TIP3    H163157   4.168   1.756   4.112 -1.2396  0.6821  1.0048
13914TIP3    H263158   4.147   1.793   3.967  1.8465  0.0906  0.3281
13915TIP3   OH263159   0.284   3.925  15.086  0.5700 -0.3550  0.0604
13915TIP3    H163160   0.343   3.929  15.010  0.6317 -0.7618  0.0847
13915TIP3    H263161   0.202   3.962  15.055 -0.0262 -2.2752 -0.7918
13916TIP3   OH263162   0.242   6.227  15.729 -0.4408 -0.4946 -0.4753
13916TIP3    H163163   0.292   6.307  15.713  1.1037 -1.2097  0.5523
13916TIP3    H263164   0.228   6.226  15.824 -0.2369 -1.5348 -0.4410
13917TIP3   OH263165   0.346   3.823   0.635  0.4462  0.3442  0.1653
13917TIP3    H163166   0.321   3.749   0.580 -0.4515 -0.0380  1.0747
13917TIP3    H263167   0.440   3.809   0.651  0.9006  0.8221 -1.7754
13918TIP3   OH263168   4.059   2.329   1.767 -0.6938 -0.7098 -0.4346
13918TIP3    H163169   4.031   2.249   1.811 -0.3227 -0.1371  0.9000
13918TIP3    H263170   4.125   2.367   1.826  1.4979 -1.0095 -2.5240
13919TIP3   OH263171   2.619   1.154   0.578  0.1472  0.0988 -0.1260
13919TIP3    H163172   2.696   1.191   0.622 -0.9030  2.2814  0.0178
13919TIP3    H263173   2.559   1.228   0.569 -1.8538 -1.4862 -0.4606
13920TIP3   OH263174   0.660   0.052   1.028  0.2833 -0.1230 -0.9402
13920TIP3    H163175   0.641   0.048   1.122  0.0016  1.2514 -0.9259
13920TIP3    H263176   0.574   0.050   0.986  0.4232 -1.1697 -1.2028
13921TIP3   OH263177   5.997   6.622  10.634 -0.1060  0.0009 -0.2444
13921TIP3    H163178   6.002   6.690  10.567  4.7898  0.0351 -0.2053
13921TIP3    H263179   5.918   6.644  10.684 -0.9968  3.1530 -2.6780
13922TIP3   OH263180   2.150   3.386  10.851 -0.0578 -0.1720  0.4355
13922TIP3    H163181   2.137   3.293  10.866  1.1045 -0.5081 -0.4790
13922TIP3    H263182   2.239   3.403  10.882  0.7833  0.0114 -1.8794
13923TIP3   OH263183   3.085   3.204  13.387 -0.4298  0.5590  0.3356
13923TIP3    H163184   3.045   3.119  13.368  0.0474  0.4538 -0.2151
13923TIP3    H263185   3.011   3.258  13.417 -0.8600  0.1544  0.0293
13924TIP3   OH263186   2.980   3.951  15.565  0.2423 -0.3457 -0.6049
13924TIP3    H163187   3.042   3.961  15.638 -0.8846 -0.3015  0.3904
13924TIP3    H263188   2.894   3.956  15.607 -0.4863  1.6290 -2.1896
13925TIP3   OH263189   2.550   0.281   2.894  0.1963 -0.1650  0.0431
13925TIP3    H163190   2.593   0.195   2.901  0.4439  0.0580  1.4816
13925TIP3    H263191   2.622   0.344   2.897 -0.1447  0.1848  1.7406
13926TIP3   OH263192   1.878   4.034  14.809  0.3354 -0.2362 -0.5232
13926TIP3    H163193   1.962   4.023  14.765  0.7944  0.2277  0.2157
13926TIP3    H263194   1.879   4.124  14.841 -0.9454  0.1679 -1.5225
13927TIP3   OH263195   1.286   2.376  13.134  0.6283 -0.3928  0.5861
13927TIP3    H163196   1.227   2.331  13.073  0.3111 -0.8555  1.2234
13927TIP3    H263197   1.370   2.332  13.123  0.3418 -1.0890  1.1406
13928TIP3   OH263198   0.591   4.711  12.061 -0.3331  0.1377 -0.2749
13928TIP3    H163199   0.516   4.708  12.001 -0.9613  1.3123  0.4317
13928TIP3    H263200   0.615   4.619  12.073  0.6060 -0.1051 -3.2813
13929TIP3   OH263201   3.882   1.479  16.366  0.1375 -0.6366 -0.2854
13929TIP3    H163202   3.836   1.520  16.293 -0.2807 -0.3205  0.1552
13929TIP3    H263203   3.950   1.426  16.324  2.3107  2.3607 -0.8695
13930TIP3   OH263204   3.230   0.451   3.628  0.1525 -0.8234 -0.1372
13930TIP3    H163205   3.165   0.421   3.564  1.2778 -1.3740 -1.0778
13930TIP3    H263206   3.282   0.516   3.579 -0.8369  1.0357  1.1752
13931TIP3   OH263207   2.077   2.896   2.448  0.1711  0.4854  0.1108
13931TIP3    H163208   2.006   2.896   2.384  1.5965 -0.5397 -1.5827
13931TIP3    H263209   2.099   2.989   2.460  0.2682  0.6829 -1.4042
13932TIP3   OH263210   1.658   0.613  11.172 -0.3106  0.1361 -0.2092
13932TIP3    H163211   1.650   0.632  11.265  0.4242 -1.3644  0.1977
13932TIP3    H263212   1.752   0.617  11.154  0.1042 -3.7475  0.1789
13933TIP3   OH263213   3.842   5.528   2.508 -0.6767 -0.4171  0.3818
13933TIP3    H163214   3.788   5.555   2.433 -0.7314  0.0236  0.5777
13933TIP3    H263215   3.868   5.610   2.549 -0.5915 -0.6588  0.8096
13934TIP3   OH263216   1.353   3.389   3.974  0.3301 -0.1119  0.0032
13934TIP3    H163217   1.384   3.352   3.891  1.6293 -2.0590  1.2864
13934TIP3    H263218   1.396   3.474   3.980 -0.4211  0.4349 -1.6678
13935TIP3   OH263219   2.194   4.806  15.239 -0.1531  0.1374  0.5550
13935TIP3    H163220   2.152   4.802  15.325 -2.4695 -1.2418 -0.5135
13935TIP3    H263221   2.135   4.861  15.187 -0.4487 -1.4636 -0.8959
13936TIP3   OH263222   2.365   3.846   3.446  0.0110 -0.3856 -0.0899
13936TIP3    H163223   2.409   3.812   3.368  1.8487  1.3406  0.1103
13936TIP3    H263224   2.387   3.939   3.447 -2.2200  0.2077  1.0599
13937TIP3   OH263225   1.810   1.005   3.200 -0.5649  0.4098  0.5028
13937TIP3    H163226   1.878   0.975   3.140 -0.7655 -2.2227  1.4504
13937TIP3    H263227   1.814   1.100   3.196  1.4661  0.3125 -1.3422
13938TIP3   OH263228   0.398   4.828   1.883 -0.8501  0.2112 -0.6531
13938TIP3    H163229   0.386   4.812   1.977  1.0053  2.5867  0.0962
13938TIP3    H263230   0.412   4.741   1.846 -0.6339 -0.7205  1.4514
13939TIP3   OH263231   1.061   0.273  11.645  0.6701 -0.5012 -0.9112
13939TIP3    H163232   1.075   0.298  11.554 -1.8986  0.0980 -1.2177
13939TIP3    H263233   1.042   0.356  11.689  0.9424 -0.9027 -0.0185
13940TIP3   OH263234   2.650   5.605  13.822  0.3899 -0.1794  0.2863
13940TIP3    H163235   2.587   5.672  13.794  0.9138 -0.4376 -1.6981
13940TIP3    H263236   2.653   5.544  13.748  2.3271 -0.6429  0.7050
13941TIP3   OH263237   3.110   2.348  10.138 -0.0107 -0.1838  0.1512
13941TIP3    H163238   3.176   2.396  10.088 -0.7118  0.6236 -0.0175
13941TIP3    H263239   3.158   2.310  10.211  0.7995 -0.3443 -0.4469
13942TIP3   OH263240   2.657   1.773   3.118  0.1672 -0.2376  0.3897
13942TIP3    H163241   2.707   1.710   3.067  1.4595  0.2692  0.9973
13942TIP3    H263242   2.595   1.719   3.168 -1.1212 -0.7367 -1.6261
13943TIP3   OH263243   3.713   1.659  16.170  0.1109  0.2603  0.1612
13943TIP3    H163244   3.687   1.627  16.084  0.2200 -0.2956  0.3330
13943TIP3    H263245   3.700   1.584  16.228  0.5405  0.4740  0.5350
13944TIP3   OH263246   1.168   2.641   4.189 -0.7472 -0.1391  0.4084
13944TIP3    H163247   1.191   2.560   4.234 -0.7706 -0.7334 -0.5991
13944TIP3    H263248   1.123   2.694   4.254  1.7751  0.2977  1.9366
13945TIP3   OH263249   0.549   5.714   2.921  0.2809 -0.0539 -0.6406
13945TIP3    H163250   0.489   5.783   2.951  2.3386  1.4393  0.2349
13945TIP3    H263251   0.504   5.676   2.845 -1.9684  0.6771  0.2367
13946TIP3   OH263252   4.941   6.835  16.296  0.4051 -0.0419  0.3616
13946TIP3    H163253   4.912   6.782  16.222  2.4918 -1.3748  0.4278
13946TIP3    H263254   4.881   6.814  16.367 -2.6224  2.4075 -1.2193
13947TIP3   OH263255   4.691   0.425  16.420 -0.0343 -0.3597 -0.1445
13947TIP3    H163256   4.672   0.388  16.506 -1.7255  1.2270  0.2220
13947TIP3    H263257   4.779   0.461  16.429 -0.5238  0.5676  1.2262
13948TIP3   OH263258   2.482   2.244   1.483 -0.2107  0.2015 -0.2102
13948TIP3    H163259   2.444   2.320   1.528 -1.1924  0.0806 -0.8233
13948TIP3    H263260   2.417   2.220   1.417 -0.2059 -1.5875  0.4031
13949TIP3   OH263261   5.155   2.057  11.928  0.0503  0.2828  0.4733
13949TIP3    H163262   5.067   2.042  11.894  0.4139  0.7234 -0.6979
13949TIP3    H263263   5.143   2.127  11.993 -0.2204  1.6794 -1.0208
13950TIP3   OH263264   4.514   4.100   3.798  0.3610 -0.1957  0.1098
13950TIP3    H163265   4.457   4.103   3.721 -0.7087 -0.2706  0.8818
13950TIP3    H263266   4.522   4.007   3.819  0.0429 -0.1319  0.5260
13951TIP3   OH263267   5.153   2.810  13.768  0.3524  0.3209 -0.2328
13951TIP3    H163268   5.075   2.830  13.718  0.5881  1.6437 -0.1236
13951TIP3    H263269   5.215   2.879  13.744  0.6557  0.6812  1.4401
13952TIP3   OH263270   5.463   5.953   0.482 -0.1340 -0.5817  0.6138
13952TIP3    H163271   5.536   5.910   0.436 -0.7839 -3.1255  1.7600
13952TIP3    H263272   5.387   5.900   0.459 -2.2910  3.3727 -2.5186
13953TIP3   OH263273   1.426   5.006   4.498 -0.0254 -0.2476 -0.0840
13953TIP3    H163274   1.499   5.066   4.511 -1.6858  1.7257  0.8083
13953TIP3    H263275   1.466   4.919   4.490  2.5784  0.9914 -2.2255
13954TIP3   OH263276   6.039   1.350   2.836  0.0297 -0.2150  0.0459
13954TIP3    H163277   6.000   1.360   2.923  0.8416  2.0061  0.2067
13954TIP3    H263278   6.038   1.437   2.799  0.3036 -1.0126 -1.9436
13955TIP3   OH263279   0.308   1.746  14.846 -0.0537  0.4987 -0.2507
13955TIP3    H163280   0.388   1.753  14.898 -0.4993 -1.2027  0.7416
13955TIP3    H263281   0.237   1.755  14.910 -0.6142 -1.0225 -0.6165
13956TIP3   OH263282   6.498   3.676   4.594 -0.4078 -0.5538  0.4871
13956TIP3    H163283   6.507   3.583   4.615 -0.5212 -0.6795 -0.0132
13956TIP3    H263284   6.589   3.707   4.586 -0.3471 -1.0744 -1.2762
13957TIP3   OH263285   1.061   6.315   5.068  0.3506 -0.1784 -0.0134
13957TIP3    H163286   1.121   6.244   5.090  0.7094  0.3345  0.6935
13957TIP3    H263287   0.979   6.290   5.110  1.2005  1.1045  2.5931
13958TIP3   OH263288   4.108   0.366   3.146 -0.4925  0.2520  0.3728
13958TIP3    H163289   4.017   0.384   3.168 -0.7122  1.4740 -1.3477
13958TIP3    H263290   4.104   0.304   3.073  0.0998 -0.3060  0.7958
13959TIP3   OH263291   2.847   5.454  13.633  0.2125 -0.4703  0.1483
13959TIP3    H163292   2.863   5.436  13.726 -0.5009 -0.2577  0.3150
13959TIP3    H263293   2.872   5.374  13.588 -1.6274 -1.4292  0.7468
13960TIP3   OH263294   4.342   1.875  14.969  0.0182  0.3589  0.3004
13960TIP3    H163295   4.364   1.905  15.057 -0.1958  0.0236  0.4656
13960TIP3    H263296   4.249   1.855  14.973  0.2874 -0.9318  0.3592
13961TIP3   OH263297   0.707   1.679  15.994  0.1662 -0.0251 -0.8946
13961TIP3    H163298   0.661   1.729  15.927 -1.6369  0.7813  0.8413
13961TIP3    H263299   0.701   1.588  15.965  0.1121  0.3754 -2.1867
13962TIP3   OH263300   6.230   4.918   0.619  0.2548 -0.6630 -0.5895
13962TIP3    H163301   6.262   4.847   0.675  1.4010 -0.7368 -1.2886
13962TIP3    H263302   6.247   4.887   0.530  1.1422  0.6403 -0.9008
13963TIP3   OH263303   0.355   6.634   3.039 -1.0953 -0.3306 -0.8816
13963TIP3    H163304   0.287   6.655   3.103 -0.8347  2.1856 -1.3149
13963TIP3    H263305   0.376   6.542   3.055 -3.3628 -0.6959  0.3955
13964TIP3   OH263306   5.251   2.290   2.655  0.1679  0.0198 -0.6489
13964TIP3    H163307   5.334   2.335   2.642 -0.7335  2.4856  1.3376
13964TIP3    H263308   5.192   2.328   2.590  0.3549 -1.1706 -1.5450
13965TIP3   OH263309   6.343   4.394  16.409  0.7804 -0.3921  0.5832
13965TIP3    H163310   6.345   4.423  16.318 -1.2984 -0.4683  0.4838
13965TIP3    H263311   6.435   4.375  16.429  1.1149 -2.1686 -2.0884
13966TIP3   OH263312   2.735   3.893   2.752 -0.6646 -0.1199 -0.0565
13966TIP3    H163313   2.661   3.952   2.736  0.3172  1.0124 -0.5497
13966TIP3    H263314   2.768   3.871   2.665  0.9487  1.1979  0.1814
13967TIP3   OH263315   0.294   1.144  13.252  0.4100 -0.5460 -0.4239
13967TIP3    H163316   0.210   1.171  13.217  0.8552  0.0606 -1.0443
13967TIP3    H263317   0.328   1.222  13.297 -0.3458 -1.4141  1.8141
13968TIP3   OH263318   4.423   0.608  15.972  0.2239  0.4603  0.0110
13968TIP3    H163319   4.440   0.568  16.057 -1.2876 -0.2664  0.0108
13968TIP3    H263320   4.348   0.559  15.937  0.7355  0.8217 -1.6869
13969TIP3   OH263321   0.217   3.575  13.503 -0.0287  0.3528  0.0524
13969TIP3    H163322   0.163   3.518  13.449  0.1446  0.7924 -0.5909
13969TIP3    H263323   0.190   3.664  13.479  0.3097  0.5602  0.4215
13970TIP3   OH263324   2.252   5.935   0.175 -0.0271  0.1920 -0.2892
13970TIP3    H163325   2.271   5.862   0.234  0.9346  0.9895  0.4238
13970TIP3    H263326   2.233   5.893   0.091 -1.1943 -0.9521  0.5021
13971TIP3   OH263327   6.618   2.977  12.696  0.1297 -0.0619  0.1332
13971TIP3    H163328   6.591   3.069  12.690  0.5884  0.0109 -1.1547
13971TIP3    H263329   6.712   2.978  12.683  0.0793 -0.7482 -0.3702
13972TIP3   OH263330   0.137   1.304  11.306  0.2073 -0.0006  0.4087
13972TIP3    H163331   0.050   1.283  11.272  1.4069 -2.1998 -1.6140
13972TIP3    H263332   0.173   1.367  11.243  1.0125 -1.1203 -0.2843
13973TIP3   OH263333   0.362   6.704   5.592 -0.6789 -0.1954  0.1672
13973TIP3    H163334   0.323   6.791   5.601 -0.1743  0.0888 -0.3410
13973TIP3    H263335   0.398   6.685   5.678  0.4829  0.7306 -0.0738
13974TIP3   OH263336   0.624   3.202  16.397 -0.3897 -0.4914 -0.1837
13974TIP3    H163337   0.694   3.265  16.384  0.2971 -1.0761  0.5770
13974TIP3    H263338   0.642   3.132  16.334 -0.0360 -0.8433  0.2999
13975TIP3   OH263339   4.516   5.931  15.140  0.1896 -0.1369  0.3971
13975TIP3    H163340   4.496   5.880  15.219  0.4027 -0.2808  0.3575
13975TIP3    H263341   4.612   5.935  15.138  0.2034 -0.6915 -0.2124
13976TIP3   OH263342   2.235   0.919   1.049  0.3113 -0.3136  0.3613
13976TIP3    H163343   2.312   0.884   1.093  0.6692 -0.6857 -0.5362
13976TIP3    H263344   2.176   0.844   1.039 -0.5945  0.1408  1.8497
13977TIP3   OH263345   6.096   4.376  15.560 -0.3179 -0.2159 -0.5104
13977TIP3    H163346   6.048   4.428  15.624  0.6737 -0.6298  0.6099
13977TIP3    H263347   6.048   4.293  15.557 -0.6865  0.0029 -0.7226
13978TIP3   OH263348   3.609   0.414   4.655  0.0192  0.4326  0.8375
13978TIP3    H163349   3.579   0.323   4.650 -2.5641  1.2185  0.7108
13978TIP3    H263350   3.608   0.434   4.749 -2.5424  1.2141  0.7094
13979TIP3   OH263351   1.771   4.292   0.186 -0.1032 -0.2038  0.1613
13979TIP3    H163352   1.756   4.324   0.097 -0.1830  0.0930  0.2795
13979TIP3    H263353   1.684   4.281   0.223 -0.1133 -1.5792 -0.2281
13980TIP3   OH263354   5.800   4.220  13.385 -0.0790  1.0395 -0.0080
13980TIP3    H163355   5.707   4.236  13.370 -0.4130  0.0404  0.8788
13980TIP3    H263356   5.808   4.212  13.480  1.0046  1.5641 -0.0333
13981TIP3   OH263357   4.446   2.069  12.684 -0.3713 -0.6081  0.4015
13981TIP3    H163358   4.409   2.009  12.620  1.2228 -1.6937  0.4478
13981TIP3    H263359   4.516   2.115  12.637  1.6397 -2.2696  1.5502
13982TIP3   OH263360   3.591   0.961  11.298  0.7559 -0.0643  0.0124
13982TIP3    H163361   3.536   1.039  11.287  0.9823 -0.2237 -2.9841
13982TIP3    H263362   3.531   0.893  11.329 -0.6956 -0.0671 -2.5725
13983TIP3   OH263363   4.285   1.833   1.054  0.2741  0.1707  0.1245
13983TIP3    H163364   4.248   1.767   1.113 -0.3283  0.0193 -0.4090
13983TIP3    H263365   4.331   1.893   1.112 -0.3844  0.0766  0.7632
13984TIP3   OH263366   3.045   3.691   1.369  0.2052  0.3795 -0.1013
13984TIP3    H163367   3.081   3.654   1.450 -1.9148 -1.7752 -0.0197
13984TIP3    H263368   2.983   3.757   1.399  0.2508  0.3841 -0.0153
13985TIP3   OH263369   0.959   4.510   5.381  0.1844 -0.3370 -0.5092
13985TIP3    H163370   1.027   4.483   5.319 -0.6501  0.4780 -1.8412
13985TIP3    H263371   0.882   4.460   5.354 -0.4088  0.6554 -0.6977
13986TIP3   OH263372   0.291   4.159   1.821 -0.2417  0.3091  0.1532
13986TIP3    H163373   0.311   4.211   1.743  0.4979 -0.8867 -0.4953
13986TIP3    H263374   0.324   4.212   1.894  2.3619 -0.0536 -0.6386
13987TIP3   OH263375   0.395   3.492  11.048 -0.4782 -0.5252 -0.0276
13987TIP3    H163376   0.349   3.574  11.068 -3.4510 -1.6364 -1.6836
13987TIP3    H263377   0.478   3.520  11.010 -0.2701  1.6405  1.8139
13988TIP3   OH263378   2.364   3.130  12.213 -0.0420 -0.1026 -0.6687
13988TIP3    H163379   2.389   3.038  12.219 -0.6227 -0.2085  0.3898
13988TIP3    H263380   2.443   3.174  12.183  0.8721 -0.6853  0.7506
13989TIP3   OH263381   2.072   1.877  11.195 -0.7138 -0.1385 -0.1501
13989TIP3    H163382   1.981   1.888  11.223 -0.9446  0.2339 -1.0277
13989TIP3    H263383   2.124   1.922  11.262 -1.2233  0.3462 -0.0799
13990TIP3   OH263384   1.650   2.212  12.471  0.7483 -0.1446  0.0616
13990TIP3    H163385   1.629   2.202  12.378  2.2826  1.5130 -0.5149
13990TIP3    H263386   1.604   2.140  12.513 -1.2769 -0.0300 -1.7672
13991TIP3   OH263387   2.687   4.505   6.050  0.0132 -0.6105 -0.4672
13991TIP3    H163388   2.623   4.503   6.121  0.9967 -1.2000  0.4303
13991TIP3    H263389   2.771   4.520   6.093  0.3562  1.4973 -1.7562
13992TIP3   OH263390   2.401   1.516   0.819 -0.1403 -0.0517 -0.3962
13992TIP3    H163391   2.428   1.458   0.890 -0.3709  0.3312  0.0077
13992TIP3    H263392   2.305   1.508   0.817 -0.1170 -0.2654 -0.8423
13993TIP3   OH263393   1.406   4.476   5.493  0.6372 -0.2702  0.2910
13993TIP3    H163394   1.426   4.382   5.495 -0.5881 -0.5689  2.9685
13993TIP3    H263395   1.310   4.479   5.497  0.6560  0.9564  4.9102
13994TIP3   OH263396   1.256   4.639   4.020 -0.1630  0.9682 -0.5150
13994TIP3    H163397   1.282   4.729   3.998  1.5213  0.6600  0.0928
13994TIP3    H263398   1.182   4.621   3.963  0.1615  2.3630 -1.4250
13995TIP3   OH263399   3.762   5.123   5.172 -0.6971  0.5827  0.0240
13995TIP3    H163400   3.708   5.055   5.133 -0.7050  0.1967  0.6855
13995TIP3    H263401   3.703   5.167   5.234  0.1620 -0.9630  2.0474
13996TIP3   OH263402   6.179   3.004   5.768  0.5848  0.3390 -0.5415
13996TIP3    H163403   6.199   3.095   5.790  0.4298  0.5436 -1.2168
13996TIP3    H263404   6.108   2.980   5.827  0.8866  0.5251 -0.0921
13997TIP3   OH263405   3.528   6.021   3.710 -0.6494  0.2775  0.2834
13997TIP3    H163406   3.591   6.088   3.682 -0.6803  1.0965  2.0544
13997TIP3    H263407   3.443   6.064   3.704 -0.9807 -0.5087 -1.1404
13998TIP3   OH263408   2.913   2.550  16.369 -0.2118  0.1408 -0.8162
13998TIP3    H163409   2.998   2.531  16.407 -0.2266 -1.0024 -1.3253
13998TIP3    H263410   2.898   2.642  16.391  1.6349  0.6923 -1.6295
13999TIP3   OH263411   3.660   2.110  12.816 -0.0416  0.3704 -0.7198
13999TIP3    H163412   3.669   2.186  12.874  0.0028  0.1451 -0.4270
13999TIP3    H263413   3.567   2.104  12.798 -0.0736  0.3568 -0.5531
14000TIP3   OH263414   6.145   2.605   3.439 -0.6330  0.3467 -0.3566
14000TIP3    H163415   6.128   2.698   3.426 -0.0948  0.3981 -0.7038
14000TIP3    H263416   6.107   2.586   3.525 -1.6126  0.6564 -0.7050
14001TIP3   OH263417   3.860   3.860  12.409  0.5813  0.2547 -0.3921
14001TIP3    H163418   3.864   3.945  12.453  0.4591 -0.5223  1.1676
14001TIP3    H263419   3.921   3.805  12.457 -0.5153 -0.9872 -0.3668
14002TIP3   OH263420   0.108   4.760   3.715  0.5429 -0.3919 -0.4806
14002TIP3    H163421   0.129   4.778   3.806  0.0969 -0.2697 -0.4015
14002TIP3    H263422   0.025   4.805   3.700  0.6108 -0.4138 -0.9455
14003TIP3   OH263423   2.670   2.739   2.079  0.1514  0.1552  0.0794
14003TIP3    H163424   2.580   2.738   2.047  0.0965  0.0895  0.2350
14003TIP3    H263425   2.717   2.682   2.019  0.5811  1.9628 -1.4021
14004TIP3   OH263426   5.297   6.323  15.880  0.5257  0.5636  0.2681
14004TIP3    H163427   5.325   6.245  15.928  2.0337  0.9423  0.0759
14004TIP3    H263428   5.273   6.386  15.947 -1.3306 -0.2480  0.4178
14005TIP3   OH263429   2.007   4.882  15.051  0.2450 -0.0430 -0.3844
14005TIP3    H163430   1.920   4.858  15.019 -0.0309  0.9491 -0.4216
14005TIP3    H263431   2.018   4.974  15.025 -0.1405  0.9648  2.5538
14006TIP3   OH263432   2.881   2.534   5.262 -0.3164 -0.1323  0.3710
14006TIP3    H163433   2.849   2.449   5.293  0.4523 -0.3693  0.5613
14006TIP3    H263434   2.969   2.541   5.300 -0.5365  0.9443  0.7104
14007TIP3   OH263435   5.769   6.436  16.312 -0.3432 -0.1738  0.1141
14007TIP3    H163436   5.768   6.391  16.227  0.3157 -0.8820  0.4631
14007TIP3    H263437   5.746   6.526  16.292  0.3204 -0.2090 -0.8974
14008TIP3   OH263438   2.791   5.612   5.576  0.0875 -0.4428  0.1851
14008TIP3    H163439   2.824   5.578   5.660 -0.5866  0.2810  0.7585
14008TIP3    H263440   2.697   5.622   5.590 -0.1180 -0.8017 -0.8420
14009TIP3   OH263441   5.274   3.220  16.694 -0.4094  0.0585  0.2941
14009TIP3    H163442   5.275   3.248  16.602 -1.8866 -2.0093 -0.4137
14009TIP3    H263443   5.328   3.286  16.739 -1.8517  2.7165 -1.5691
14010TIP3   OH263444   0.833   1.749   5.274  0.2218 -0.7714  0.0433
14010TIP3    H163445   0.769   1.695   5.227  0.1784 -0.6346 -0.0574
14010TIP3    H263446   0.918   1.722   5.239  0.1470 -0.2112 -0.5966
14011TIP3   OH263447   0.069   5.257  16.313  0.5490  0.6586 -0.0090
14011TIP3    H163448   0.163   5.246  16.329  0.1442 -0.7114  1.8192
14011TIP3    H263449   0.036   5.168  16.300 -0.4977  1.1242 -0.6587
14012TIP3   OH263450   4.988   3.347  10.801 -0.3538 -0.0196 -0.1248
14012TIP3    H163451   5.080   3.351  10.828 -0.8269  1.3670  1.4821
14012TIP3    H263452   4.987   3.286  10.728  2.0535  0.9085 -1.0412
14013TIP3   OH263453   3.965   1.870   0.246  0.0461  0.3087  0.6608
14013TIP3    H163454   3.954   1.775   0.244 -1.8331  0.4917  0.3350
14013TIP3    H263455   3.925   1.896   0.329  1.6477  0.7390  1.3412
14014TIP3   OH263456   3.718   0.131   2.220 -0.2277  1.1725 -0.1560
14014TIP3    H163457   3.641   0.118   2.276 -1.4342  2.6267 -1.3774
14014TIP3    H263458   3.772   0.054   2.235 -1.6276  0.4021  1.2186
14015TIP3   OH263459   3.030   3.526   4.903 -0.4354 -0.0128  0.5159
14015TIP3    H163460   3.095   3.481   4.849 -0.3177 -0.7299  1.2382
14015TIP3    H263461   2.945   3.499   4.868 -0.3726  1.1007 -0.5748
14016TIP3   OH263462   3.554   5.307   2.657  0.3171  0.3680 -0.0180
14016TIP3    H163463   3.553   5.237   2.591  1.1478 -1.4889  1.8193
14016TIP3    H263464   3.462   5.329   2.669  0.1096  0.3267 -1.3488
14017TIP3   OH263465   0.603   1.702   4.864 -0.1162  0.3372  0.3827
14017TIP3    H163466   0.671   1.665   4.808 -0.0033  0.7498  0.2421
14017TIP3    H263467   0.556   1.626   4.898 -2.2203  0.0744 -2.7334
14018TIP3   OH263468   3.348   4.025  14.059  0.0151 -0.0166  0.2056
14018TIP3    H163469   3.294   4.091  14.103 -0.4536  0.6639 -1.3160
14018TIP3    H263470   3.315   4.022  13.970  0.5060 -1.8276  0.0349
14019TIP3   OH263471   3.642   2.544   3.623  0.5014 -0.2396 -0.3134
14019TIP3    H163472   3.567   2.576   3.673  0.3734 -1.1329  0.0871
14019TIP3    H263473   3.606   2.475   3.566  0.7386  0.4035 -1.2757
14020TIP3   OH263474   5.861   5.026   5.179 -0.4832 -0.2604  0.0467
14020TIP3    H163475   5.818   5.100   5.135  2.2391  0.8189 -1.0173
14020TIP3    H263476   5.878   5.058   5.268  0.8432  0.5044 -0.4633
14021TIP3   OH263477   6.896   1.529  14.155 -0.5379  0.0519  0.0077
14021TIP3    H163478   6.953   1.598  14.191 -0.1485  1.4581 -3.0035
14021TIP3    H263479   6.915   1.453  14.210  1.6480  1.4008  1.3195
14022TIP3   OH263480   1.808   1.685  15.166  0.3167 -0.0953  0.3512
14022TIP3    H163481   1.867   1.609  15.167  0.2092 -0.1795  0.3462
14022TIP3    H263482   1.741   1.662  15.102  0.8506  0.4386 -0.4024
14023TIP3   OH263483   1.078   6.888  16.077  0.0823 -0.4272 -0.5315
14023TIP3    H163484   1.123   6.804  16.066  1.1085  0.0727 -0.1886
14023TIP3    H263485   1.064   6.919  15.987  0.9627 -0.3026 -0.6295
14024TIP3   OH263486   1.441   6.251   0.531 -0.0210  0.0512 -0.1055
14024TIP3    H163487   1.417   6.338   0.564 -0.3922 -0.5249  1.1997
14024TIP3    H263488   1.466   6.267   0.440  0.9626  1.6934  0.4004
14025TIP3   OH263489   4.113   1.439  13.225  0.0971 -0.3919 -0.6580
14025TIP3    H163490   4.179   1.427  13.294 -0.7436  0.2185  0.2778
14025TIP3    H263491   4.133   1.371  13.161  0.8570 -1.0288  0.2209
14026TIP3   OH263492   1.914   5.676  14.691  0.2874  0.3069  0.7258
14026TIP3    H163493   1.857   5.654  14.765  2.3586 -3.4815  1.4578
14026TIP3    H263494   1.985   5.728  14.729  0.5423 -0.3087  1.0936
14027TIP3   OH263495   2.757   5.723  12.936  0.2824  0.0518  0.2343
14027TIP3    H163496   2.820   5.695  12.869 -0.1144 -0.0092 -0.1245
14027TIP3    H263497   2.809   5.733  13.016  1.1372  1.9388 -0.4818
14028TIP3   OH263498   1.199   1.556   3.989  0.2726 -0.0247 -0.2807
14028TIP3    H163499   1.121   1.602   3.959  1.8814  1.6859 -2.0867
14028TIP3    H263500   1.263   1.568   3.919  2.0330 -1.7853  0.9092
14029TIP3   OH263501   5.059   0.223   5.630 -0.8806  0.3797  0.5421
14029TIP3    H163502   5.080   0.139   5.671 -0.8612 -0.3203 -0.8402
14029TIP3    H263503   4.969   0.241   5.658 -1.3515 -0.7630 -0.1657
14030TIP3   OH263504   3.493   0.920   4.596  0.4843 -0.5435 -1.1777
14030TIP3    H163505   3.534   0.976   4.662  0.9081 -0.7472 -1.2629
14030TIP3    H263506   3.560   0.855   4.575  0.1343 -0.8476 -1.3640
14031TIP3   OH263507   4.849   4.265   1.555 -0.2716 -0.1046 -0.2919
14031TIP3    H163508   4.844   4.185   1.503 -0.1824 -0.4975  0.2921
14031TIP3    H263509   4.797   4.246   1.633  1.2205 -0.2579  0.6999
14032TIP3   OH263510   1.723   5.550  12.574 -0.3420 -0.5595 -0.3274
14032TIP3    H163511   1.790   5.615  12.593 -1.6443  1.1312 -1.3202
14032TIP3    H263512   1.771   5.466  12.574  1.8074  0.5913 -1.2660
14033TIP3   OH263513   4.498   0.710  15.326  0.0839 -0.1403  0.6494
14033TIP3    H163514   4.569   0.740  15.269 -1.3440  0.8706 -0.6389
14033TIP3    H263515   4.544   0.675  15.403  2.0982 -1.9953 -1.2431
14034TIP3   OH263516   2.474   6.718   0.330 -0.7123  0.0913 -0.0849
14034TIP3    H163517   2.393   6.670   0.312  0.0870 -0.5999 -2.1297
14034TIP3    H263518   2.524   6.713   0.249  1.5576  0.1910  1.2018
14035TIP3   OH263519   0.430   5.493  15.919 -0.6696  0.4948 -0.6434
14035TIP3    H163520   0.520   5.472  15.944 -0.6772 -1.1167 -1.8056
14035TIP3    H263521   0.435   5.511  15.825 -1.8510 -1.9779 -1.2661
14036TIP3   OH263522   1.894   3.824  15.351  0.1888  0.5449  0.2276
14036TIP3    H163523   1.854   3.737  15.356 -0.9434  1.1163  2.3205
14036TIP3    H263524   1.893   3.846  15.258 -3.2573 -0.0335  0.0011
14037TIP3   OH263525   6.749   3.360   0.426  0.1987 -0.2597 -0.4316
14037TIP3    H163526   6.769   3.437   0.373 -0.6310  0.6773  0.5759
14037TIP3    H263527   6.835   3.331   0.459  0.3972  1.0361  0.2428
14038TIP3   OH263528   5.981   6.298   4.631  0.3585  0.2176  0.3246
14038TIP3    H163529   5.991   6.333   4.542 -0.1706 -1.0786 -0.2780
14038TIP3    H263530   5.917   6.356   4.673  1.1795  1.2929  0.1352
14039TIP3   OH263531   3.113   0.116   3.727 -0.1898 -0.4273 -0.3479
14039TIP3    H163532   3.035   0.127   3.673 -0.9324 -1.0584  0.5392
14039TIP3    H263533   3.186   0.119   3.666 -1.0384 -1.9071 -1.5179
14040TIP3   OH263534   0.578   1.221  12.550  0.4239  0.9544 -0.3568
14040TIP3    H163535   0.539   1.139  12.581 -0.5311  1.9428  1.2379
14040TIP3    H263536   0.518   1.289  12.581  0.5361  2.2212 -2.6864
14041TIP3   OH263537   4.531   5.761   4.477 -0.3366  0.0824 -0.2526
14041TIP3    H163538   4.618   5.732   4.450 -1.4475 -1.4837 -2.5032
14041TIP3    H263539   4.539   5.856   4.483  1.5742 -0.0368 -0.1532
14042TIP3   OH263540   2.673   1.200  13.836  0.0937 -0.1577  0.1833
14042TIP3    H163541   2.593   1.161  13.871  1.0287 -1.8632  0.5011
14042TIP3    H263542   2.693   1.272  13.896 -1.1384  0.2426  0.1425
14043TIP3   OH263543   4.864   0.252   0.336 -0.8229 -0.9331  0.1606
14043TIP3    H163544   4.788   0.209   0.297 -2.3306 -0.7023  2.6641
14043TIP3    H263545   4.831   0.295   0.415  2.2081 -2.3752  2.4274
14044TIP3   OH263546   4.071   3.123   4.897 -0.3948 -0.0049  0.1925
14044TIP3    H163547   4.163   3.144   4.882  0.2121 -3.0775 -1.0946
14044TIP3    H263548   4.027   3.149   4.816 -0.3826  0.0250  0.1959
14045TIP3   OH263549   4.633   3.922   1.950  0.7232  0.4408  0.4841
14045TIP3    H163550   4.662   3.851   1.893  0.2231  0.0599  0.7010
14045TIP3    H263551   4.697   3.992   1.935  0.7006  0.2824 -0.4075
14046TIP3   OH263552   2.858   0.517  11.931  0.3089  0.1062  0.2670
14046TIP3    H163553   2.922   0.577  11.969 -0.1628  0.1608  0.9855
14046TIP3    H263554   2.783   0.521  11.990 -0.9224  1.1173 -1.2742
14047TIP3   OH263555   3.568   4.442   1.296 -0.3970 -0.6855  0.2379
14047TIP3    H163556   3.522   4.431   1.212 -0.4656 -1.0101  0.3160
14047TIP3    H263557   3.629   4.369   1.300  0.9036  0.3310 -0.3481
14048TIP3   OH263558   5.357   5.251  12.257  0.1060 -0.2867 -0.4213
14048TIP3    H163559   5.318   5.332  12.287  1.6060  0.8040 -1.2472
14048TIP3    H263560   5.315   5.182  12.309 -0.8167  1.0555  0.6621
14049TIP3   OH263561   5.546   3.790   4.387 -0.8842 -0.2142  0.2733
14049TIP3    H163562   5.486   3.799   4.460  2.3176  1.1551  3.0209
14049TIP3    H263563   5.533   3.869   4.335 -0.5700  0.7363  1.6000
14050TIP3   OH263564   5.626   4.461   1.611  0.4004  0.9671 -0.0685
14050TIP3    H163565   5.633   4.396   1.541  0.4279  2.3370 -1.3803
14050TIP3    H263566   5.652   4.413   1.690 -1.0692 -1.0224 -0.7083
14051TIP3   OH263567   5.576   5.226  11.032 -0.0005  0.6587  0.6244
14051TIP3    H163568   5.653   5.261  10.988 -1.0014  1.2050 -0.7847
14051TIP3    H263569   5.514   5.210  10.961 -0.2641 -2.3043  1.3792
14052TIP3   OH263570   4.188   2.202  14.860 -0.0377  1.0610  0.2924
14052TIP3    H163571   4.106   2.250  14.850 -1.4500 -0.7656  2.1466
14052TIP3    H263572   4.175   2.121  14.811  0.8206  0.9363  0.2576
14053TIP3   OH263573   3.624   4.445  11.305  0.2556 -0.0613 -0.0652
14053TIP3    H163574   3.643   4.521  11.361  0.6651 -0.3506  0.1918
14053TIP3    H263575   3.566   4.480  11.238 -0.6537  0.1791  0.8227
14054TIP3   OH263576   6.482   1.020  12.800 -0.2851  0.5800 -0.0701
14054TIP3    H163577   6.471   1.102  12.752 -0.6342 -0.3191 -1.5977
14054TIP3    H263578   6.542   0.968  12.746 -1.6826 -0.9528 -0.2255
14055TIP3   OH263579   0.225   3.245  11.094 -0.4204  0.0579  0.4471
14055TIP3    H163580   0.262   3.330  11.073 -0.1434 -0.2905 -0.5200
14055TIP3    H263581   0.192   3.254  11.183 -0.5740  1.2301  0.2757
14056TIP3   OH263582   0.357   2.360   1.129  0.0673  0.1264  0.3536
14056TIP3    H163583   0.269   2.325   1.140  0.1793 -1.1629 -2.1792
14056TIP3    H263584   0.415   2.287   1.149  0.4060 -0.1707 -1.5034
14057TIP3   OH263585   6.295   1.276   4.792 -0.3671 -0.6128 -0.1267
14057TIP3    H163586   6.210   1.290   4.834  1.4638 -1.3288  4.4903
14057TIP3    H263587   6.308   1.182   4.796  1.6617 -0.3376  1.9513
14058TIP3   OH263588   5.046   1.742  11.359 -0.4381 -0.3878  0.2091
14058TIP3    H163589   5.056   1.694  11.442  1.0207  0.7473  0.7297
14058TIP3    H263590   4.972   1.801  11.375 -1.1319 -1.2077  0.1533
14059TIP3   OH263591   3.022   1.145  10.621 -0.1479  0.0289  0.2718
14059TIP3    H163592   3.043   1.160  10.529 -1.0904  1.0909  0.2153
14059TIP3    H263593   3.088   1.194  10.669 -0.5473  0.7005  0.1389
14060TIP3   OH263594   6.555   0.155   0.789 -0.1464 -0.7431 -0.2415
14060TIP3    H163595   6.616   0.122   0.855  0.7110 -1.2073 -1.2362
14060TIP3    H263596   6.581   0.247   0.776  0.1297 -0.8465 -0.4250
14061TIP3   OH263597   2.938   0.787  12.308 -0.0720  0.7655 -0.1486
14061TIP3    H163598   2.987   0.781  12.389 -0.3767  1.5909  0.1089
14061TIP3    H263599   2.876   0.859  12.322 -0.3068  0.7530 -1.0102
14062TIP3   OH263600   4.654   1.694  12.906 -0.1660  0.5375 -0.1287
14062TIP3    H163601   4.651   1.725  12.816 -0.5011  0.2399 -0.2214
14062TIP3    H263602   4.725   1.744  12.946  0.8246 -0.2076 -0.8912
14063TIP3   OH263603   4.211   0.729   2.933 -0.0397 -0.8491 -0.2129
14063TIP3    H163604   4.304   0.722   2.954  0.5442  1.1020 -1.8373
14063TIP3    H263605   4.197   0.662   2.866  0.0873 -1.4015  0.3028
14064TIP3   OH263606   5.580   4.950  13.206  0.3834 -0.4671  0.1343
14064TIP3    H163607   5.565   5.019  13.272 -0.9544 -0.3383 -0.2761
14064TIP3    H263608   5.653   4.983  13.154  0.1080  0.4039  0.2703
14065TIP3   OH263609   4.343   5.778  15.324 -0.2807  0.0426 -0.1010
14065TIP3    H163610   4.292   5.843  15.275  0.2898 -1.4527 -2.8961
14065TIP3    H263611   4.283   5.745  15.390 -1.8642  0.6535 -1.1836
14066TIP3   OH263612   6.220   1.046   4.501 -0.2441 -0.1963  0.1832
14066TIP3    H163613   6.263   1.129   4.480  0.0012 -0.2234  0.5703
14066TIP3    H263614   6.129   1.058   4.472  0.0919 -0.2517 -0.9294
14067TIP3   OH263615   4.110   0.745   2.555  0.0778  0.4346  0.1398
14067TIP3    H163616   4.039   0.754   2.491  0.6454  0.6331 -0.4743
14067TIP3    H263617   4.180   0.801   2.521  0.7594 -0.2442  0.4123
14068TIP3   OH263618   4.046   5.388  15.131 -0.1375  0.7452  0.8343
14068TIP3    H163619   4.069   5.336  15.208 -2.3753  1.1443  1.8656
14068TIP3    H263620   4.082   5.339  15.057  2.6239  0.6665  2.1188
14069TIP3   OH263621   0.533   1.806   1.392 -0.1562 -0.1613  0.1926
14069TIP3    H163622   0.453   1.837   1.351  0.0060  0.5879  0.4367
14069TIP3    H263623   0.510   1.794   1.484 -0.7619 -2.6643 -0.2114
14070TIP3   OH263624   1.350   1.496   5.263  0.1173  0.1177 -0.2977
14070TIP3    H163625   1.332   1.567   5.201  0.2923  0.5920  0.1850
14070TIP3    H263626   1.265   1.453   5.275  0.0125  0.2341 -0.6010
14071TIP3   OH263627   0.609   3.866   1.805  0.1475 -0.3732  0.0872
14071TIP3    H163628   0.538   3.920   1.769 -0.7579 -0.9358  0.9897
14071TIP3    H263629   0.646   3.821   1.729 -1.4648 -1.2373 -0.2107
14072TIP3   OH263630   1.438   6.409   4.746 -0.4399 -0.2763  0.2958
14072TIP3    H163631   1.386   6.422   4.667 -0.0222 -0.4671 -0.0177
14072TIP3    H263632   1.407   6.476   4.807  0.2200  0.8260 -0.5380
14073TIP3   OH263633   3.430   2.913  12.866 -0.5742 -0.5202  0.4626
14073TIP3    H163634   3.482   2.842  12.827 -1.0330  0.0226 -1.2265
14073TIP3    H263635   3.474   2.993  12.839 -1.5981 -0.0886  0.0089
14074TIP3   OH263636   4.575   0.261  10.919  0.7481 -0.1010 -0.1745
14074TIP3    H163637   4.560   0.286  10.828  1.2404 -0.9239 -0.4951
14074TIP3    H263638   4.525   0.180  10.930  1.1437 -0.3054  0.1204
14075TIP3   OH263639   3.599   1.492  15.219 -0.0973  0.2420  0.1781
14075TIP3    H163640   3.681   1.534  15.244 -0.8012  1.5140  0.4678
14075TIP3    H263641   3.625   1.417  15.166  1.3605 -1.1495  2.6996
14076TIP3   OH263642   1.155   4.841  10.837 -0.0570  0.9152 -1.3156
14076TIP3    H163643   1.180   4.933  10.833  0.8817  0.6614 -1.4255
14076TIP3    H263644   1.237   4.793  10.834 -0.2972  0.1285  1.4904
14077TIP3   OH263645   2.130   3.386  15.017  0.3774  0.7190 -0.6067
14077TIP3    H163646   2.198   3.419  14.958  1.7273 -0.2526  0.3396
14077TIP3    H263647   2.150   3.426  15.102  1.8957 -2.1057  0.5072
14078TIP3   OH263648   6.640   3.880  13.376 -0.1188  0.0710 -0.3953
14078TIP3    H163649   6.669   3.791  13.397  0.9366  0.3850 -0.4816
14078TIP3    H263650   6.562   3.893  13.430 -0.6924 -1.1418 -0.8874
14079TIP3   OH263651   2.881   0.738   3.352  0.1284 -0.2125  0.6262
14079TIP3    H163652   2.823   0.755   3.427  0.8890  1.4684  0.8627
14079TIP3    H263653   2.822   0.729   3.278 -0.4778  1.1650  0.9154
14080TIP3   OH263654   3.120   4.331   2.334  0.2750 -0.2467 -0.1139
14080TIP3    H163655   3.123   4.348   2.240  1.7777  2.3247  0.2894
14080TIP3    H263656   3.071   4.406   2.370  2.0078  0.2870  1.3305
14081TIP3   OH263657   2.940   5.158  14.440 -0.2417 -0.6248  0.2567
14081TIP3    H163658   2.868   5.220  14.433  0.8135  0.6228  0.0514
14081TIP3    H263659   2.938   5.129  14.532 -0.7551 -0.3134  0.3461
14082TIP3   OH263660   4.731   2.028   0.298  0.6199 -0.2600 -0.6822
14082TIP3    H163661   4.654   2.084   0.291  1.5081  1.3107  1.3163
14082TIP3    H263662   4.788   2.057   0.227  0.7602  0.8898 -0.1129
14083TIP3   OH263663   1.904   0.639   3.714 -0.0255  0.3767  0.6317
14083TIP3    H163664   1.845   0.714   3.724  0.7951  0.7913  2.9347
14083TIP3    H263665   1.991   0.673   3.736  0.5001 -1.0500  0.8891
14084TIP3   OH263666   4.622   5.780  14.895 -0.0125  0.7401  0.8958
14084TIP3    H163667   4.581   5.810  14.976  2.5246  2.8717  1.5154
14084TIP3    H263668   4.690   5.719  14.925  0.3523  0.8439  0.2738
14085TIP3   OH263669   4.626   0.954   3.056 -0.3652 -0.3084 -0.1351
14085TIP3    H163670   4.638   0.950   3.151  1.2311 -0.2497 -0.2996
14085TIP3    H263671   4.586   1.040   3.041  0.9584  0.4324  0.3777
14086TIP3   OH263672   4.976   4.843  13.584  0.0182 -0.0682 -0.0135
14086TIP3    H163673   5.032   4.902  13.636 -0.0546 -1.7396  2.1054
14086TIP3    H263674   4.901   4.898  13.559 -0.4789  0.5987  2.6318
14087TIP3   OH263675   4.822   5.526  16.543 -0.4069  0.0334 -0.1450
14087TIP3    H163676   4.735   5.537  16.504 -0.5887 -0.6061  0.0712
14087TIP3    H263677   4.808   5.534  16.637 -0.0849  0.8227 -0.1543
14088TIP3   OH263678   2.558   1.065  11.416 -0.3820 -0.0485 -0.3186
14088TIP3    H163679   2.644   1.093  11.386 -0.2118 -0.0161  0.1805
14088TIP3    H263680   2.561   1.078  11.511 -0.1506 -2.1078  0.0037
14089TIP3   OH263681   4.491   3.199  16.351 -0.6181  0.2723  0.1089
14089TIP3    H163682   4.418   3.141  16.369 -0.1031 -0.0988  1.0794
14089TIP3    H263683   4.484   3.268  16.416 -0.0774  0.1987  0.2519
14090TIP3   OH263684   2.168   0.088  10.212 -0.2487 -0.1196 -0.1644
14090TIP3    H163685   2.238   0.048  10.161 -1.7199 -2.9771 -0.1192
14090TIP3    H263686   2.094   0.027  10.204 -1.1988  0.2697  3.7527
14091TIP3   OH263687   5.074   5.996  14.216  0.7042  0.3689  0.3032
14091TIP3    H163688   4.979   5.998  14.229  0.5582  0.0849 -0.6377
14091TIP3    H263689   5.105   5.926  14.273 -0.0097 -1.3697 -1.3373
14092TIP3   OH263690   0.777   2.548  11.960  0.1975  0.9003  0.4634
14092TIP3    H163691   0.726   2.627  11.982 -1.7324 -0.4625  1.1757
14092TIP3    H263692   0.808   2.516  12.045  0.5685  0.6407  0.2288
14093TIP3   OH263693   1.037   4.095   0.383  0.6563  0.5338 -0.7261
14093TIP3    H163694   1.069   4.117   0.295  2.3388  0.8491 -0.0753
14093TIP3    H263695   1.117   4.082   0.435 -0.3042  0.1141  0.7059
14094TIP3   OH263696   5.351   2.471   4.418 -0.0846  0.4579  0.0586
14094TIP3    H163697   5.388   2.542   4.366  2.2608 -1.2482 -0.7708
14094TIP3    H263698   5.276   2.440   4.366  1.2706 -0.1837 -1.6268
14095TIP3   OH263699   5.119   6.882   2.513 -0.0333  0.3271  0.3979
14095TIP3    H163700   5.090   6.900   2.603 -0.3529 -0.3955  0.4529
14095TIP3    H263701   5.214   6.876   2.520  0.0861  1.8158  0.3889
14096TIP3   OH263702   4.150   1.300  16.235 -0.1903 -0.0462 -0.9044
14096TIP3    H163703   4.220   1.245  16.201  0.2635  0.2112 -0.4065
14096TIP3    H263704   4.115   1.345  16.159  0.9548  0.6905 -1.0226
14097TIP3   OH263705   0.900   5.141   1.434 -0.0989 -0.5419 -0.4861
14097TIP3    H163706   0.814   5.175   1.460  0.9066  0.2460  2.2059
14097TIP3    H263707   0.939   5.210   1.382  0.2531  0.7460  1.3734
14098TIP3   OH263708   6.412   5.804   0.416 -0.3447  0.2619  0.0350
14098TIP3    H163709   6.499   5.770   0.392  0.1388  1.9595 -0.7177
14098TIP3    H263710   6.379   5.740   0.480  0.9814 -1.0075 -0.4843
14099TIP3   OH263711   5.070   2.681   0.879 -0.3721  0.0540 -0.5891
14099TIP3    H163712   5.119   2.763   0.868  0.2335 -0.5151 -2.5566
14099TIP3    H263713   5.113   2.637   0.953 -0.2255  1.1570  0.0015
14100TIP3   OH263714   3.911   0.016   4.137 -0.6973 -0.2586 -0.0668
14100TIP3    H163715   3.953   0.102   4.125  1.4035 -1.1963  0.1855
14100TIP3    H263716   3.851   0.029   4.210  0.0320  0.8612  0.3644
14101TIP3   OH263717   3.804   3.471  11.279  0.6884 -0.3944  0.0448
14101TIP3    H163718   3.883   3.422  11.301  1.8090  1.6731  0.8946
14101TIP3    H263719   3.808   3.481  11.184  0.7379 -1.4111 -0.0725
14102TIP3   OH263720   3.500   4.758  12.592 -0.2083 -0.5328 -0.7313
14102TIP3    H163721   3.527   4.722  12.676 -1.2869  0.3405  0.0187
14102TIP3    H263722   3.531   4.848  12.593 -2.3238  0.2659 -0.1643
14103TIP3   OH263723   1.978   2.379  13.597 -0.2588  0.0459 -0.3568
14103TIP3    H163724   2.026   2.461  13.613  0.9527 -0.9511  1.5320
14103TIP3    H263725   1.996   2.358  13.506  1.8815  0.4291 -0.0836
14104TIP3   OH263726   0.477   1.473  15.161 -0.2031 -0.4339  0.3346
14104TIP3    H163727   0.521   1.463  15.077 -1.0339 -0.3440 -0.1196
14104TIP3    H263728   0.384   1.465  15.141 -0.5139  1.0541  1.0224
14105TIP3   OH263729   2.744   3.840  14.807 -0.0001  0.4179 -0.1015
14105TIP3    H163730   2.758   3.884  14.891 -0.3049 -1.0348  0.7473
14105TIP3    H263731   2.788   3.756  14.817 -1.4335 -0.4511 -0.7783
14106TIP3   OH263732   2.991   4.465   4.466 -0.6473  0.0443  0.1050
14106TIP3    H163733   3.044   4.510   4.531  1.8726 -1.8817 -0.4679
14106TIP3    H263734   3.012   4.372   4.478 -2.3577 -0.6162 -1.5425
14107TIP3   OH263735   3.750   2.945   4.824  0.4167 -0.1124 -0.3092
14107TIP3    H163736   3.712   2.858   4.831  2.1230 -0.9951 -1.2403
14107TIP3    H263737   3.747   2.981   4.913  1.9198 -2.1310  0.6285
14108TIP3   OH263738   2.376   4.301   1.993  0.2393 -0.7933  0.0591
14108TIP3    H163739   2.308   4.248   2.034 -1.5178  2.8272  2.3233
14108TIP3    H263740   2.342   4.321   1.906 -0.4836 -0.9242  0.3017
14109TIP3   OH263741   2.580   2.854  12.942  0.3229  0.1843  0.3400
14109TIP3    H163742   2.516   2.926  12.946  1.4176  1.2811 -0.8215
14109TIP3    H263743   2.548   2.798  12.871 -0.9583 -0.9703  1.7531
14110TIP3   OH263744   5.797   5.986  10.969 -0.5885  0.4120 -0.2185
14110TIP3    H163745   5.734   6.029  10.911 -2.4279  0.2667  1.5423
14110TIP3    H263746   5.764   5.896  10.978 -0.2539  0.3824  0.8625
14111TIP3   OH263747   5.079   6.428  13.151 -0.4204 -0.0524 -0.1826
14111TIP3    H163748   5.098   6.450  13.059  1.2332  0.1155  0.1685
14111TIP3    H263749   5.160   6.448  13.197 -0.2519 -2.7708  0.8840
14112TIP3   OH263750   5.373   2.709  11.803  0.0525  0.0448  0.4575
14112TIP3    H163751   5.310   2.644  11.771  0.7048  1.5142 -4.5792
14112TIP3    H263752   5.458   2.670  11.786  0.4320  1.3326 -0.8036
14113TIP3   OH263753   6.527   6.002  13.603 -0.2382 -0.1921  0.1032
14113TIP3    H163754   6.543   5.917  13.561 -1.0187 -0.6346  0.6741
14113TIP3    H263755   6.544   6.066  13.534  2.5719 -0.6348  0.2357
14114TIP3   OH263756   2.296   6.613   2.460 -0.0719  0.6449  0.2807
14114TIP3    H163757   2.380   6.606   2.505  0.4621 -0.8096 -0.8471
14114TIP3    H263758   2.319   6.620   2.367 -1.1874  0.1910 -0.0504
14115TIP3   OH263759   4.386   5.908   3.530 -0.1495 -0.5016  0.1379
14115TIP3    H163760   4.341   5.843   3.475  1.5911 -0.9661 -0.7965
14115TIP3    H263761   4.462   5.862   3.565 -0.7539  0.0372  2.3261
14116TIP3   OH263762   6.664   5.856   4.074  0.1158  0.3844 -0.2951
14116TIP3    H163763   6.628   5.771   4.097 -0.0008 -0.2076 -2.4549
14116TIP3    H263764   6.759   5.841   4.069 -0.0302 -0.0657 -2.2436
14117TIP3   OH263765   0.908   4.747  15.309  0.9708 -0.3125  0.0676
14117TIP3    H163766   0.885   4.751  15.216  1.4644 -0.6116 -0.0692
14117TIP3    H263767   0.826   4.769  15.354  0.8859  0.4744 -0.4466
14118TIP3   OH263768   4.395   6.441   4.820  0.1729 -0.0375  0.2263
14118TIP3    H163769   4.438   6.490   4.890 -0.7643  1.4363 -0.1983
14118TIP3    H263770   4.463   6.430   4.754  0.6989 -0.3071  0.7993
14119TIP3   OH263771   6.157   3.615   3.730 -0.4520 -0.1208  0.0398
14119TIP3    H163772   6.171   3.578   3.642  1.2668 -2.4009  1.1723
14119TIP3    H263773   6.089   3.682   3.717 -0.1619 -0.2745 -3.0262
14120TIP3   OH263774   0.658   5.094   6.003  0.0790 -0.1942  0.1988
14120TIP3    H163775   0.689   5.022   6.058 -0.9629 -0.5386  0.3519
14120TIP3    H263776   0.578   5.061   5.963 -0.8350  1.1377  0.8550
14121TIP3   OH263777   6.705   4.574  13.841 -0.1380 -0.7231 -0.4605
14121TIP3    H163778   6.688   4.541  13.930 -0.6724  0.2867 -0.1780
14121TIP3    H263779   6.792   4.613  13.847 -0.6213  0.3174 -0.0866
14122TIP3   OH263780   6.266   1.219   1.013 -0.1006  0.1436 -0.2484
14122TIP3    H163781   6.296   1.134   1.044 -1.4046 -0.1642  0.2203
14122TIP3    H263782   6.173   1.207   0.995 -0.1913  1.3373 -0.6575
14123TIP3   OH263783   5.897   1.292  14.824  0.6511 -0.3945  0.0590
14123TIP3    H163784   5.960   1.287  14.896  0.5092 -0.1280  0.2031
14123TIP3    H263785   5.874   1.384  14.818 -1.8962 -0.7918  1.9080
14124TIP3   OH263786   3.832   2.883   3.752  0.2252 -0.1993 -0.0787
14124TIP3    H163787   3.836   2.841   3.838  0.5333 -0.7203 -0.3458
14124TIP3    H263788   3.746   2.925   3.750  1.0825  1.7947  1.3848
14125TIP3   OH263789   1.358   2.273   4.691 -0.2378 -0.5548 -0.0332
14125TIP3    H163790   1.351   2.278   4.595  0.6398  0.0456 -0.0744
14125TIP3    H263791   1.430   2.212   4.706  0.8776  0.7908  0.2052
14126TIP3   OH263792   4.479   4.694   3.872  0.4552  0.2700 -0.1332
14126TIP3    H163793   4.549   4.629   3.884  1.0410  1.1667  1.8557
14126TIP3    H263794   4.403   4.655   3.914 -0.0543 -0.3628 -1.5897
14127TIP3   OH263795   4.444   6.258   0.050  0.2093 -0.0701 -0.7838
14127TIP3    H163796   4.526   6.272   0.004  0.9156 -0.5733  0.2743
14127TIP3    H263797   4.434   6.335   0.106  0.3423 -0.3563 -0.3642
14128TIP3   OH263798   5.055   3.337  14.273 -0.3439  0.1172  0.5366
14128TIP3    H163799   5.003   3.417  14.263  1.9497  1.4215 -2.9083
14128TIP3    H263800   5.137   3.367  14.311  0.4595 -0.5629 -0.5779
14129TIP3   OH263801   3.185   6.482   1.476  0.0183 -0.2056  0.0984
14129TIP3    H163802   3.155   6.471   1.566  0.5047 -0.3113  0.2512
14129TIP3    H263803   3.105   6.476   1.423 -0.2082 -0.6334  0.4823
14130TIP3   OH263804   1.950   5.460   4.849 -0.3841 -0.0571  0.2638
14130TIP3    H163805   2.012   5.520   4.807  0.1301  0.2602  1.4402
14130TIP3    H263806   2.006   5.400   4.899 -1.0191  0.4129  1.5755
14131TIP3   OH263807   0.956   0.534  11.004  0.2947 -0.5473 -0.2402
14131TIP3    H163808   1.020   0.476  10.962 -1.0957 -2.2680 -0.0869
14131TIP3    H263809   0.909   0.573  10.931 -0.3427 -1.4769 -0.3426
14132TIP3   OH263810   2.141   0.784   2.714 -0.1914 -0.3220  0.6545
14132TIP3    H163811   2.054   0.815   2.737 -0.2801  0.0023 -0.0861
14132TIP3    H263812   2.198   0.861   2.724 -0.6247  0.5607 -2.4539
14133TIP3   OH263813   3.675   1.854   4.859 -0.1778  0.2427  0.4843
14133TIP3    H163814   3.758   1.809   4.844 -1.2388 -0.8201 -3.1824
14133TIP3    H263815   3.682   1.935   4.809 -0.2907  1.6701  2.6623
14134TIP3   OH263816   0.147   0.752  15.936 -0.0108 -0.2400  0.0908
14134TIP3    H163817   0.132   0.664  15.972  0.3182 -0.0185  0.7805
14134TIP3    H263818   0.081   0.807  15.979  1.4669  0.3632  1.6973
14135TIP3   OH263819   5.356   3.344   3.410 -0.2458 -0.2623  0.0129
14135TIP3    H163820   5.271   3.357   3.452 -0.9890 -2.3856 -0.7207
14135TIP3    H263821   5.386   3.433   3.390 -2.3194  0.5421  0.2140
14136TIP3   OH263822   5.665   6.234  10.559 -0.2875  0.0395 -0.1987
14136TIP3    H163823   5.669   6.275  10.646 -2.9833  1.2820 -0.5876
14136TIP3    H263824   5.654   6.306  10.498 -2.5241 -1.0291 -1.1683
14137TIP3   OH263825   5.425   0.434   1.530 -0.2967 -0.2088 -0.0644
14137TIP3    H163826   5.374   0.353   1.538  0.4228 -0.5592  1.3338
14137TIP3    H263827   5.368   0.494   1.484 -1.7708 -0.7701  0.9553
14138TIP3   OH263828   5.489   6.129   4.909  0.1433  0.0296  0.3054
14138TIP3    H163829   5.577   6.134   4.873 -0.2420 -1.2208 -0.8697
14138TIP3    H263830   5.490   6.050   4.964 -0.0929  0.3228  0.7373
14139TIP3   OH263831   2.005   1.601   6.121  0.0899 -0.7632  0.2895
14139TIP3    H163832   1.921   1.598   6.168  0.4580 -0.7043  0.9640
14139TIP3    H263833   2.010   1.690   6.087 -0.3174 -0.8935 -0.1268
14140TIP3   OH263834   6.296   4.551  14.051 -0.1129 -0.3789 -0.5288
14140TIP3    H163835   6.304   4.634  14.098 -0.7674 -0.1118 -0.8779
14140TIP3    H263836   6.271   4.488  14.119  0.3199 -0.2801 -0.2741
14141TIP3   OH263837   5.115   5.767   5.088 -0.2473  0.0523  0.1688
14141TIP3    H163838   5.189   5.786   5.145  0.7211  1.2730 -1.4248
14141TIP3    H263839   5.094   5.675   5.107  1.6919 -0.3396  0.6363
14142TIP3   OH263840   3.547   5.170   2.426  0.0276 -0.1102  0.3146
14142TIP3    H163841   3.588   5.155   2.341 -0.6304  3.0970 -0.6925
14142TIP3    H263842   3.454   5.178   2.407  0.0807  2.9314  0.8575
14143TIP3   OH263843   4.137   1.809  13.217  0.2822 -1.0162  0.1781
14143TIP3    H163844   4.151   1.760  13.136  0.8154  0.8559 -0.9044
14143TIP3    H263845   4.084   1.884  13.192 -0.4379 -0.9270  1.7885
14144TIP3   OH263846   5.110   6.481   0.529 -0.4767 -0.7903  0.1520
14144TIP3    H163847   5.203   6.501   0.542 -0.1958 -0.9928 -1.3899
14144TIP3    H263848   5.068   6.511   0.610  0.6190  1.3890 -0.0013
14145TIP3   OH263849   6.353   5.918   2.637  0.8464 -0.2024  0.4657
14145TIP3    H163850   6.389   5.907   2.549  0.2404 -0.4127  0.2385
14145TIP3    H263851   6.375   6.008   2.661  2.3783 -0.6089  0.7295
14146TIP3   OH263852   0.047   4.896  13.311  0.2857 -0.2681  0.3175
14146TIP3    H163853   0.060   4.802  13.310 -1.0115 -0.4720  0.1719
14146TIP3    H263854   0.087   4.927  13.230  0.4834 -0.7302  0.2351
14147TIP3   OH263855   2.477   4.915   0.990 -0.5384  0.1384 -0.0691
14147TIP3    H163856   2.416   4.874   1.051  0.5550 -0.4245  0.6835
14147TIP3    H263857   2.484   5.005   1.020  0.7935 -0.3837  1.3525
14148TIP3   OH263858   5.810   5.930  12.823 -0.3516  0.1323  0.5967
14148TIP3    H163859   5.800   5.846  12.867 -0.1021  0.3453  1.0602
14148TIP3    H263860   5.819   5.907  12.730  0.0399 -0.3716  0.7553
14149TIP3   OH263861   3.461   3.478   1.050 -0.4534  0.1235 -0.5249
14149TIP3    H163862   3.424   3.564   1.027  0.3594  0.8615  0.8063
14149TIP3    H263863   3.472   3.434   0.966 -0.8164  1.3485 -1.2493
14150TIP3   OH263864   5.118   1.064  12.619  0.0996 -0.0141 -0.3798
14150TIP3    H163865   5.093   1.061  12.526 -1.1977 -2.2111 -0.0295
14150TIP3    H263866   5.072   0.991  12.659 -0.3004  1.5478  2.2742
14151TIP3   OH263867   6.670   1.270  12.887 -0.0440 -1.1045  0.3080
14151TIP3    H163868   6.611   1.327  12.837  0.4307 -1.0416 -0.1838
14151TIP3    H263869   6.741   1.328  12.915  0.3902 -1.4323 -0.1085
14152TIP3   OH263870   5.715   2.381   1.436 -0.2818  0.4345  0.0782
14152TIP3    H163871   5.809   2.363   1.433 -0.6994 -2.1699  0.7182
14152TIP3    H263872   5.706   2.465   1.391  2.4544  1.2903  0.9331
14153TIP3   OH263873   2.371   5.238  13.053 -0.1627 -0.5149 -0.1174
14153TIP3    H163874   2.358   5.206  12.964  1.1340  0.6103 -0.7554
14153TIP3    H263875   2.440   5.304  13.045 -2.1451  1.8844  1.2440
14154TIP3   OH263876   1.043   4.194   1.122  0.6227  0.4359 -0.1320
14154TIP3    H163877   0.962   4.208   1.172  2.9924  1.7902  3.7686
14154TIP3    H263878   1.059   4.100   1.129  0.3317  0.4422  0.7393
14155TIP3   OH263879   3.648   1.519   1.593  0.1450  0.6787  0.1008
14155TIP3    H163880   3.591   1.478   1.658 -0.0667 -1.6786 -1.4085
14155TIP3    H263881   3.597   1.591   1.558 -0.9128  0.1488  0.5127
14156TIP3   OH263882   0.670   5.846  11.818  0.1646 -0.0588 -0.0683
14156TIP3    H163883   0.650   5.859  11.911  0.2559 -0.5938  0.0257
14156TIP3    H263884   0.766   5.837  11.816  0.4848  2.5096 -0.5126
14157TIP3   OH263885   3.372   4.856  14.919  0.4075 -0.4076  0.5248
14157TIP3    H163886   3.335   4.769  14.935 -0.7699  0.0173  0.2467
14157TIP3    H263887   3.466   4.841  14.908  0.2442 -1.6168  0.6657
14158TIP3   OH263888   4.017   3.499   4.044  0.0029 -0.2465 -0.3134
14158TIP3    H163889   3.987   3.472   4.131  1.0018  1.3196  0.5622
14158TIP3    H263890   3.961   3.574   4.022 -0.3001 -0.6839 -1.0810
14159TIP3   OH263891   0.369   3.849  12.881  0.0932  0.5011 -0.8328
14159TIP3    H163892   0.387   3.943  12.883  0.6330  0.3977  0.5411
14159TIP3    H263893   0.323   3.831  12.963  0.9522 -0.6063 -0.5682
14160TIP3   OH263894   4.799   2.377   4.397  0.1795  0.1327 -0.4065
14160TIP3    H163895   4.760   2.293   4.422  1.0646 -0.5371 -1.2510
14160TIP3    H263896   4.854   2.401   4.471 -0.0160 -0.0586 -0.1961
14161TIP3   OH263897   2.717   1.337   5.498 -0.0980 -0.3721  0.1459
14161TIP3    H163898   2.798   1.312   5.542  0.5428  2.3008  0.6501
14161TIP3    H263899   2.667   1.255   5.490  2.7697 -2.1840 -0.5442
14162TIP3   OH263900   1.546   3.385  15.315 -0.2453  0.0156  0.2713
14162TIP3    H163901   1.472   3.325  15.320 -0.1000 -0.1547  0.3965
14162TIP3    H263902   1.620   3.335  15.349  0.7436 -1.0895 -3.0428
14163TIP3   OH263903   2.755   3.613  16.591 -0.2762 -0.0462 -0.3110
14163TIP3    H163904   2.767   3.589  16.499  0.5233  1.5506 -0.6420
14163TIP3    H263905   2.796   3.541  16.639 -1.1157 -1.1361 -1.1642
14164TIP3   OH263906   2.230   3.081  14.393  0.0357 -0.4536 -0.1251
14164TIP3    H163907   2.173   3.153  14.366  0.2249 -1.0419 -2.2966
14164TIP3    H263908   2.217   3.074  14.487 -0.9947  1.5336 -0.0633
14165TIP3   OH263909   1.676   2.734  10.932  0.4447  0.0688 -0.3975
14165TIP3    H163910   1.747   2.672  10.917 -0.1490 -0.5743 -0.5780
14165TIP3    H263911   1.659   2.773  10.846 -0.1073 -0.5289 -0.5654
14166TIP3   OH263912   1.478   3.031  11.777  0.3694  1.0617  0.2552
14166TIP3    H163913   1.527   3.106  11.810  1.2975  1.3153 -1.5474
14166TIP3    H263914   1.524   3.007  11.697 -1.4117  0.1520 -0.5390
14167TIP3   OH263915   5.624   0.655   1.584  0.0437  0.1140  0.1948
14167TIP3    H163916   5.577   0.573   1.568 -1.7716  1.0634  0.4418
14167TIP3    H263917   5.615   0.705   1.504 -1.3807  1.2241  0.9969
14168TIP3   OH263918   5.041   0.754  13.216  0.0381 -0.4011  0.5574
14168TIP3    H163919   5.066   0.839  13.252  1.6285 -0.3257 -0.6361
14168TIP3    H263920   5.071   0.691  13.282  2.3653 -0.2236 -0.2300
14169TIP3   OH263921   0.748   1.229  13.277 -0.2586  0.0080  0.4764
14169TIP3    H163922   0.721   1.317  13.250 -2.2655 -0.3028  1.3364
14169TIP3    H263923   0.788   1.241  13.363  1.7694  0.3461 -0.4337
14170TIP3   OH263924   3.548   6.593   5.054 -0.0540 -0.2474 -0.4325
14170TIP3    H163925   3.632   6.615   5.095  0.2632  0.5336 -1.4600
14170TIP3    H263926   3.482   6.622   5.116  0.4315 -0.2715  0.0989
14171TIP3   OH263927   3.156   6.208   3.257  0.1478 -0.0375 -0.3412
14171TIP3    H163928   3.217   6.165   3.317  1.9906  1.0246 -1.3424
14171TIP3    H263929   3.206   6.217   3.176 -1.6037  0.2971 -1.4236
14172TIP3   OH263930   5.001   1.535  12.055  0.6673 -0.0945 -0.3328
14172TIP3    H163931   4.979   1.443  12.039  2.1778 -0.4624 -0.4548
14172TIP3    H263932   4.918   1.575  12.080  0.1081 -1.6796  0.5449
14173TIP3   OH263933   0.746   6.550   0.441  0.0344 -0.6143  0.7414
14173TIP3    H163934   0.747   6.496   0.362 -3.1968  0.3357 -0.0971
14173TIP3    H263935   0.831   6.594   0.441 -0.3095  0.4009 -3.0046
14174TIP3   OH263936   3.076   3.010   0.991 -0.1044 -0.4446  0.5564
14174TIP3    H163937   3.027   3.057   1.058 -0.0195  0.2808  0.1141
14174TIP3    H263938   3.106   2.930   1.036  1.5177  0.8500  1.9643
14175TIP3   OH263939   1.562   6.199  16.407  0.0232  1.4913  0.1955
14175TIP3    H163940   1.476   6.225  16.373 -0.5439 -0.5364 -0.0435
14175TIP3    H263941   1.547   6.184  16.500  0.3247  1.9301  0.3168
14176TIP3   OH263942   2.699   6.590  11.548 -0.3090 -0.2850  0.5621
14176TIP3    H163943   2.661   6.515  11.502  0.9084 -0.3209 -0.4574
14176TIP3    H263944   2.776   6.554  11.592 -0.8148 -0.0105  1.7029
14177TIP3   OH263945   6.301   0.544   0.820 -0.2410  0.0538  0.3676
14177TIP3    H163946   6.274   0.509   0.735  0.8946 -2.1915  0.8524
14177TIP3    H263947   6.304   0.639   0.807 -4.8214  0.2759 -0.6539
14178TIP3   OH263948   2.854   4.390   3.479 -0.1655 -0.4796 -0.1940
14178TIP3    H163949   2.924   4.431   3.428  1.1873 -2.2555  0.1370
14178TIP3    H263950   2.773   4.428   3.444  0.9374  1.7424 -0.5006
14179TIP3   OH263951   0.773   6.783   5.303  0.2265 -0.2404  0.4844
14179TIP3    H163952   0.677   6.785   5.296  0.1727 -1.5786  0.6420
14179TIP3    H263953   0.789   6.757   5.394  0.7313 -0.9051  0.2059
14180TIP3   OH263954   2.483   2.738   4.554 -0.2377  0.4052  0.1574
14180TIP3    H163955   2.445   2.735   4.641 -1.3229  0.6756 -0.2955
14180TIP3    H263956   2.409   2.746   4.495  0.4291 -0.6529 -0.8609
14181TIP3   OH263957   0.575   2.426   3.068 -0.4957 -0.3501 -0.0033
14181TIP3    H163958   0.499   2.367   3.072  1.3123 -2.9332 -1.0325
14181TIP3    H263959   0.642   2.383   3.121  0.7010  1.1846 -0.1996
14182TIP3   OH263960   4.301   6.219   3.441  0.1376 -0.0704  0.8066
14182TIP3    H163961   4.380   6.260   3.405  0.5965 -1.5628  0.0067
14182TIP3    H263962   4.272   6.279   3.509  0.4147  1.8415 -0.6877
14183TIP3   OH263963   6.387   5.984   1.670  0.6938  0.0378 -0.5196
14183TIP3    H163964   6.382   6.048   1.599  1.2261  0.8612  0.1648
14183TIP3    H263965   6.457   6.016   1.727 -2.5607  1.9936  2.8890
14184TIP3   OH263966   5.571   4.680   4.742 -0.1851 -0.1529  0.0319
14184TIP3    H163967   5.641   4.628   4.783 -0.8059 -1.3901 -0.4183
14184TIP3    H263968   5.509   4.614   4.710 -2.3897  0.9258  1.8680
14185TIP3   OH263969   6.376   3.520   1.175 -0.2336  0.4479  0.5737
14185TIP3    H163970   6.408   3.510   1.086 -2.6368  1.9143 -0.5550
14185TIP3    H263971   6.395   3.435   1.217  2.5265  0.3306 -0.7008
14186TIP3   OH263972   2.383   6.156   5.136  0.1275 -0.4411  0.4961
14186TIP3    H163973   2.452   6.118   5.191 -2.2812 -0.6152  3.6717
14186TIP3    H263974   2.319   6.086   5.126 -1.3070  0.7683  0.8326
14187TIP3   OH263975   2.228   1.332   4.302 -1.0296 -0.3612 -0.2741
14187TIP3    H163976   2.268   1.277   4.369 -0.8309 -0.7651 -0.7199
14187TIP3    H263977   2.153   1.373   4.347 -1.6355 -1.5741 -0.1241
14188TIP3   OH263978   6.728   1.389  16.363  0.0100  0.2685  0.1584
14188TIP3    H163979   6.646   1.394  16.412 -0.8642 -1.1640 -1.0624
14188TIP3    H263980   6.770   1.474  16.376 -1.2505  0.7116  1.5198
14189TIP3   OH263981   4.000   4.041   3.587 -0.6254  0.4421  0.0842
14189TIP3    H163982   4.046   4.062   3.506  0.2512 -1.0677  0.1495
14189TIP3    H263983   4.061   4.064   3.657 -0.8572  0.5125  0.2657
14190TIP3   OH263984   2.559   3.870  15.225 -0.3923  0.3450  0.6483
14190TIP3    H163985   2.627   3.907  15.168 -0.7221  0.9023  0.6137
14190TIP3    H263986   2.496   3.940  15.236 -1.2866 -0.3590  0.1852
14191TIP3   OH263987   2.978   3.208  12.843 -0.9052 -0.6604  0.4537
14191TIP3    H163988   2.920   3.266  12.893  0.4840 -0.1414  1.5326
14191TIP3    H263989   2.936   3.122  12.846 -3.4216  0.3506 -1.8385
14192TIP3   OH263990   3.104   4.740  10.838  0.2098 -0.0854 -0.2188
14192TIP3    H163991   3.079   4.830  10.859 -0.3347 -0.4477  0.7874
14192TIP3    H263992   3.172   4.719  10.903 -0.1366 -0.6063 -0.0184
14193TIP3   OH263993   4.620   0.656  15.590  0.5655  0.5647 -0.4430
14193TIP3    H163994   4.683   0.602  15.638 -1.9500 -3.0324 -0.7729
14193TIP3    H263995   4.581   0.712  15.658  1.0886 -0.2770  0.5833
14194TIP3   OH263996   5.586   1.355  12.188  0.2368  0.1605 -0.0171
14194TIP3    H163997   5.629   1.314  12.263 -0.8805 -1.1781 -0.0670
14194TIP3    H263998   5.657   1.401  12.142  0.9291  1.0895  1.8689
14195TIP3   OH263999   2.344   5.792  12.781  0.3939  0.0936  0.0981
14195TIP3    H164000   2.328   5.778  12.875 -0.0635 -1.4412 -0.1846
14195TIP3    H264001   2.438   5.778  12.771  0.4393  0.2268  0.3172
14196TIP3   OH264002   2.494   6.271  16.565  0.0068  0.3700 -0.4506
14196TIP3    H164003   2.410   6.242  16.602  0.0086 -2.0986 -2.1619
14196TIP3    H264004   2.528   6.195  16.519  4.1388  0.6424  1.6478
14197TIP3   OH264005   2.927   1.670  16.099  0.1443  0.0333  0.3854
14197TIP3    H164006   2.858   1.714  16.150 -1.4838 -0.5955 -1.1416
14197TIP3    H264007   2.948   1.592  16.150  0.0873  0.4860  1.1208
14198TIP3   OH264008   3.362   2.898   5.340  0.7071 -0.1597  0.0465
14198TIP3    H164009   3.450   2.899   5.379  0.9781  0.4892 -0.5791
14198TIP3    H264010   3.375   2.924   5.249 -0.1226 -0.1949 -0.0903
14199TIP3   OH264011   2.589   0.053   4.141 -0.5560  1.0095  0.1935
14199TIP3    H164012   2.506   0.010   4.160 -1.9540  2.7748 -1.4530
14199TIP3    H264013   2.622   0.008   4.064  0.2899  0.0010  1.1246
14200TIP3   OH264014   4.568   0.351   4.600  0.1277 -0.2495 -0.2145
14200TIP3    H164015   4.549   0.280   4.662  0.7515 -1.7906 -1.6879
14200TIP3    H264016   4.659   0.335   4.573  0.0403  0.6905 -1.1096
14201TIP3   OH264017   5.964   1.743   1.111 -0.6791  0.0405 -0.3350
14201TIP3    H164018   5.980   1.677   1.044  0.5044  0.8549 -0.8864
14201TIP3    H264019   6.051   1.768   1.142 -0.9773  2.3114 -1.1258
14202TIP3   OH264020   2.230   4.963   3.514 -0.1711  0.3537  0.4195
14202TIP3    H164021   2.293   4.939   3.582  0.3086 -0.4930 -0.3098
14202TIP3    H264022   2.236   5.058   3.509  0.2628  0.3713  1.0998
14203TIP3   OH264023   6.842   0.257  15.510 -0.2758 -1.0886  0.2804
14203TIP3    H164024   6.800   0.333  15.551 -1.3880 -2.3796  1.6474
14203TIP3    H264025   6.925   0.247  15.558 -0.7938 -1.5792  1.0922
14204TIP3   OH264026   4.508   5.210  13.144 -0.3526  0.8758 -0.2922
14204TIP3    H164027   4.530   5.283  13.201 -0.5565 -0.8339  2.1559
14204TIP3    H264028   4.591   5.164  13.131 -0.4349  0.8668 -0.8071
14205TIP3   OH264029   3.492   1.063  11.645 -0.1968  0.0282  0.2609
14205TIP3    H164030   3.413   1.065  11.699  1.5158 -0.1299  3.0091
14205TIP3    H264031   3.507   0.971  11.628 -0.7255  0.0758 -0.4886
14206TIP3   OH264032   1.211   5.919  14.711  0.1232 -0.0995 -0.4623
14206TIP3    H164033   1.211   5.897  14.805 -1.5263  0.1623 -0.3578
14206TIP3    H264034   1.268   5.995  14.704  0.3697 -0.2047  0.3142
14207TIP3   OH264035   0.757   2.807   1.351  0.3109 -0.5381 -0.2743
14207TIP3    H164036   0.827   2.797   1.287  2.2937  0.4398  1.6148
14207TIP3    H264037   0.770   2.736   1.413 -0.3916 -0.3552  0.0959
14208TIP3   OH264038   6.580   0.050   1.150  0.1584  0.6098  0.4157
14208TIP3    H164039   6.634   0.042   1.072 -0.1237  0.7919  0.2009
14208TIP3    H264040   6.511  -0.016   1.139 -0.0211  0.7984  0.3928
14209TIP3   OH264041   1.678   5.364   4.181 -0.1856 -0.2656 -0.2963
14209TIP3    H164042   1.596   5.355   4.133  0.3438  2.4631 -1.9297
14209TIP3    H264043   1.651   5.389   4.269 -1.1182  0.3649 -0.7409
14210TIP3   OH264044   5.731   1.215   2.477 -0.0631 -0.0420  0.3822
14210TIP3    H164045   5.733   1.226   2.382  1.3792 -0.1095  0.3893
14210TIP3    H264046   5.810   1.166   2.498 -1.1584 -1.4424  1.4763
14211TIP3   OH264047   5.162   1.744  16.669 -0.8093  0.1274  0.1515
14211TIP3    H164048   5.201   1.657  16.675 -0.8570  0.1300  0.5426
14211TIP3    H264049   5.218   1.791  16.608 -0.7470 -0.1585 -0.0176
14212TIP3   OH264050   4.101   3.746  14.808 -0.1145  0.2039  0.2609
14212TIP3    H164051   4.121   3.839  14.793  0.1025 -0.1037 -1.4985
14212TIP3    H264052   4.005   3.741  14.804 -0.0692  0.1578 -0.9375
14213TIP3   OH264053   3.527   1.936  16.610 -0.6726 -0.4701  0.6901
14213TIP3    H164054   3.510   1.884  16.531 -0.2950  1.9235 -1.0918
14213TIP3    H264055   3.591   2.001  16.582 -0.9695  0.8426  2.8351
14214TIP3   OH264056   6.646   2.819  12.393  0.2492 -0.1184 -0.0445
14214TIP3    H164057   6.719   2.879  12.408  0.8863 -1.5765  3.8430
14214TIP3    H264058   6.680   2.732  12.415 -1.9940 -1.1867 -0.4427
14215TIP3   OH264059   6.281   6.664   1.413 -0.5428  0.2330 -0.4801
14215TIP3    H164060   6.345   6.713   1.363 -0.2647  0.4231  0.0579
14215TIP3    H264061   6.224   6.625   1.347 -1.3398  2.0226 -0.9240
14216TIP3   OH264062   4.728   4.555   2.706 -0.8780 -0.9732  0.1455
14216TIP3    H164063   4.766   4.470   2.730 -2.7504 -1.5155  1.3578
14216TIP3    H264064   4.772   4.618   2.763 -0.8667 -1.3957  0.6065
14217TIP3   OH264065   1.006   4.214  15.725  0.3365 -0.4073 -0.5937
14217TIP3    H164066   0.974   4.131  15.690  1.6445 -1.7610  1.2341
14217TIP3    H264067   1.076   4.189  15.784  0.2171  1.9707  0.6486
14218TIP3   OH264068   1.155   3.842  12.813  0.8287 -0.4861  0.1756
14218TIP3    H164069   1.068   3.831  12.852 -1.1579  1.7813 -3.0701
14218TIP3    H264070   1.195   3.913  12.863 -1.1783  1.5785 -0.9319
14219TIP3   OH264071   5.318   5.991   2.886 -0.0557  0.0897  0.7592
14219TIP3    H164072   5.265   5.962   2.960 -0.9698  0.7736  0.3896
14219TIP3    H264073   5.274   6.069   2.854  1.9973  1.5578  1.3498
14220TIP3   OH264074   5.014   2.818   0.382  0.1749 -0.3395  0.3689
14220TIP3    H164075   4.925   2.792   0.357  0.3707  0.4505 -1.2246
14220TIP3    H264076   5.033   2.763   0.458 -1.5351 -0.7875  0.5361
14221TIP3   OH264077   1.379   2.235   4.360 -0.2796 -0.2936  0.4641
14221TIP3    H164078   1.325   2.179   4.305  0.2073 -0.1831 -0.1421
14221TIP3    H264079   1.463   2.189   4.366  0.2431  0.5043 -0.3207
14222TIP3   OH264080   6.230   5.582  16.568 -0.4149 -0.2752 -0.1878
14222TIP3    H164081   6.193   5.558  16.483  2.8130 -0.7640 -1.6038
14222TIP3    H264082   6.274   5.503  16.598  0.4201  0.5492  0.8215
14223TIP3   OH264083   2.414   0.672  15.476  0.0171  0.0456 -0.4130
14223TIP3    H164084   2.436   0.702  15.564  1.6195  0.9286 -1.0783
14223TIP3    H264085   2.477   0.716  15.419 -0.1883 -1.4624 -1.8781
14224TIP3   OH264086   6.881   1.423  12.986  0.1635  0.3526 -0.5532
14224TIP3    H164087   6.920   1.426  12.898  2.2077 -2.4474  0.1228
14224TIP3    H264088   6.938   1.478  13.039  1.4234 -1.1735 -0.2353
14225TIP3   OH264089   2.326   6.386   3.447 -0.5050 -0.2157 -0.2976
14225TIP3    H164090   2.343   6.467   3.495 -0.7171 -0.7436  0.7065
14225TIP3    H264091   2.230   6.377   3.448 -0.4423 -1.0301  0.5890
14226TIP3   OH264092   3.132   1.037  13.230 -0.0635 -0.2236  0.3793
14226TIP3    H164093   3.218   1.066  13.262 -0.2132 -1.3406  1.9054
14226TIP3    H264094   3.153   0.978  13.158  0.5067 -1.1530  1.2866
14227TIP3   OH264095   6.643   1.970  12.970 -0.0576 -0.1844  0.6181
14227TIP3    H164096   6.709   1.976  12.901 -1.2401  1.8513 -0.4609
14227TIP3    H264097   6.603   1.884  12.957  1.3426 -0.8173  0.3292
14228TIP3   OH264098   0.198   6.810  14.511 -0.6803 -0.6220  0.0611
14228TIP3    H164099   0.109   6.839  14.493 -0.1879  0.7767 -0.2350
14228TIP3    H264100   0.252   6.862  14.451  0.6432  1.0383  2.5549
14229TIP3   OH264101   3.783   1.873  13.452  0.2685  0.0396  0.8669
14229TIP3    H164102   3.747   1.832  13.531  1.8091 -1.7007  0.7474
14229TIP3    H264103   3.868   1.907  13.479  0.6318 -0.2074  0.0735
14230TIP3   OH264104   1.578   6.107   5.307  0.0097 -0.3619  0.0982
14230TIP3    H164105   1.625   6.039   5.356  0.3589  0.4531  0.9065
14230TIP3    H264106   1.629   6.118   5.227  0.3612 -0.5257  0.2988
14231TIP3   OH264107   2.143   5.973  14.549  0.3089 -0.2994  0.4263
14231TIP3    H164108   2.208   6.031  14.509  2.7194 -3.6665 -1.0877
14231TIP3    H264109   2.177   5.955  14.636 -0.1720  0.1641  0.7134
14232TIP3   OH264110   1.063   6.720  12.798 -0.2199  0.6554  0.0030
14232TIP3    H164111   1.156   6.735  12.779 -0.1216  0.4080  0.2780
14232TIP3    H264112   1.027   6.686  12.716 -0.1053  0.9032 -0.1535
14233TIP3   OH264113   5.546   3.845   2.322 -0.5121  0.1557 -0.1737
14233TIP3    H164114   5.495   3.769   2.293  0.7862 -0.5350 -0.7149
14233TIP3    H264115   5.540   3.907   2.250 -0.8706  0.2327 -0.0830
14234TIP3   OH264116   1.545   6.485  14.172 -0.5000 -0.5612  0.7363
14234TIP3    H164117   1.486   6.558  14.152 -0.3107 -0.4130  0.7147
14234TIP3    H264118   1.596   6.472  14.092 -1.2427 -1.3965  0.3778
14235TIP3   OH264119   5.536   1.786  16.103  0.3261  0.2378  0.2314
14235TIP3    H164120   5.616   1.765  16.151  0.2006  0.7756  0.6818
14235TIP3    H264121   5.547   1.743  16.018  0.3989 -1.0115  0.8502
14236TIP3   OH264122   2.826   1.857  14.082 -0.0247  0.2479 -0.1919
14236TIP3    H164123   2.804   1.773  14.123  0.4704 -0.1463 -0.7005
14236TIP3    H264124   2.845   1.834  13.990 -1.5908  1.1771 -0.7788
14237TIP3   OH264125   5.193   1.807  14.397 -0.2771  0.5590  0.0891
14237TIP3    H164126   5.197   1.748  14.322 -1.2396  0.3917  0.1491
14237TIP3    H264127   5.212   1.752  14.472  0.4461  0.6746 -0.0090
14238TIP3   OH264128   4.131   3.816  13.556  0.5286  0.1399 -0.8904
14238TIP3    H164129   4.113   3.722  13.562 -0.1866  0.2599 -1.0770
14238TIP3    H264130   4.131   3.846  13.647  0.7239 -0.0327 -0.8322
14239TIP3   OH264131   1.028   5.548  11.040  0.0816 -0.6442  0.3938
14239TIP3    H164132   1.104   5.554  10.982  0.1825  0.0621  0.5812
14239TIP3    H264133   0.958   5.593  10.994 -0.7818 -2.8895 -0.5958
14240TIP3   OH264134   4.307   1.829   0.344  0.2514  0.1012  0.2714
14240TIP3    H164135   4.344   1.838   0.256  0.0569  0.5373  0.2345
14240TIP3    H264136   4.212   1.837   0.331  0.3179  2.2862  0.7727
14241TIP3   OH264137   4.930   4.527   4.099  0.6414 -0.1051 -0.0098
14241TIP3    H164138   4.964   4.457   4.156  0.1158 -2.2907 -2.2079
14241TIP3    H264139   4.967   4.607   4.136  1.2346 -1.4867  2.6997
14242TIP3   OH264140   6.001   1.857   0.697  0.4552  0.3880 -0.3799
14242TIP3    H164141   5.992   1.780   0.751  1.4951 -0.1210 -0.8928
14242TIP3    H264142   6.075   1.905   0.735  1.1312  0.0756 -1.2537
14243TIP3   OH264143   0.307   3.969  11.184 -0.0889  0.7175 -0.2982
14243TIP3    H164144   0.320   3.896  11.245 -0.8391 -0.4073 -1.4470
14243TIP3    H264145   0.264   4.037  11.236 -0.2821 -0.0389  0.5432
14244TIP3   OH264146   3.191   4.716  15.605 -0.0324 -0.3271 -0.1848
14244TIP3    H164147   3.273   4.686  15.644  0.8218 -0.3029 -1.8587
14244TIP3    H264148   3.190   4.811  15.619 -0.4422 -0.4983  1.0025
14245TIP3   OH264149   5.103   4.696   2.010 -0.3278 -0.5466  0.1821
14245TIP3    H164150   5.083   4.688   2.103  0.6913 -2.2238  0.3134
14245TIP3    H264151   5.027   4.658   1.965  0.1685 -1.9578  0.4651
14246TIP3   OH264152   3.989   1.261   9.957 -0.1850 -0.1366  0.1612
14246TIP3    H164153   4.051   1.264   9.885 -1.0481 -2.5318 -0.7973
14246TIP3    H264154   4.038   1.219  10.029 -0.1753 -0.4410 -0.0212
14247TIP3   OH264155   0.008   1.575  15.368  0.4228 -0.3317  0.5161
14247TIP3    H164156   0.008   1.549  15.460  1.4449 -1.7015  0.1509
14247TIP3    H264157   0.082   1.635  15.360  1.3247 -1.4635  0.2652
14248TIP3   OH264158   2.386   4.230  11.858  0.0960 -0.0384  0.2057
14248TIP3    H164159   2.419   4.301  11.913  1.6882 -1.4327  1.1630
14248TIP3    H264160   2.461   4.172  11.846 -1.5583 -2.5252  1.0654
14249TIP3   OH264161   2.370   2.392  13.025 -0.2088  0.1437  0.5032
14249TIP3    H164162   2.460   2.391  13.059  0.0125  0.0674 -0.0677
14249TIP3    H264163   2.346   2.299  13.020  0.2293  0.0672 -0.7229
14250TIP3   OH264164   6.047   4.850  12.915 -0.0648  0.0902  0.5334
14250TIP3    H164165   5.993   4.780  12.952  0.1575  0.2064  1.0859
14250TIP3    H264166   5.985   4.913  12.880 -0.2695 -0.8863 -0.9461
14251TIP3   OH264167   5.728   6.054   3.884  0.4872  0.0040  0.2354
14251TIP3    H164168   5.639   6.067   3.919  0.4118 -0.9731  0.4446
14251TIP3    H264169   5.713   6.020   3.796  0.6085 -1.5413  0.7750
14252TIP3   OH264170   5.916   1.994  10.871  0.2819  0.2977 -0.6772
14252TIP3    H164171   5.832   2.013  10.911  1.5816 -0.3735  2.6994
14252TIP3    H264172   5.978   1.993  10.944  3.2248  0.5885 -2.9753
14253TIP3   OH264173   6.553   1.664  15.456  0.1253  0.0858 -0.0796
14253TIP3    H164174   6.559   1.629  15.367 -0.6946  1.2973 -0.6472
14253TIP3    H264175   6.508   1.748  15.445 -3.4971 -1.3601  1.8451
14254TIP3   OH264176   0.633   4.108   1.536  0.4065  0.3783  0.1115
14254TIP3    H164177   0.689   4.185   1.533  1.6400 -0.5140 -1.0422
14254TIP3    H264178   0.652   4.061   1.455 -1.0812 -0.6251  0.3026
14255TIP3   OH264179   4.155   4.546   5.060 -0.3845  0.8372  0.4037
14255TIP3    H164180   4.094   4.605   5.016  2.3346  1.5998 -2.8336
14255TIP3    H264181   4.241   4.584   5.042  1.3194 -2.3464  1.0646
14256TIP3   OH264182   0.677   0.003   4.131 -0.0620  0.3904  0.4378
14256TIP3    H164183   0.761   0.003   4.178 -0.6694  2.2214  1.6876
14256TIP3    H264184   0.701   0.003   4.039  1.3879  1.7559  0.7578
14257TIP3   OH264185   3.311   0.585   5.051 -0.1129  0.4098  0.5078
14257TIP3    H164186   3.332   0.504   5.004 -1.2141  0.1035  0.5116
14257TIP3    H264187   3.365   0.580   5.131 -0.2514 -0.3756  0.5624
14258TIP3   OH264188   6.893   3.521  16.615  0.0461 -0.3045  0.1850
14258TIP3    H164189   6.966   3.570  16.652  0.8852 -0.4707 -1.1719
14258TIP3    H264190   6.849   3.583  16.557  0.0709 -0.6491 -0.2111
14259TIP3   OH264191   5.561   6.789   1.487 -0.3716 -0.2418  0.5315
14259TIP3    H164192   5.583   6.704   1.526  1.2547 -1.9291 -3.4915
14259TIP3    H264193   5.470   6.780   1.459 -0.4850 -0.2993  0.9128
14260TIP3   OH264194   1.835   6.321  13.154 -0.0097 -0.1080 -0.3152
14260TIP3    H164195   1.766   6.309  13.089 -0.3323  0.2862 -0.0552
14260TIP3    H264196   1.799   6.387  13.214  1.2028  1.3082 -1.0638
14261TIP3   OH264197   5.091   3.477  13.130  0.5600  0.2384 -0.0746
14261TIP3    H164198   5.161   3.417  13.107  1.6746  0.7121  1.8298
14261TIP3    H264199   5.119   3.562  13.096  0.5034  0.2721 -0.0381
14262TIP3   OH264200   4.702   1.770  15.961 -0.1869 -0.1220  0.1428
14262TIP3    H164201   4.711   1.740  16.052 -2.3424  0.4774  0.6177
14262TIP3    H264202   4.689   1.864  15.968  0.6225  0.0755 -0.8841
14263TIP3   OH264203   4.287   0.794  14.656  0.3253 -0.1389 -0.0881
14263TIP3    H164204   4.363   0.842  14.689  0.0078  0.9614 -0.8964
14263TIP3    H264205   4.322   0.711  14.624  1.4804  1.0483 -2.0438
14264TIP3   OH264206   0.966   5.453  11.880  0.0016 -0.5197  0.4016
14264TIP3    H164207   0.980   5.466  11.974 -0.5913  0.3921  0.3749
14264TIP3    H264208   1.051   5.425  11.847  0.3558 -0.3143  1.1244
14265TIP3   OH264209   2.756   5.916  13.771 -0.0307 -0.2870  0.3049
14265TIP3    H164210   2.788   5.832  13.738 -1.6969 -0.8830  0.0991
14265TIP3    H264211   2.775   5.978  13.700 -3.1435 -1.4570 -1.7797
14266TIP3   OH264212   3.661   5.553  15.624  0.0535 -0.4666  0.1407
14266TIP3    H164213   3.606   5.613  15.573  0.9558 -0.2172 -0.5664
14266TIP3    H264214   3.722   5.516  15.560  0.0896 -1.4633  0.7381
14267TIP3   OH264215   3.707   4.203   4.307  0.3431  0.0117 -0.0370
14267TIP3    H164216   3.644   4.275   4.312  0.2953 -0.1029  1.9438
14267TIP3    H264217   3.770   4.222   4.377  1.9757 -0.3824 -1.3562
14268TIP3   OH264218   1.696   1.881  14.852  0.1468 -0.5550 -0.8928
14268TIP3    H164219   1.738   1.795  14.860 -0.4577 -0.8940 -1.3231
14268TIP3    H264220   1.702   1.903  14.760 -0.5535 -0.5799 -0.9521
14269TIP3   OH264221   5.033   5.211  15.225 -0.1149 -0.0827  0.2321
14269TIP3    H164222   5.026   5.196  15.131  0.5735  0.7440  0.0412
14269TIP3    H264223   5.119   5.251  15.237 -0.5291  0.5750  1.1169
14270TIP3   OH264224   5.491   6.677  11.158 -0.0188 -0.4668 -0.5927
14270TIP3    H164225   5.547   6.752  11.136  0.5271 -0.5755  0.3495
14270TIP3    H264226   5.407   6.696  11.116  0.5729 -0.0681 -1.6417
14271TIP3   OH264227   0.094   0.564  14.216  0.7051  0.2646 -0.0540
14271TIP3    H164228   0.123   0.654  14.201  0.5395  0.3073 -0.1189
14271TIP3    H264229   0.005   0.572  14.250  1.5411  0.2257  2.3251
14272TIP3   OH264230   0.614   6.685  13.614 -0.6419 -0.0201  0.1491
14272TIP3    H164231   0.545   6.652  13.557 -0.8747 -0.9859  0.9528
14272TIP3    H264232   0.577   6.764  13.653 -0.5056  0.6045 -0.9561
14273TIP3   OH264233   1.350   0.848  14.468  0.1167  0.0563  0.4256
14273TIP3    H164234   1.289   0.912  14.506  0.4318  0.8813 -0.4150
14273TIP3    H264235   1.423   0.845  14.531  0.2068  0.7126  0.3636
14274TIP3   OH264236   3.258   0.026  12.629 -0.3838 -0.2551  0.3088
14274TIP3    H164237   3.251  -0.062  12.591 -0.0261 -0.4216  0.6262
14274TIP3    H264238   3.290   0.080  12.556 -0.2806 -0.4547  0.2027
14275TIP3   OH264239   5.336   6.161   3.518 -0.1853  0.0313  0.0380
14275TIP3    H164240   5.285   6.101   3.463  0.4553  0.9865 -1.6983
14275TIP3    H264241   5.287   6.244   3.514  0.7571  0.5834 -0.5486
14276TIP3   OH264242   3.537   2.219   6.306 -0.0746 -0.2444 -0.1080
14276TIP3    H164243   3.539   2.299   6.358  1.1770 -0.0757 -0.3844
14276TIP3    H264244   3.447   2.213   6.275 -0.7150 -0.0526  1.5942
14277TIP3   OH264245   5.007   4.746  12.417 -0.3086  0.5923 -0.3978
14277TIP3    H164246   4.963   4.829  12.402 -1.8625 -0.2771 -0.8909
14277TIP3    H264247   4.972   4.716  12.501  1.6447  1.2698  0.7152
14278TIP3   OH264248   1.715   5.983  16.316 -0.0242 -0.0748 -0.2423
14278TIP3    H164249   1.670   6.060  16.352 -1.2119 -1.7097  1.9850
14278TIP3    H264250   1.794   5.974  16.369  0.9210  0.4446 -1.5107
14279TIP3   OH264251   0.148   1.130  13.790 -0.3351 -0.5348 -0.2056
14279TIP3    H164252   0.057   1.130  13.760  0.8375 -0.2150 -4.2437
14279TIP3    H264253   0.185   1.211  13.756  2.1534 -1.9584 -1.1885
14280TIP3   OH264254   0.741   1.175   2.519  0.2641 -0.3597  0.1781
14280TIP3    H164255   0.697   1.125   2.588  0.5941 -0.1419  0.5513
14280TIP3    H264256   0.779   1.250   2.564 -0.6963  0.5344 -0.4722
14281TIP3   OH264257   3.652   6.453   2.119 -0.0990 -0.6650  0.1710
14281TIP3    H164258   3.608   6.480   2.038  0.5692  0.4974  0.1703
14281TIP3    H264259   3.717   6.522   2.134 -1.3744  0.1134  2.6496
14282TIP3   OH264260   0.695   3.221   3.679  0.3454  0.3194  0.6089
14282TIP3    H164261   0.626   3.228   3.614 -0.0868  1.3494  1.1574
14282TIP3    H264262   0.653   3.245   3.762  1.5076  1.6471  0.8541
14283TIP3   OH264263   6.445   3.030   4.436  0.2149 -0.1327 -0.5878
14283TIP3    H164264   6.479   3.105   4.386  1.9972 -1.1612 -1.0144
14283TIP3    H264265   6.372   2.997   4.384 -1.1458  1.7404  0.0014
14284TIP3   OH264266   2.974   1.271  12.148  0.0084 -0.0023  0.7507
14284TIP3    H164267   2.956   1.354  12.104  0.1390  0.4490  1.5417
14284TIP3    H264268   2.954   1.287  12.240  0.3662 -0.7514  0.9698
14285TIP3   OH264269   0.877   3.988  15.617  0.3560 -0.1698 -0.4180
14285TIP3    H164270   0.829   3.968  15.536  1.3790 -0.9159 -0.8594
14285TIP3    H264271   0.945   3.921  15.621  0.1403 -0.3210  1.2247
14286TIP3   OH264272   6.485   3.509  15.859  0.6746 -0.1566 -0.1630
14286TIP3    H164273   6.443   3.595  15.857  0.0367 -0.4559  0.2960
14286TIP3    H264274   6.558   3.517  15.798 -0.8626 -0.0609 -2.0941
14287TIP3   OH264275   6.192   0.856   2.601  0.0609 -0.3815 -0.4765
14287TIP3    H164276   6.113   0.803   2.585  0.7777 -1.2553 -1.2816
14287TIP3    H264277   6.170   0.910   2.677 -0.5607 -2.1984  0.7171
14288TIP3   OH264278   4.676   4.746  13.732  0.1442  0.7798 -0.0710
14288TIP3    H164279   4.679   4.838  13.707  0.3292  1.0607  0.9149
14288TIP3    H264280   4.744   4.738  13.799 -0.9042  0.2911  0.9688
14289TIP3   OH264281   2.170   2.423  12.644  0.0483  0.2061 -0.1713
14289TIP3    H164282   2.243   2.392  12.590  0.0153  1.4515 -0.9723
14289TIP3    H264283   2.104   2.452  12.582 -1.1320 -0.8045  0.5448
14290TIP3   OH264284   3.997   6.655  16.451  0.4627 -0.5186  0.0894
14290TIP3    H164285   3.914   6.686  16.487  0.7651 -0.9033  1.1614
14290TIP3    H264286   3.981   6.564  16.428  1.1238 -1.2223  2.2166
14291TIP3   OH264287   4.520   1.992  12.943 -0.2800 -0.7778  0.7262
14291TIP3    H164288   4.509   2.007  12.849 -1.7937 -3.1637  0.4397
14291TIP3    H264289   4.611   2.016  12.961  0.4902 -1.6364 -1.6543
14292TIP3   OH264290   2.717   4.030  12.454 -0.0463  0.0256  0.4318
14292TIP3    H164291   2.764   3.957  12.413  1.7204  1.3598 -0.0244
14292TIP3    H264292   2.644   4.048  12.395  2.1150  1.5301 -1.9848
14293TIP3   OH264293   2.319   6.842   3.722  0.2489 -0.1810  0.0263
14293TIP3    H164294   2.338   6.928   3.759  1.0419 -1.3183  2.4501
14293TIP3    H264295   2.400   6.817   3.676  1.2931 -0.9791  2.1775
14294TIP3   OH264296   1.161   4.226  11.865  0.1028 -0.1211  0.2906
14294TIP3    H164297   1.210   4.164  11.811  1.3648 -0.4511  1.7672
14294TIP3    H264298   1.184   4.312  11.830  1.1474 -0.3107  0.4908
14295TIP3   OH264299   6.486   4.081  10.818  0.7657  0.2775 -0.1100
14295TIP3    H164300   6.435   4.040  10.889 -1.3930  0.7827 -1.2821
14295TIP3    H264301   6.543   4.011  10.787  0.1078 -0.6328  0.6516
14296TIP3   OH264302   3.748   0.417  16.031 -0.7250  0.1973 -0.4371
14296TIP3    H164303   3.662   0.396  16.068 -1.5862  1.1913 -1.7579
14296TIP3    H264304   3.767   0.505  16.062  0.1873 -0.2884  0.4407
14297TIP3   OH264305   3.297   4.812   5.592 -0.4018  0.9232 -0.6199
14297TIP3    H164306   3.229   4.858   5.641 -0.5594  1.3140 -1.2035
14297TIP3    H264307   3.310   4.864   5.513  1.0427  1.2227 -0.2157
14298TIP3   OH264308   3.991   3.667   2.592  0.1795  0.0074  0.3675
14298TIP3    H164309   4.042   3.606   2.645 -0.1192  1.2543  2.1798
14298TIP3    H264310   3.902   3.631   2.595  0.6650 -1.5895 -1.9203
14299TIP3   OH264311   1.800   6.768  15.870  0.5058 -0.1497 -0.0802
14299TIP3    H164312   1.818   6.851  15.825  0.9828  0.2304  0.7867
14299TIP3    H264313   1.728   6.730  15.821  0.7568  0.4416 -0.9257
14300TIP3   OH264314   3.218   4.317  14.198  0.0423  0.0676  0.2306
14300TIP3    H164315   3.144   4.377  14.208 -0.2787 -0.2290 -0.3071
14300TIP3    H264316   3.229   4.308  14.103 -0.4072 -1.3086  0.2787
14301TIP3   OH264317   3.345   0.798   3.135  0.2359  0.0906  0.0287
14301TIP3    H164318   3.274   0.822   3.194 -0.5871 -0.2362 -0.8107
14301TIP3    H264319   3.303   0.786   3.050  1.3725  0.4023 -0.6038
14302TIP3   OH264320   2.989   5.258  10.884  0.6722 -0.2918 -0.0196
14302TIP3    H164321   3.043   5.244  10.807 -1.1434  0.1020 -1.4490
14302TIP3    H264322   2.989   5.353  10.897 -0.7200 -0.1385 -0.8962
14303TIP3   OH264323   3.945   1.461   4.176  0.1799  0.3936 -0.5479
14303TIP3    H164324   3.977   1.377   4.144  0.1586 -0.6663  1.9830
14303TIP3    H264325   3.858   1.442   4.211 -0.3325  1.7502 -0.9997
14304TIP3   OH264326   0.765   3.852  14.371  0.0854  0.0911  0.5042
14304TIP3    H164327   0.732   3.764  14.353 -0.8676  0.2447  1.3745
14304TIP3    H264328   0.805   3.881  14.289  1.4363 -1.5853  0.5244
14305TIP3   OH264329   5.722   3.329   3.968  0.1237  0.0411 -0.3264
14305TIP3    H164330   5.763   3.398   4.021 -0.6427  0.8307 -0.7452
14305TIP3    H264331   5.630   3.352   3.965 -0.1089 -0.8767 -0.6907
14306TIP3   OH264332   0.819   5.842   3.693 -0.5786 -0.2142 -0.5201
14306TIP3    H164333   0.749   5.905   3.677  0.1306  0.8901  0.5951
14306TIP3    H264334   0.887   5.865   3.630 -0.2337  0.2645  0.0298
14307TIP3   OH264335   2.285   4.105   0.424  0.2636  0.4840 -0.0032
14307TIP3    H164336   2.306   4.064   0.508  0.9750  2.6042  0.9107
14307TIP3    H264337   2.198   4.143   0.436  0.2818  0.6228 -0.2873
14308TIP3   OH264338   1.881   1.673   3.239  0.4054  0.8588  0.1016
14308TIP3    H164339   1.965   1.627   3.239 -0.2065 -0.3675  2.1335
14308TIP3    H264340   1.895   1.747   3.298  0.0880  0.6815  0.4025
14309TIP3   OH264341   0.107   1.696  11.104 -0.3793  0.6700 -0.5271
14309TIP3    H164342   0.108   1.678  11.198  1.5447 -2.1005 -0.9339
14309TIP3    H264343   0.180   1.756  11.090 -0.6840  1.1048 -0.2637
14310TIP3   OH264344   1.861   6.804  13.662  0.4563  0.0069 -0.0345
14310TIP3    H164345   1.776   6.798  13.619 -0.0914 -0.9890  1.1193
14310TIP3    H264346   1.910   6.867  13.609 -0.4971 -0.4455 -1.5272
14311TIP3   OH264347   2.923   4.328  15.479 -0.2756  0.2505  0.3256
14311TIP3    H164348   2.857   4.386  15.441 -0.6175 -0.2161  0.2042
14311TIP3    H264349   2.904   4.242  15.442  2.0859  0.5685 -1.9330
14312TIP3   OH264350   4.330   4.919   5.034 -0.0768 -0.0682 -0.2510
14312TIP3    H164351   4.345   5.012   5.050  1.0840 -0.3149  0.2593
14312TIP3    H264352   4.254   4.896   5.087  0.6344  0.2440  0.9394
14313TIP3   OH264353   6.575   2.196   2.390  0.6676  0.1471  0.2438
14313TIP3    H164354   6.532   2.272   2.350  1.1260  0.2697 -0.0167
14313TIP3    H264355   6.573   2.215   2.484  1.4103  0.8226  0.1316
14314TIP3   OH264356   6.729   5.854  16.678  0.7029  0.0706  0.0641
14314TIP3    H164357   6.803   5.814  16.722  1.7973  0.0347 -1.6906
14314TIP3    H264358   6.706   5.930  16.732  0.7664 -0.9968  1.6253
14315TIP3   OH264359   4.985   5.969   2.912  0.1135 -0.3675 -0.3831
14315TIP3    H164360   4.967   6.056   2.947  1.9294  0.1625 -0.6404
14315TIP3    H264361   5.029   5.986   2.828 -1.5351 -1.5726 -1.5580
14316TIP3   OH264362   2.467   4.475   4.642 -0.4357  0.3412 -0.2345
14316TIP3    H164363   2.481   4.521   4.560 -0.9304 -0.0009 -0.5132
14316TIP3    H264364   2.485   4.540   4.710 -3.5062  1.6892 -0.5884
14317TIP3   OH264365   3.086   3.062   1.294 -0.0919  0.1263 -0.4922
14317TIP3    H164366   3.113   2.973   1.315 -2.5775 -0.6964 -0.4360
14317TIP3    H264367   3.125   3.116   1.363 -0.4755 -1.2496  0.8590
14318TIP3   OH264368   4.563   3.462  12.502 -0.5909  0.2093 -0.4483
14318TIP3    H164369   4.593   3.534  12.557  0.7423 -0.4245 -0.2935
14318TIP3    H264370   4.642   3.432  12.457 -1.3998 -0.1927 -1.6534
14319TIP3   OH264371   1.589   5.796   3.885  0.3984 -0.3555  0.7230
14319TIP3    H164372   1.644   5.873   3.870  0.6795 -0.8284 -0.8623
14319TIP3    H264373   1.598   5.778   3.979  0.8518  1.1345  0.9921
14320TIP3   OH264374   4.278   0.090   1.307  0.2764  0.3021  0.4774
14320TIP3    H164375   4.210   0.143   1.347 -1.1914 -1.5585  0.5442
14320TIP3    H264376   4.323   0.048   1.380  1.2780  1.2122  0.4113
14321TIP3   OH264377   1.324   4.029   1.669  0.2226  0.7283 -0.5983
14321TIP3    H164378   1.292   3.965   1.606 -0.1176 -1.3453  1.5680
14321TIP3    H264379   1.247   4.051   1.722  0.6564  1.9103 -0.4172
14322TIP3   OH264380   0.263   2.765   1.813 -0.3932  0.9234  0.4760
14322TIP3    H164381   0.349   2.762   1.772  0.1373  0.6751  1.5869
14322TIP3    H264382   0.205   2.797   1.744  0.5885  1.1206 -0.2766
14323TIP3   OH264383   3.207   5.336   0.733  0.7723 -0.0905 -0.5565
14323TIP3    H164384   3.237   5.424   0.755  2.1114 -0.8517  0.8435
14323TIP3    H264385   3.232   5.325   0.641 -0.1629  1.2629 -0.9969
14324TIP3   OH264386   1.577   3.438   4.227 -0.3109  0.5722  0.6109
14324TIP3    H164387   1.634   3.371   4.267 -0.9302 -0.4616 -0.1706
14324TIP3    H264388   1.620   3.458   4.144 -1.4837 -0.8624 -0.3933
14325TIP3   OH264389   2.153   5.897   2.197  0.0217 -0.2565  0.2551
14325TIP3    H164390   2.124   5.985   2.173  1.0199  0.6252  2.1178
14325TIP3    H264391   2.073   5.846   2.200 -0.7114  0.8488  0.2229
14326TIP3   OH264392   2.477   4.763  14.486  0.4150 -0.0432  0.1431
14326TIP3    H164393   2.383   4.760  14.467  0.2943  0.1712  0.6749
14326TIP3    H264394   2.514   4.690  14.437  0.0986  0.4062 -0.7806
14327TIP3   OH264395   2.125   6.591  14.570  0.3946  0.0135 -0.4006
14327TIP3    H164396   2.116   6.523  14.636  1.0846  0.2687 -0.0254
14327TIP3    H264397   2.206   6.637  14.594 -0.0384  0.9429 -0.6622
14328TIP3   OH264398   3.155   1.159  16.077  0.2078 -0.0301  0.0849
14328TIP3    H164399   3.210   1.216  16.022 -0.4005 -1.0234 -1.6236
14328TIP3    H264400   3.066   1.192  16.063 -0.0856 -1.0360 -0.5100
14329TIP3   OH264401   4.023   6.287  14.427 -0.3598  0.2238  0.3319
14329TIP3    H164402   3.967   6.262  14.499  0.2683 -0.7141  0.5050
14329TIP3    H264403   3.963   6.324  14.361 -1.4767 -2.5281 -0.3216
14330TIP3   OH264404   4.623   6.397  11.941  0.0549  0.1269  0.5037
14330TIP3    H164405   4.702   6.410  11.888  0.1661 -0.3327  0.5478
14330TIP3    H264406   4.651   6.340  12.012 -0.0336  0.9491  1.2112
14331TIP3   OH264407   1.736   0.176  14.565 -0.0860  0.1660  0.0232
14331TIP3    H164408   1.794   0.243  14.530 -0.5421  1.2401  1.2258
14331TIP3    H264409   1.654   0.187  14.517  0.1513 -0.1913 -0.4644
14332TIP3   OH264410   1.817   4.309  14.281  0.3860  0.0356 -0.4163
14332TIP3    H164411   1.750   4.372  14.307  0.0385 -0.0192 -1.1420
14332TIP3    H264412   1.775   4.257  14.212  1.2806  0.2364 -1.1397
14333TIP3   OH264413   0.451   1.983  13.950  0.0827 -0.5400 -0.1515
14333TIP3    H164414   0.505   2.059  13.972 -0.3467 -0.2905  0.0457
14333TIP3    H264415   0.408   1.958  14.032 -0.0509 -0.7783 -0.2912
14334TIP3   OH264416   4.952   3.802  14.138 -0.2248  0.0563  0.3053
14334TIP3    H164417   4.996   3.878  14.177 -1.4688  0.5248  0.8289
14334TIP3    H264418   4.866   3.834  14.112 -1.7000 -1.6944  2.6450
14335TIP3   OH264419   0.296   3.937  13.176 -0.0005 -0.4164 -0.3867
14335TIP3    H164420   0.384   3.901  13.189 -0.2599 -0.9364 -0.0495
14335TIP3    H264421   0.303   4.029  13.202  0.1724 -0.7348  0.7403
14336TIP3   OH264422   0.096   2.414  12.239 -0.5975 -0.1089 -0.3605
14336TIP3    H164423   0.170   2.381  12.290 -0.3075  1.8497  0.5768
14336TIP3    H264424   0.043   2.463  12.302  0.1121  2.9787 -1.9621
14337TIP3   OH264425   5.527   0.952   2.301  0.0713 -0.3819  0.4104
14337TIP3    H164426   5.494   0.996   2.379  1.3342  0.6725  0.3762
14337TIP3    H264427   5.548   0.863   2.331  1.0767  0.1781  1.4332
14338TIP3   OH264428   4.297   5.939  11.155 -0.1033  0.4200  0.0166
14338TIP3    H164429   4.352   5.861  11.159 -0.8725 -0.1353  0.0340
14338TIP3    H264430   4.358   6.012  11.145  0.6495 -0.1464  0.4438
14339TIP3   OH264431   2.611   2.584   5.444  0.6567 -0.0980  0.6909
14339TIP3    H164432   2.563   2.502   5.460 -0.8964  0.8316  0.9807
14339TIP3    H264433   2.611   2.594   5.349  4.3510 -2.3896  0.2525
14340TIP3   OH264434   5.176   0.185  14.805 -0.2737 -0.2183 -0.0392
14340TIP3    H164435   5.220   0.242  14.868 -0.5060 -0.2499  0.1518
14340TIP3    H264436   5.164   0.102  14.851 -1.3927  0.0879  0.2483
14341TIP3   OH264437   2.940   4.199  11.752  0.4795  0.5966 -0.7575
14341TIP3    H164438   2.963   4.168  11.665  0.9459 -1.5392  0.0756
14341TIP3    H264439   3.024   4.220  11.793  0.3185  0.8456 -0.5503
14342TIP3   OH264440   3.801   5.638  12.851  0.1265  0.5658  0.2681
14342TIP3    H164441   3.889   5.602  12.856 -0.3837 -0.6961  0.6171
14342TIP3    H264442   3.745   5.562  12.834 -1.1265  1.0009  2.0871
14343TIP3   OH264443   3.371   2.454   4.875  0.7729  0.3509 -0.1412
14343TIP3    H164444   3.381   2.429   4.968 -1.2216 -1.1770 -0.2692
14343TIP3    H264445   3.347   2.546   4.878 -0.4576  0.0358  0.9839
14344TIP3   OH264446   0.945   4.698   1.291  0.0803 -0.2773  0.1979
14344TIP3    H164447   0.965   4.682   1.383 -0.5145 -0.1102  0.3593
14344TIP3    H264448   0.998   4.774   1.267 -0.5108  0.3079  0.6867
14345TIP3   OH264449   4.985   1.441  11.305 -0.0185  0.4685 -0.0978
14345TIP3    H164450   5.049   1.434  11.234 -0.5352  2.7647 -0.8576
14345TIP3    H264451   4.936   1.521  11.286 -2.0487 -0.3377  1.3521
14346TIP3   OH264452   1.245   4.838   0.645  0.0068 -0.2388  0.1979
14346TIP3    H164453   1.255   4.758   0.594  0.5265  0.1274 -0.2967
14346TIP3    H264454   1.334   4.863   0.669 -0.1245  0.3030  0.1494
14347TIP3   OH264455   4.459   6.461   2.414 -0.3777 -0.2737 -0.0181
14347TIP3    H164456   4.402   6.385   2.429 -0.6529 -0.4518 -1.7612
14347TIP3    H264457   4.453   6.477   2.320  1.3275  0.6168 -0.0132
14348TIP3   OH264458   2.372   3.965   2.162  0.4840 -0.1641 -0.1889
14348TIP3    H164459   2.332   4.020   2.096 -1.0986 -2.2980 -1.1344
14348TIP3    H264460   2.381   4.021   2.239 -1.8357  1.1769 -0.8010
14349TIP3   OH264461   0.040   4.185   5.252 -0.0724  0.0820 -0.0173
14349TIP3    H164462   0.058   4.272   5.288 -1.9604  1.0700 -1.2563
14349TIP3    H264463  -0.043   4.159   5.292  1.3926 -2.0853  1.8174
14350TIP3   OH264464   2.230   6.056   3.142  0.0345  0.0421 -0.1134
14350TIP3    H164465   2.291   6.081   3.073  1.4573 -0.7889  0.7789
14350TIP3    H264466   2.247   5.962   3.156 -1.3127 -0.1613  0.3108
14351TIP3   OH264467   4.805   1.131   1.144  0.0693 -0.5040  0.5168
14351TIP3    H164468   4.742   1.154   1.212  1.0744  0.8876  1.0204
14351TIP3    H264469   4.879   1.093   1.192  0.7340  0.3776  0.2080
14352TIP3   OH264470   0.909   1.263   4.603 -0.8662 -0.1275  0.4425
14352TIP3    H164471   0.919   1.171   4.628 -0.0956  0.0101  0.6553
14352TIP3    H264472   0.823   1.288   4.638 -0.8617 -0.6257  0.8179
14353TIP3   OH264473   6.612   5.720  13.992 -0.5096  0.2950  0.2914
14353TIP3    H164474   6.521   5.729  14.021 -0.5340  0.8841  0.0488
14353TIP3    H264475   6.655   5.672  14.062 -1.1071 -0.3872  0.2104
14354TIP3   OH264476   3.401   6.709   0.095 -0.2562 -0.6293  0.0867
14354TIP3    H164477   3.415   6.792   0.049  2.0107 -0.7600  0.4336
14354TIP3    H264478   3.466   6.649   0.058 -1.4476 -2.1011  0.2672
14355TIP3   OH264479   2.695   4.126  13.687  0.2090  0.0147  0.8256
14355TIP3    H164480   2.627   4.190  13.710 -1.1376  0.0500 -2.6386
14355TIP3    H264481   2.647   4.044  13.676  1.2016 -0.6023  0.9953
14356TIP3   OH264482   5.613   0.140  16.517  0.1221  0.2745 -0.2027
14356TIP3    H164483   5.650   0.132  16.429 -0.5076 -0.6620 -0.3916
14356TIP3    H264484   5.645   0.225  16.549  0.9113  0.3131 -1.0646
14357TIP3   OH264485   3.640   2.514  13.522  0.1126 -0.5471 -0.4083
14357TIP3    H164486   3.587   2.529  13.444 -0.3977  1.3189  0.2434
14357TIP3    H264487   3.702   2.588  13.523  0.0150 -0.4551  1.0047
14358TIP3   OH264488   5.087   1.661  15.066 -0.6372  1.0465  0.5014
14358TIP3    H164489   5.050   1.640  15.152  3.3120  0.3761  2.2476
14358TIP3    H264490   5.136   1.582  15.042 -0.2020  1.8982 -1.5386
14359TIP3   OH264491   2.856   1.861  15.189 -0.3699 -0.3675 -0.0930
14359TIP3    H164492   2.844   1.892  15.279 -0.6746 -1.2360  0.1675
14359TIP3    H264493   2.949   1.877  15.171 -0.6834  1.4896 -0.2761
14360TIP3   OH264494   6.804   3.312  15.838  0.0895  0.3772  0.0046
14360TIP3    H164495   6.819   3.403  15.812  1.6070  0.2783  0.4270
14360TIP3    H264496   6.821   3.262  15.758 -1.9374  0.5124 -0.5580
14361TIP3   OH264497   1.117   2.773  10.838  0.5135  0.6552  0.1503
14361TIP3    H164498   1.109   2.867  10.849  0.1068  0.5459  0.8253
14361TIP3    H264499   1.185   2.746  10.900  0.3074  0.4480  0.2921
14362TIP3   OH264500   5.094   5.976   4.594 -0.0259 -0.2377 -0.2844
14362TIP3    H164501   5.071   5.903   4.652 -1.8200 -1.4581 -2.3626
14362TIP3    H264502   5.129   6.043   4.653 -0.3264 -1.9322  1.9932
14363TIP3   OH264503   3.903   3.750   4.923  0.1534  0.2353  0.2987
14363TIP3    H164504   3.807   3.749   4.916  0.2046  0.3450 -0.4627
14363TIP3    H264505   3.920   3.710   5.008 -0.5912  0.7721  0.7203
14364TIP3   OH264506   0.545   3.435   1.124 -0.1240 -0.0543  0.5476
14364TIP3    H164507   0.566   3.414   1.033  0.9097 -0.3374  0.8487
14364TIP3    H264508   0.455   3.470   1.120 -0.2255 -0.4137 -0.5226
14365TIP3   OH264509   4.835   2.564   3.045 -0.2618 -0.5600  0.2147
14365TIP3    H164510   4.756   2.558   3.100  0.0288  1.4591  0.9198
14365TIP3    H264511   4.838   2.480   2.999 -1.3125 -1.7714  2.2092
14366TIP3   OH264512   0.955   5.662  16.012 -0.8277  0.3350  0.8639
14366TIP3    H164513   1.005   5.593  16.055 -1.8160  0.0389  1.5741
14366TIP3    H264514   0.913   5.710  16.084  0.9005  2.5440  0.4928
14367TIP3   OH264515   2.301   5.691  15.985 -0.2656 -0.7760  0.4765
14367TIP3    H164516   2.279   5.742  16.063 -0.3324  0.9063 -0.5993
14367TIP3    H264517   2.387   5.724  15.958 -1.1858  0.2331 -1.3684
14368TIP3   OH264518   4.216   1.656   2.525  0.2168  0.0439 -0.2105
14368TIP3    H164519   4.174   1.689   2.445  1.4040  1.3718 -0.3253
14368TIP3    H264520   4.258   1.733   2.563  0.4717 -0.7652  1.2052
14369TIP3   OH264521   5.407   4.521  16.073  0.7431  0.3917 -0.4911
14369TIP3    H164522   5.441   4.475  15.996  0.1391 -0.8803 -0.0265
14369TIP3    H264523   5.449   4.478  16.147 -0.2710  0.1969 -0.0170
14370TIP3   OH264524   2.638   5.375  11.000  0.2036  0.5089 -0.1770
14370TIP3    H164525   2.674   5.359  11.087  1.5620  1.6764 -0.4936
14370TIP3    H264526   2.582   5.299  10.983  1.0410 -0.4447  1.1083
14371TIP3   OH264527   1.043   3.868  10.929 -0.3595  0.2646 -0.0708
14371TIP3    H164528   0.989   3.937  10.967 -1.5943 -0.3146 -0.7272
14371TIP3    H264529   0.981   3.810  10.884  0.6408 -1.1952  0.3307
14372TIP3   OH264530   1.223   5.061  15.166  0.1381  0.0234  0.0433
14372TIP3    H164531   1.311   5.057  15.127  0.5472 -0.0878  0.9661
14372TIP3    H264532   1.218   4.984  15.223 -0.9504 -0.5471 -0.7860
14373TIP3   OH264533   5.178   4.641  12.240  0.6365 -0.3630 -0.7106
14373TIP3    H164534   5.131   4.643  12.157  0.1048 -1.3932 -0.4528
14373TIP3    H264535   5.113   4.666  12.305  1.0905  0.5954 -0.6010
14374TIP3   OH264536   1.911   5.248  11.749  0.4691  0.5064 -0.4732
14374TIP3    H164537   1.923   5.238  11.843  0.0125  0.1185 -0.4539
14374TIP3    H264538   1.999   5.268  11.715  0.2743  3.0425  0.3311
14375TIP3   OH264539   6.511   3.570  14.157 -0.3106 -0.0651 -0.2871
14375TIP3    H164540   6.537   3.528  14.239  1.0490 -1.2340 -1.2632
14375TIP3    H264541   6.530   3.663  14.170 -0.2312 -0.2175  0.7534
14376TIP3   OH264542   5.222   5.468  11.641  0.0121 -0.4697  0.3404
14376TIP3    H164543   5.218   5.439  11.732  0.3635 -1.3396  0.0919
14376TIP3    H264544   5.307   5.436  11.610 -0.2730 -0.5177 -0.4014
14377TIP3   OH264545   3.681   1.171  16.430 -0.1436 -0.8565 -0.0342
14377TIP3    H164546   3.654   1.247  16.481  0.5755 -1.2066  0.9058
14377TIP3    H264547   3.737   1.207  16.361  1.2779 -0.6221  1.1978
14378TIP3   OH264548   0.261   6.197  14.583  0.1882 -0.2051 -0.2273
14378TIP3    H164549   0.188   6.212  14.523  0.3913  0.3262 -0.3425
14378TIP3    H264550   0.336   6.238  14.540  0.7350 -1.4302 -0.4927
14379TIP3   OH264551   2.329   1.784  11.086  0.0982  0.4855 -0.5607
14379TIP3    H164552   2.242   1.822  11.102 -0.1450  0.0859 -0.9091
14379TIP3    H264553   2.329   1.702  11.136 -0.7212 -0.8446 -2.6069
14380TIP3   OH264554   0.502   2.505   4.642  0.2771  0.0346  0.1579
14380TIP3    H164555   0.450   2.459   4.576 -0.4126  1.2060 -0.1342
14380TIP3    H264556   0.442   2.519   4.715  1.0107 -1.1709  1.0307
14381TIP3   OH264557   4.513   5.682  13.358  0.2042  0.1562  0.3795
14381TIP3    H164558   4.455   5.613  13.389  1.7815 -0.6672  1.6455
14381TIP3    H264559   4.456   5.739  13.306 -1.6105 -0.8622  1.1368
14382TIP3   OH264560   0.515   2.463   3.529  0.1838  0.2034  0.1730
14382TIP3    H164561   0.525   2.497   3.440 -0.1512  1.4170  0.5791
14382TIP3    H264562   0.421   2.454   3.540  0.2673 -1.0158  0.0388
14383TIP3   OH264563   5.927   3.372   3.795 -0.4645 -0.1919 -0.0201
14383TIP3    H164564   5.858   3.354   3.859  1.1777  0.0456  1.9166
14383TIP3    H264565   5.982   3.438   3.837  1.8884 -1.5855 -0.7305
14384TIP3   OH264566   0.197   5.566  10.837  0.4166  0.0992  0.8004
14384TIP3    H164567   0.237   5.479  10.846 -0.4558 -0.6309 -1.6719
14384TIP3    H264568   0.176   5.573  10.744 -3.2865  1.2575  1.5543
14385TIP3   OH264569   6.660   4.715  10.642 -0.3431  0.0931  0.1975
14385TIP3    H164570   6.669   4.688  10.551  0.5609 -0.6931  0.4960
14385TIP3    H264571   6.585   4.774  10.643  0.2650  0.9232 -1.2213
14386TIP3   OH264572   2.644   3.377   3.757 -0.1475  0.1559 -0.2481
14386TIP3    H164573   2.672   3.350   3.670  1.4409 -0.5839  0.4559
14386TIP3    H264574   2.630   3.294   3.804 -0.1936  0.5467  0.4382
14387TIP3   OH264575   2.879   1.379  13.636 -0.4559 -0.9155  0.2160
14387TIP3    H164576   2.855   1.287  13.641 -0.5237 -0.9758 -0.9511
14387TIP3    H264577   2.806   1.421  13.591  0.6845 -0.7575 -1.5823
14388TIP3   OH264578   3.996   6.794   4.882  0.1029 -0.1028 -0.4984
14388TIP3    H164579   3.949   6.818   4.962 -1.8164 -1.5714 -1.1367
14388TIP3    H264580   3.949   6.838   4.812 -0.1248 -1.3216 -1.1241
14389TIP3   OH264581   3.791   3.209   0.482  0.5026  0.4238 -0.5047
14389TIP3    H164582   3.707   3.255   0.480  0.7885  0.9406 -0.9991
14389TIP3    H264583   3.769   3.118   0.461  0.1022  0.6251 -0.9810
14390TIP3   OH264584   6.738   4.580   1.553  0.3589  0.2587  0.5120
14390TIP3    H164585   6.663   4.632   1.583 -0.4744  0.1441 -1.2664
14390TIP3    H264586   6.707   4.490   1.556  0.2657  0.2417 -0.5848
14391TIP3   OH264587   0.585   0.735  12.790 -0.4218  0.3195  0.0148
14391TIP3    H164588   0.517   0.675  12.760 -0.2459 -0.5593  1.3027
14391TIP3    H264589   0.660   0.717  12.734 -0.2805 -0.8790  0.5687
14392TIP3   OH264590   3.861   5.626  15.429  0.1590 -0.0725  0.1312
14392TIP3    H164591   3.855   5.718  15.406  0.6888 -0.2235 -0.6411
14392TIP3    H264592   3.875   5.581  15.346 -2.4994 -1.1171  0.1476
14393TIP3   OH264593   1.539   6.773  12.353  0.2495  0.1168  0.7766
14393TIP3    H164594   1.554   6.783  12.259 -0.8950  0.1518  0.5838
14393TIP3    H264595   1.589   6.695  12.378  0.8536  0.3163  0.2284
14394TIP3   OH264596   6.765   5.143  12.731  0.8603  0.1469  0.4830
14394TIP3    H164597   6.698   5.189  12.782 -1.1769 -0.1601 -1.7460
14394TIP3    H264598   6.844   5.195  12.743 -0.2484  1.6661  1.6214
14395TIP3   OH264599   0.407   4.090   0.583 -0.1463 -0.6971 -1.0503
14395TIP3    H164600   0.354   4.010   0.593  1.1682 -1.5011 -0.2531
14395TIP3    H264601   0.386   4.142   0.660  0.3777 -1.1200 -0.6140
14396TIP3   OH264602   2.885   3.353   2.095  0.0974 -0.0630  0.7389
14396TIP3    H164603   2.935   3.274   2.115 -1.2769 -0.9939  0.6996
14396TIP3    H264604   2.918   3.381   2.010 -0.6645 -1.7250 -0.1619
14397TIP3   OH264605   6.302   3.967   0.747 -0.2223  0.1060 -0.1415
14397TIP3    H164606   6.257   3.995   0.667 -0.5721 -2.9771 -1.1392
14397TIP3    H264607   6.312   4.048   0.798 -1.9309  1.8179 -2.3099
14398TIP3   OH264608   5.324   1.158  14.808  0.1397  0.2512  0.2150
14398TIP3    H164609   5.407   1.110  14.804 -0.0626 -0.0162 -0.8587
14398TIP3    H264610   5.317   1.202  14.724 -1.4053 -0.7447 -0.2025
14399TIP3   OH264611   0.192   5.628  14.132  0.0041  0.1223  0.6369
14399TIP3    H164612   0.176   5.719  14.105 -0.8039 -0.5501 -1.3430
14399TIP3    H264613   0.126   5.578  14.084  1.6294 -1.7192  0.2304
14400TIP3   OH264614   5.836   6.122   2.477 -0.3310 -0.3152 -0.2052
14400TIP3    H164615   5.826   6.082   2.564  1.1164 -0.9054 -0.2864
14400TIP3    H264616   5.853   6.214   2.496 -0.5190 -0.3398  0.1095
14401TIP3   OH264617   6.551   2.213  12.679  0.0689  0.9499  0.2335
14401TIP3    H164618   6.487   2.273  12.641 -0.7537 -0.8699 -1.4168
14401TIP3    H264619   6.570   2.251  12.765 -0.3570  3.5573 -0.7096
14402TIP3   OH264620   2.413   4.427   4.950 -0.7052  0.0294  0.0794
14402TIP3    H164621   2.462   4.356   4.908 -1.5695 -0.7940  0.4304
14402TIP3    H264622   2.473   4.461   5.017 -0.8546 -1.4832  1.0305
14403TIP3   OH264623   3.445   3.442   0.774 -0.1696  0.1256  0.4456
14403TIP3    H164624   3.516   3.473   0.717 -1.5757 -0.0742 -1.5316
14403TIP3    H264625   3.468   3.351   0.793 -0.3565 -0.2837 -1.0814
14404TIP3   OH264626   1.624   1.150   2.911  0.1025  0.3916 -0.6245
14404TIP3    H164627   1.702   1.203   2.895 -0.9624  2.2532  0.0064
14404TIP3    H264628   1.656   1.075   2.961  1.2617  2.1339  1.4173
14405TIP3   OH264629   4.002   2.862   4.737 -0.1918 -0.5753  0.1830
14405TIP3    H164630   4.022   2.922   4.809  1.4520 -1.6031  0.6304
14405TIP3    H264631   3.907   2.863   4.731 -0.2349  2.3799 -0.1169
14406TIP3   OH264632   4.487   5.001  14.565 -0.3239 -0.2127 -0.0719
14406TIP3    H164633   4.473   4.928  14.504  2.3545  0.7393 -2.0761
14406TIP3    H264634   4.532   4.962  14.640 -1.5675 -1.0491  0.2576
14407TIP3   OH264635   1.438   1.747  16.078  0.7159 -0.5460 -0.1419
14407TIP3    H164636   1.513   1.782  16.127 -0.5759  0.9363  0.8620
14407TIP3    H264637   1.365   1.805  16.100 -0.2294 -0.5092 -2.9503
14408TIP3   OH264638   5.664   3.697  10.200  0.4068  0.1471 -0.0985
14408TIP3    H164639   5.588   3.710  10.256  1.2966  1.6906  0.8302
14408TIP3    H264640   5.635   3.721  10.112 -0.5008 -0.5063  0.0149
14409TIP3   OH264641   4.287   0.192  13.109 -0.5481 -0.0019 -0.1968
14409TIP3    H164642   4.343   0.262  13.142  0.6632 -1.8355  1.8198
14409TIP3    H264643   4.336   0.154  13.036 -0.2466 -0.1251  0.0727
14410TIP3   OH264644   4.253   5.198   6.157 -0.3495  0.4365 -0.2200
14410TIP3    H164645   4.340   5.226   6.127 -0.1179  0.6231  0.6064
14410TIP3    H264646   4.264   5.106   6.179 -0.3620  0.4645 -0.1002
14411TIP3   OH264647   4.876   3.699  16.579 -0.1785 -0.0111  0.0235
14411TIP3    H164648   4.925   3.625  16.545  0.0773  0.9312 -1.7593
14411TIP3    H264649   4.807   3.714  16.515  1.0084  2.5329 -0.7953
14412TIP3   OH264650   0.819   5.093  11.877 -0.0471  0.6149 -0.1389
14412TIP3    H164651   0.783   5.182  11.876 -1.7830 -0.0452 -0.8105
14412TIP3    H264652   0.804   5.062  11.966  3.0674  1.8857  0.9397
14413TIP3   OH264653   5.552   2.390  14.693 -0.2999 -0.1246 -0.2680
14413TIP3    H164654   5.575   2.480  14.670 -1.0789  0.1229 -0.1022
14413TIP3    H264655   5.577   2.339  14.615  3.3456 -0.3444  0.8412
14414TIP3   OH264656   6.857   5.467   2.437 -0.3581 -0.3335  0.2172
14414TIP3    H164657   6.929   5.411   2.409  1.3141  1.4439  0.7705
14414TIP3    H264658   6.852   5.455   2.531 -0.7917 -0.4626  0.1776
14415TIP3   OH264659   2.483   0.530   4.919 -0.1438 -0.0277 -0.3380
14415TIP3    H164660   2.573   0.520   4.952 -0.4106  1.3189  0.8956
14415TIP3    H264661   2.435   0.456   4.956 -0.0630  0.5720  1.0339
14416TIP3   OH264662   6.068   0.459   2.627 -0.3942 -0.4427 -0.1566
14416TIP3    H164663   5.991   0.427   2.672 -0.3209 -0.3230  0.0553
14416TIP3    H264664   6.130   0.481   2.697 -0.0371 -0.8747 -0.3357
14417TIP3   OH264665   2.021   4.374   3.239  0.3697 -0.8350  0.8014
14417TIP3    H164666   2.046   4.402   3.151  2.0733 -1.1386  1.1469
14417TIP3    H264667   1.951   4.310   3.225 -0.3094  0.1030 -0.2384
14418TIP3   OH264668   3.784   5.902  15.389  0.0183  0.3855 -0.1642
14418TIP3    H164669   3.848   5.960  15.347  0.7237 -0.5966 -0.4734
14418TIP3    H264670   3.782   5.931  15.481  1.4599 -0.0357  0.0236
14419TIP3   OH264671   1.318   5.359  13.151 -0.1889  0.2776 -0.4921
14419TIP3    H164672   1.300   5.438  13.202 -1.0560 -0.6380  0.6737
14419TIP3    H264673   1.248   5.356  13.085  0.2242  0.8152 -0.9619
14420TIP3   OH264674   5.358   4.016   1.445 -0.3799 -0.3642 -0.1165
14420TIP3    H164675   5.377   4.023   1.351  0.9696  1.2355  0.2450
14420TIP3    H264676   5.332   4.105   1.471 -1.2862 -0.9096  0.9357
14421TIP3   OH264677   4.622   1.314  12.731 -0.9332 -0.0544  0.0517
14421TIP3    H164678   4.715   1.337  12.722 -0.2203 -2.9181 -1.4400
14421TIP3    H264679   4.621   1.249  12.801 -2.0244  0.7411  0.7983
14422TIP3   OH264680   6.580   1.143   4.862  0.1036 -0.2974 -0.5333
14422TIP3    H164681   6.505   1.114   4.809 -0.1819  1.1829 -0.9849
14422TIP3    H264682   6.583   1.081   4.935  0.1618 -2.0752 -1.9559
14423TIP3   OH264683   2.031   5.237  14.534 -0.7748  0.4469 -0.4614
14423TIP3    H164684   2.079   5.319  14.542  0.0504 -0.1986  2.7280
14423TIP3    H264685   2.098   5.173  14.509 -0.6577  0.1848  0.4701
14424TIP3   OH264686   2.475   0.236   1.272 -0.0738 -0.6136 -0.0654
14424TIP3    H164687   2.410   0.306   1.281 -1.1757 -1.5116 -0.6800
14424TIP3    H264688   2.500   0.239   1.179  0.9771 -0.1031  0.2279
14425TIP3   OH264689   5.330   3.414   2.433 -0.2201 -0.3364 -0.2143
14425TIP3    H164690   5.368   3.368   2.508  0.3108 -0.6748 -0.6761
14425TIP3    H264691   5.307   3.344   2.372  0.8094 -0.0057 -1.0239
14426TIP3   OH264692   4.226   0.616  10.747  0.2904  0.1969 -0.3728
14426TIP3    H164693   4.131   0.623  10.753  0.2946 -0.5870  1.1524
14426TIP3    H264694   4.241   0.555  10.674 -0.2754  1.7948 -1.8705
14427TIP3   OH264695   4.818   6.169  15.703  0.3455 -0.3882 -0.4693
14427TIP3    H164696   4.876   6.175  15.779 -1.0665  0.6617  0.5788
14427TIP3    H264697   4.844   6.242  15.647  0.6770 -0.5201 -0.4924
14428TIP3   OH264698   1.242   4.640  10.463 -0.1349 -0.2792 -0.5170
14428TIP3    H164699   1.165   4.584  10.455 -0.3633  0.0041 -0.3344
14428TIP3    H264700   1.292   4.624  10.383  1.3977 -3.0647  0.8484
14429TIP3   OH264701   3.762   2.818  14.744 -0.6006  0.2149  0.0440
14429TIP3    H164702   3.757   2.786  14.653  2.2361  2.1731 -0.9092
14429TIP3    H264703   3.715   2.901  14.742  0.4172  0.8006  0.0651
14430TIP3   OH264704   0.101   5.517  14.413 -0.0753  0.6840  0.3720
14430TIP3    H164705   0.113   5.426  14.387 -0.4159  0.6616  0.2930
14430TIP3    H264706   0.142   5.568  14.342 -3.0494  0.7021 -1.4781
14431TIP3   OH264707   2.437   4.019  12.800  0.5413  0.0294 -0.1466
14431TIP3    H164708   2.435   4.084  12.730 -1.5026 -0.1094 -0.2757
14431TIP3    H264709   2.477   3.942  12.761  2.8388  1.1072 -0.0449
14432TIP3   OH264710   5.453   6.320   0.707  0.1035  0.0913  0.0430
14432TIP3    H164711   5.521   6.377   0.670 -1.1977  0.9402 -1.0962
14432TIP3    H264712   5.394   6.380   0.752 -0.1360 -0.6043  0.6745
14433TIP3   OH264713   1.117   0.333  13.888  0.5238 -0.0716 -0.1807
14433TIP3    H164714   1.070   0.250  13.892  0.1555  0.1670  1.8093
14433TIP3    H264715   1.201   0.312  13.849  0.6165 -1.4925  0.7245
14434TIP3   OH264716   0.774   2.749   5.221  0.3655  0.0894 -0.9697
14434TIP3    H164717   0.724   2.734   5.302  2.1456 -1.9624 -0.1485
14434TIP3    H264718   0.708   2.777   5.157 -1.9163 -2.5414 -0.0123
14435TIP3   OH264719   2.946   1.390   1.477  0.4953 -0.1527 -0.1336
14435TIP3    H164720   3.011   1.338   1.432 -1.8729 -2.2204 -1.4088
14435TIP3    H264721   2.862   1.360   1.443 -1.2156  1.9388  1.8247
14436TIP3   OH264722   4.804   5.083   0.665 -0.4458  0.0095 -0.1807
14436TIP3    H164723   4.897   5.091   0.644 -0.5032  0.1994 -0.3710
14436TIP3    H264724   4.762   5.151   0.612 -0.4117  1.7169  1.8430
14437TIP3   OH264725   6.419   5.890  16.341 -0.0033  0.0680  0.5227
14437TIP3    H164726   6.369   5.889  16.423 -0.5053 -0.1416  0.2176
14437TIP3    H264727   6.503   5.851  16.364 -0.5395 -1.0233  0.6921
14438TIP3   OH264728   5.661   5.760  10.959 -0.2589 -0.4023 -0.1851
14438TIP3    H164729   5.696   5.681  11.001  2.4524  0.3707 -0.8103
14438TIP3    H264730   5.571   5.767  10.993 -0.6501 -3.7691 -0.1750
14439TIP3   OH264731   4.508   5.610   2.537 -0.5457  0.4072 -0.1512
14439TIP3    H164732   4.566   5.655   2.598  0.5166 -0.2554 -0.6406
14439TIP3    H264733   4.422   5.612   2.579 -0.0228  0.7599  0.9304
14440TIP3   OH264734   5.992   0.728   0.182  0.0918 -0.2759 -0.5073
14440TIP3    H164735   5.936   0.672   0.128 -2.0930 -0.7683  2.0618
14440TIP3    H264736   6.023   0.671   0.251  1.5581  0.6765 -0.3483
14441TIP3   OH264737   5.833   0.914  14.502 -0.3609 -0.1951  0.4679
14441TIP3    H164738   5.815   0.858  14.426  1.3179  0.8989 -0.7991
14441TIP3    H264739   5.767   0.983  14.497 -0.0668  0.0478 -0.2066
14442TIP3   OH264740   4.079   5.932  15.086  0.1289 -0.4408 -0.0371
14442TIP3    H164741   4.075   5.852  15.139  1.0228 -0.3788  0.1416
14442TIP3    H264742   4.046   6.001  15.143 -1.4782 -0.7942 -0.4748
14443TIP3   OH264743   6.756   3.580  15.773  0.2011 -0.2932 -0.6587
14443TIP3    H164744   6.751   3.606  15.681  0.5948  0.5042 -0.4640
14443TIP3    H264745   6.746   3.662  15.822 -1.3584 -0.8765  0.0485
14444TIP3   OH264746   4.410   1.869  13.293 -0.8251  0.3580 -0.0533
14444TIP3    H164747   4.467   1.805  13.250 -1.4352 -0.0334 -0.2920
14444TIP3    H264748   4.325   1.860  13.249 -0.4260  2.7690 -1.4834
14445TIP3   OH264749   4.907   1.991  11.839 -0.2111  0.1232  0.2342
14445TIP3    H164750   4.838   2.016  11.778  0.1326  0.3324 -0.0737
14445TIP3    H264751   4.861   1.957  11.916 -0.6660  0.8112  0.2736
14446TIP3   OH264752   0.091   6.424  12.050 -0.2339  0.2902 -0.1177
14446TIP3    H164753   0.042   6.364  11.995  0.2052 -0.1566 -0.0257
14446TIP3    H264754   0.030   6.450  12.119 -0.0607 -0.9976  0.5416
14447TIP3   OH264755   5.539   5.506  13.713 -0.7888  0.5334 -0.0331
14447TIP3    H164756   5.580   5.429  13.752  1.3953  2.0356  0.8606
14447TIP3    H264757   5.518   5.562  13.788 -2.7889  0.6319 -0.6329
14448TIP3   OH264758   4.231   3.116  11.406  0.3549 -0.0943 -0.4951
14448TIP3    H164759   4.199   3.104  11.496  0.9657 -0.0133 -0.2657
14448TIP3    H264760   4.283   3.038  11.389  0.6522  0.1258 -0.5987
14449TIP3   OH264761   4.966   2.818  15.959 -0.4378 -0.7902 -0.3514
14449TIP3    H164762   5.053   2.860  15.957 -0.5285 -0.6485 -1.3723
14449TIP3    H264763   4.972   2.747  15.896 -0.5172 -1.9231  0.8593
14450TIP3   OH264764   3.796   0.647   0.257  0.3137  0.2276 -0.2359
14450TIP3    H164765   3.854   0.675   0.328 -1.1880  0.0671  1.1033
14450TIP3    H264766   3.774   0.727   0.211 -0.4858  0.6770  0.8920
14451TIP3   OH264767   0.239   5.870   2.213  0.3226  0.1711 -0.5046
14451TIP3    H164768   0.271   5.786   2.244 -1.3056 -0.3321 -0.0959
14451TIP3    H264769   0.189   5.850   2.135  0.5328  0.8627 -0.8250
14452TIP3   OH264770   1.264   1.871  12.009 -0.0215 -0.7189 -0.1737
14452TIP3    H164771   1.349   1.896  12.045 -0.5091 -0.0525  0.5593
14452TIP3    H264772   1.222   1.954  11.986  0.3789 -1.1166 -2.6553
14453TIP3   OH264773   5.626   6.181   2.283 -0.4036 -0.6052  0.0716
14453TIP3    H164774   5.612   6.213   2.194  1.6769  0.8782  0.2115
14453TIP3    H264775   5.705   6.225   2.313 -1.0417 -1.0368  2.6863
14454TIP3   OH264776   6.664   1.872  10.611 -0.3989  0.3452  0.8075
14454TIP3    H164777   6.711   1.803  10.563 -0.3180  1.8865 -1.4850
14454TIP3    H264778   6.721   1.948  10.604 -1.0528  1.0007  2.2339
14455TIP3   OH264779   0.240   5.787   2.590 -0.1471 -1.1091 -0.1712
14455TIP3    H164780   0.223   5.781   2.684  0.3048  3.0270  0.3292
14455TIP3    H264781   0.334   5.806   2.584 -0.4723  0.2118 -1.3278
14456TIP3   OH264782   1.163   3.506   0.709 -0.6747  0.0749 -0.6821
14456TIP3    H164783   1.175   3.425   0.659  4.0145 -0.3980  0.6656
14456TIP3    H264784   1.110   3.480   0.785  1.1331 -2.0084 -0.0289
14457TIP3   OH264785   2.707   3.356   4.606  0.1506 -0.4663  0.5423
14457TIP3    H164786   2.748   3.347   4.693  0.5337  0.4370  0.4759
14457TIP3    H264787   2.765   3.417   4.559 -0.5882 -0.1671  0.0004
14458TIP3   OH264788   4.666   3.673   4.635  0.1157  0.6553 -0.3315
14458TIP3    H164789   4.689   3.679   4.542 -1.3732 -0.3706 -0.8147
14458TIP3    H264790   4.658   3.579   4.652 -0.0718  0.8445  0.7195
14459TIP3   OH264791   2.950   6.601   4.000  0.3327  0.1326  0.1257
14459TIP3    H164792   2.902   6.527   4.039 -0.5495 -0.2333 -1.5691
14459TIP3    H264793   3.026   6.613   4.058 -0.0940 -1.3709  1.0641
14460TIP3   OH264794   2.063   3.378  14.655 -0.1114 -0.1027  0.1646
14460TIP3    H164795   1.972   3.400  14.671  0.1156  0.2842  0.9635
14460TIP3    H264796   2.112   3.429  14.720  0.6672 -0.3459 -0.2193
14461TIP3   OH264797   3.667   5.273   5.372  0.0798 -0.1674  0.2852
14461TIP3    H164798   3.722   5.245   5.445 -1.5015 -1.0733  1.1643
14461TIP3    H264799   3.599   5.327   5.412 -0.1737  0.2445 -0.6738
14462TIP3   OH264800   1.375   1.111  14.222  0.1090  0.3342  0.7961
14462TIP3    H164801   1.302   1.151  14.270 -1.1902 -1.6099  0.5880
14462TIP3    H264802   1.411   1.047  14.283 -0.3462 -0.8350 -0.1326
14463TIP3   OH264803   0.739   4.335  11.703 -0.6896  0.1576  0.4396
14463TIP3    H164804   0.796   4.342  11.779 -2.6296  0.2319  1.9704
14463TIP3    H264805   0.703   4.246  11.708 -1.6121  0.5046  0.2169
14464TIP3   OH264806   1.371   1.596  10.981  0.2880  0.0741  0.0545
14464TIP3    H164807   1.301   1.554  10.931  0.3489  0.2632 -0.1924
14464TIP3    H264808   1.335   1.681  11.006 -0.0064 -0.3003  0.9513
14465TIP3   OH264809   5.978   6.326   2.623  0.2779 -0.0166 -0.2871
14465TIP3    H164810   5.981   6.388   2.697 -0.3636 -1.7937  1.3132
14465TIP3    H264811   6.056   6.272   2.635 -0.3764 -0.9785 -0.2759
14466TIP3   OH264812   0.457   0.349   4.512 -0.0294 -0.0988  0.1472
14466TIP3    H164813   0.381   0.407   4.520  0.1127  0.3331 -1.3435
14466TIP3    H264814   0.420   0.260   4.516 -0.6114  0.1090 -0.4031
14467TIP3   OH264815   2.089   4.609  12.547 -0.1827  0.1392 -0.0435
14467TIP3    H164816   2.134   4.554  12.482  1.0650  0.8915  0.1565
14467TIP3    H264817   2.044   4.675  12.494  1.9413  1.5887 -0.1734
14468TIP3   OH264818   0.368   0.811   1.744  0.1230 -0.5223 -0.4814
14468TIP3    H164819   0.408   0.744   1.800 -2.1827  0.3114  2.3961
14468TIP3    H264820   0.430   0.883   1.744  0.9942 -1.2499 -0.6062
14469TIP3   OH264821   6.323   1.962   1.792 -0.5264  0.0688 -0.2957
14469TIP3    H164822   6.377   2.017   1.735  0.8899 -1.7854 -0.8670
14469TIP3    H264823   6.234   1.992   1.776  0.2015  2.4906 -0.1860
14470TIP3   OH264824   6.435   6.037  16.605 -0.4375 -0.1312  0.9055
14470TIP3    H164825   6.349   6.042  16.648 -0.2463 -0.0491  1.2891
14470TIP3    H264826   6.471   6.125  16.615  0.1198 -0.4328  1.6684
14471TIP3   OH264827   2.821   1.639   2.915 -0.0607 -0.5637 -0.6587
14471TIP3    H164828   2.824   1.597   2.828  0.7542 -0.1561 -0.8377
14471TIP3    H264829   2.910   1.630   2.949 -0.3394 -0.5867  0.0822
14472TIP3   OH264830   2.460   3.280  13.667 -0.4435  0.2426  0.0234
14472TIP3    H164831   2.430   3.255  13.579 -0.6347  0.0596  0.1419
14472TIP3    H264832   2.520   3.210  13.693  0.8631  1.0834 -0.6100
14473TIP3   OH264833   0.332   6.571   0.031  0.4687  0.1185  0.5657
14473TIP3    H164834   0.263   6.546  -0.031 -0.6981 -1.6168  2.4219
14473TIP3    H264835   0.349   6.491   0.082  2.6954  0.9636  1.2716
14474TIP3   OH264836   0.795   3.707   4.071  0.4637 -0.7445 -0.4179
14474TIP3    H164837   0.833   3.645   4.008  0.8762 -0.9439  0.0220
14474TIP3    H264838   0.863   3.719   4.137  0.4187  0.2469 -0.5366
14475TIP3   OH264839   4.148   2.773   5.193 -0.4531  0.0055 -0.1519
14475TIP3    H164840   4.116   2.863   5.187  0.4610  0.3551  0.0134
14475TIP3    H264841   4.108   2.739   5.273  0.0009  0.6194  0.3576
14476TIP3   OH264842   2.834   3.399  13.001  0.2656 -0.0801 -0.0165
14476TIP3    H164843   2.788   3.472  12.958  3.9058  2.8533  0.5766
14476TIP3    H264844   2.820   3.413  13.094 -0.5123 -1.3343  0.0799
14477TIP3   OH264845   1.094   5.728   4.086  0.0986 -0.0913 -0.2079
14477TIP3    H164846   1.025   5.662   4.085  0.2528 -0.2525 -0.2658
14477TIP3    H264847   1.174   5.678   4.105 -0.2256  0.4829  3.3335
14478TIP3   OH264848   3.035   1.256   3.912  0.4693 -0.2274  0.2215
14478TIP3    H164849   3.025   1.238   4.005 -2.3163 -1.0928 -0.1444
14478TIP3    H264850   3.038   1.169   3.871 -3.1404 -0.0143 -0.7863
14479TIP3   OH264851   0.563   6.063   3.926  0.2672 -0.1754  0.1474
14479TIP3    H164852   0.637   6.101   3.878  1.0014 -1.5032  0.1875
14479TIP3    H264853   0.567   6.103   4.012  0.1547  0.7194 -0.2529
14480TIP3   OH264854   2.657   0.169  11.299  0.1729  0.3800 -0.7357
14480TIP3    H164855   2.644   0.088  11.250  0.3688  1.0770 -1.9698
14480TIP3    H264856   2.571   0.190  11.335  0.0218 -0.1339 -0.7889
14481TIP3   OH264857   3.100   3.972  11.551  0.4516 -0.0015  0.3623
14481TIP3    H164858   3.128   3.997  11.463 -1.2129 -2.4024 -0.9561
14481TIP3    H264859   3.162   3.904  11.578 -1.8876 -2.9914 -1.2264
14482TIP3   OH264860   6.336   1.519  11.167 -0.0029 -0.0078 -0.3105
14482TIP3    H164861   6.377   1.481  11.245  0.0051 -0.7486 -0.6610
14482TIP3    H264862   6.409   1.535  11.108 -0.1557 -0.9370 -0.7729
14483TIP3   OH264863   1.114   2.107  16.233  0.1999  0.1765 -0.3063
14483TIP3    H164864   1.086   2.199  16.230 -1.2107 -0.2461 -1.8904
14483TIP3    H264865   1.203   2.110  16.269 -0.4776  1.9668  1.4124
14484TIP3   OH264866   0.102   3.727  13.034  0.4585 -0.3892 -0.8084
14484TIP3    H164867   0.139   3.806  13.073 -0.3364 -0.2313 -0.3506
14484TIP3    H264868   0.169   3.659  13.049  0.7668 -0.0062 -0.4343
14485TIP3   OH264869   0.216   0.524   2.960 -0.0876  0.6004  0.1236
14485TIP3    H164870   0.248   0.460   2.897 -0.2969  0.0453  0.5665
14485TIP3    H264871   0.126   0.498   2.977 -0.2558  1.1638  0.1294
14486TIP3   OH264872   4.534   4.455   3.180 -0.0857 -0.1755 -0.3013
14486TIP3    H164873   4.485   4.402   3.116 -0.6586  0.3572 -0.3196
14486TIP3    H264874   4.499   4.543   3.168  0.6957  0.1627 -0.1103
14487TIP3   OH264875   5.760   6.675  10.227 -0.4344  0.8106  0.0702
14487TIP3    H164876   5.788   6.584  10.216 -2.5062  0.1702 -0.3008
14487TIP3    H264877   5.756   6.710  10.138  0.0691  1.1959  0.1910
14488TIP3   OH264878   6.593   1.539   4.290 -0.3154 -0.3977  0.0192
14488TIP3    H164879   6.654   1.612   4.296 -1.0152  0.1086  1.2226
14488TIP3    H264880   6.645   1.462   4.311  0.1206 -0.0833  0.0959
14489TIP3   OH264881   2.737   1.019  13.085  0.4269 -0.0735 -0.3130
14489TIP3    H164882   2.819   0.988  13.125 -0.0546  0.0985  0.8418
14489TIP3    H264883   2.689   1.058  13.158 -0.7180 -0.2321 -0.9706
14490TIP3   OH264884   3.064   0.397  14.882  0.4343 -0.1855  0.0816
14490TIP3    H164885   3.049   0.379  14.789 -0.2257 -2.1122  0.5188
14490TIP3    H264886   3.017   0.327  14.928  2.0764 -0.2190  1.8271
14491TIP3   OH264887   5.154   1.324   4.834  0.2151  0.4819 -0.2372
14491TIP3    H164888   5.129   1.239   4.870  0.2448  0.7205  0.3505
14491TIP3    H264889   5.114   1.325   4.747  2.1252 -1.0945 -1.2160
14492TIP3   OH264890   0.863   4.853  10.564 -0.2012 -0.1917  0.2342
14492TIP3    H164891   0.945   4.890  10.532 -0.3438  0.0534  0.1508
14492TIP3    H264892   0.814   4.829  10.485  0.4578 -1.8310  0.2901
14493TIP3   OH264893   5.976   4.492  12.632 -0.3907 -0.3486 -0.1075
14493TIP3    H164894   5.998   4.498  12.725 -0.9859 -1.6926  0.1454
14493TIP3    H264895   5.911   4.422  12.628 -2.2625  1.3611 -1.2208
14494TIP3   OH264896   2.372   6.196   1.293  0.0963 -0.5890  0.5181
14494TIP3    H164897   2.402   6.272   1.343  0.9100 -1.3923  1.2967
14494TIP3    H264898   2.285   6.221   1.261 -0.0107  0.3418  1.4807
14495TIP3   OH264899   2.348   4.223  15.842  0.4992 -0.0887  0.7393
14495TIP3    H164900   2.347   4.221  15.747  0.3608  0.1906  0.7328
14495TIP3    H264901   2.316   4.311  15.865 -0.3045 -0.4576  1.0499
14496TIP3   OH264902   0.903   1.395  15.750  0.1076  0.2782  0.2656
14496TIP3    H164903   0.896   1.417  15.843  0.5369  1.5406  0.0203
14496TIP3    H264904   0.995   1.377  15.736  0.3094  1.6185 -0.2183
14497TIP3   OH264905   2.437   0.179  16.048  0.0428  0.0460  0.5020
14497TIP3    H164906   2.364   0.144  15.997 -0.5623  1.1890  0.5557
14497TIP3    H264907   2.502   0.205  15.983 -0.4646  0.9195  0.3321
14498TIP3   OH264908   0.499   0.531   3.941 -0.3249  0.3231  0.3344
14498TIP3    H164909   0.444   0.589   3.993  1.0055  1.7542  0.1863
14498TIP3    H264910   0.437   0.484   3.885 -1.8331 -1.3848  3.2096
14499TIP3   OH264911   2.739   6.312   3.628  0.1413  0.0782 -0.2888
14499TIP3    H164912   2.670   6.246   3.638 -0.3331  0.7416  0.9818
14499TIP3    H264913   2.800   6.273   3.565 -0.7638 -1.0415 -0.5030
14500TIP3   OH264914   1.866   5.368   3.174  0.4844  0.1792 -0.1038
14500TIP3    H164915   1.923   5.291   3.172  2.7444  1.7783 -0.8788
14500TIP3    H264916   1.871   5.404   3.086 -2.2096  0.1451 -0.3587
14501TIP3   OH264917   3.626   0.402   2.518 -0.2057 -0.2047  0.3715
14501TIP3    H164918   3.594   0.371   2.434  1.4204  1.5267 -0.9701
14501TIP3    H264919   3.559   0.463   2.549 -0.4254 -0.2157 -0.0740
14502TIP3   OH264920   6.761   5.619   3.853  0.1660 -0.0048  0.3590
14502TIP3    H164921   6.709   5.674   3.795  1.4666  0.1743 -0.7031
14502TIP3    H264922   6.847   5.663   3.857  0.4777 -0.6687  1.4520
14503TIP3   OH264923   3.143   6.805  16.072 -0.1321  0.0832 -0.2386
14503TIP3    H164924   3.080   6.805  16.144  0.6203 -0.3226  0.4398
14503TIP3    H264925   3.196   6.727  16.087 -0.4603 -0.4540 -1.6925
14504TIP3   OH264926   2.247   6.459   0.956 -0.5502 -0.1059  0.5779
14504TIP3    H164927   2.256   6.465   1.051  0.1722 -1.7903  0.6494
14504TIP3    H264928   2.223   6.548   0.929  1.0902  0.8957  2.1256
14505TIP3   OH264929   2.074   6.509   3.428 -0.3939  0.0974  0.3019
14505TIP3    H164930   2.110   6.590   3.391 -1.4337  0.5052  0.1324
14505TIP3    H264931   2.047   6.533   3.517 -1.3739  0.1561  0.0046
14506TIP3   OH264932   6.794   2.555  12.373  0.3520  0.2866  1.1142
14506TIP3    H164933   6.734   2.487  12.343 -0.6604  1.2297  0.9693
14506TIP3    H264934   6.803   2.539  12.467 -0.2187  0.2016  1.1584
14507TIP3   OH264935   1.962   0.374   1.832 -0.0127  0.0352  0.5583
14507TIP3    H164936   1.873   0.396   1.862 -0.1135  0.8389 -0.2888
14507TIP3    H264937   1.965   0.404   1.741  1.1265  0.0172  0.5759
14508TIP3   OH264938   2.779   0.536  10.146  0.3211 -0.2264  0.2885
14508TIP3    H164939   2.796   0.540  10.240  1.1443 -1.0148  0.1877
14508TIP3    H264940   2.818   0.453  10.118 -1.6548 -0.9686 -0.4093
14509TIP3   OH264941   5.590   3.988   4.854 -0.2584  0.3031  0.0845
14509TIP3    H164942   5.607   3.959   4.764 -2.4965 -1.5616  0.1657
14509TIP3    H264943   5.527   4.060   4.844 -1.1707 -0.4711  0.1611
14510TIP3   OH264944   4.861   1.386  15.441  0.0782 -0.5624  0.1975
14510TIP3    H164945   4.865   1.425  15.528 -0.8151  0.1158 -0.0428
14510TIP3    H264946   4.787   1.326  15.446 -1.5548  1.2662 -0.7445
14511TIP3   OH264947   1.599   1.042  13.474  0.2824 -0.3402  0.0847
14511TIP3    H164948   1.515   1.010  13.439  0.3392 -0.7643  0.3297
14511TIP3    H264949   1.620   0.981  13.545  0.9867 -0.4502 -0.2200
14512TIP3   OH264950   4.790   0.472  11.008 -0.6485 -0.3648 -0.2098
14512TIP3    H164951   4.728   0.528  11.054 -0.3920  0.9953 -1.4379
14512TIP3    H264952   4.751   0.458  10.922  0.3167 -0.2599 -0.6758
14513TIP3   OH264953   4.007   0.330  13.721  0.0768  0.0265  0.3840
14513TIP3    H164954   4.075   0.388  13.756 -1.0078  2.1233 -0.7460
14513TIP3    H264955   3.926   0.363  13.760 -0.9298  1.2064 -2.4309
14514TIP3   OH264956   0.386   2.556  10.122  0.0031 -0.7325 -0.0727
14514TIP3    H164957   0.473   2.518  10.111  0.2988 -0.1083  0.0821
14514TIP3    H264958   0.341   2.537  10.040  0.1436 -1.4075 -0.0023
14515TIP3   OH264959   2.369   4.211  13.273  0.6421  0.6054 -0.5684
14515TIP3    H164960   2.376   4.192  13.179  0.8033  0.3099 -0.4972
14515TIP3    H264961   2.459   4.211  13.304  0.6619  1.6894 -0.6004
14516TIP3   OH264962   1.426   4.224   4.682  0.0976 -0.1637  0.3852
14516TIP3    H164963   1.375   4.171   4.620  1.5564 -1.6799  0.4113
14516TIP3    H264964   1.368   4.235   4.757 -1.4913  1.2174 -0.9656
14517TIP3   OH264965   4.706   5.406  14.521 -0.6198 -0.1501  0.3454
14517TIP3    H164966   4.640   5.349  14.483 -0.3345  0.0845 -0.5355
14517TIP3    H264967   4.680   5.494  14.495  0.7957 -0.1494 -1.3000
14518TIP3   OH264968   6.885   1.625   2.614 -0.7731 -0.6066  0.1449
14518TIP3    H164969   6.801   1.601   2.575 -1.2398  1.3327 -0.1548
14518TIP3    H264970   6.901   1.714   2.583  2.4226 -1.5867 -1.5255
14519TIP3   OH264971   6.350   0.689   5.605  0.3137  0.0259 -0.0781
14519TIP3    H164972   6.367   0.606   5.560  0.2084 -0.4789  0.7796
14519TIP3    H264973   6.264   0.676   5.645  0.2556  0.5883 -0.0212
14520TIP3   OH264974   4.276   4.950   3.033  0.0111 -0.5088  0.6132
14520TIP3    H164975   4.251   4.924   2.944 -0.9476 -1.3505  1.1024
14520TIP3    H264976   4.204   5.006   3.063  0.0576 -0.6735  1.0453
14521TIP3   OH264977   6.066   3.895  12.989  0.1803  0.0910 -0.9995
14521TIP3    H164978   5.981   3.872  13.025 -0.1387 -0.5620 -2.1146
14521TIP3    H264979   6.051   3.904  12.895  1.7016 -2.0560 -1.5400
14522TIP3   OH264980   4.322   3.127   4.858  0.2441  0.2125  1.1512
14522TIP3    H164981   4.400   3.184   4.858 -0.1330  0.7503  1.8150
14522TIP3    H264982   4.355   3.041   4.884  0.4490  0.7267  2.7167
14523TIP3   OH264983   3.727   2.168  15.412  0.2534 -0.2957  0.1607
14523TIP3    H164984   3.734   2.083  15.455 -1.4813 -0.4850  0.1472
14523TIP3    H264985   3.691   2.226  15.480 -0.0207  0.0481 -0.2735
14524TIP3   OH264986   0.821   3.171  14.915  0.3059  0.3299 -0.0424
14524TIP3    H164987   0.845   3.111  14.844  1.2394  0.8887 -0.2163
14524TIP3    H264988   0.765   3.236  14.873 -2.0780 -1.2665  0.4697
14525TIP3   OH264989   2.584   2.200   4.080 -0.1364  0.1790  0.4841
14525TIP3    H164990   2.640   2.217   4.156 -0.3637  1.2206  0.4320
14525TIP3    H264991   2.554   2.110   4.092  2.5727 -0.9133 -0.1494
14526TIP3   OH264992   3.764   1.983   5.677 -0.7540 -0.0901  0.4979
14526TIP3    H164993   3.740   1.902   5.723 -0.6770 -0.1452  0.4403
14526TIP3    H264994   3.750   2.052   5.742 -0.4414 -0.1909  0.6744
14527TIP3   OH264995   1.151   6.788   5.479 -0.3895  0.1674 -0.1545
14527TIP3    H164996   1.089   6.720   5.452  0.1677 -0.5993  0.4612
14527TIP3    H264997   1.168   6.771   5.572 -0.3072  1.2057  0.0338
14528TIP3   OH264998   6.810   3.035   1.182  0.2980  0.1086 -0.6255
14528TIP3    H164999   6.799   2.943   1.155  0.4241 -0.2796  0.5875
14528TIP3    H265000   6.782   3.085   1.105 -1.0439 -0.9339 -0.8761
14529TIP3   OH265001   2.921   2.204  11.378 -0.5919 -0.5288 -0.7749
14529TIP3    H165002   2.839   2.250  11.392 -1.0021 -1.3505 -0.3920
14529TIP3    H265003   2.910   2.121  11.425  0.1650 -0.9693 -1.3531
14530TIP3   OH265004   2.189   1.034   4.400 -0.0892 -0.4990  0.1105
14530TIP3    H165005   2.161   1.086   4.475 -2.0166  2.3694 -2.3436
14530TIP3    H265006   2.285   1.040   4.401 -0.1644  2.8681  0.2732
14531TIP3   OH265007   4.155   0.373  15.544 -0.3629  0.0678  0.6607
14531TIP3    H165008   4.171   0.468  15.545  1.6600 -0.2426  1.8048
14531TIP3    H265009   4.159   0.349  15.451  0.3640  0.9043  0.4660
14532TIP3   OH265010   4.630   2.029   0.765 -0.1936 -0.7420 -0.0682
14532TIP3    H165011   4.638   2.109   0.713 -0.9654  0.3600  1.4306
14532TIP3    H265012   4.559   1.981   0.722 -2.1508  1.0445  0.9720
14533TIP3   OH265013   2.319   0.431  13.909 -0.3136 -0.0099  0.6973
14533TIP3    H165014   2.265   0.494  13.862 -1.2107 -1.2894 -0.0874
14533TIP3    H265015   2.256   0.365  13.941  0.7493 -1.5485 -0.2353
14534TIP3   OH265016   5.710   2.434   0.064 -0.1183  0.3532  0.1787
14534TIP3    H165017   5.621   2.441   0.098  0.1623 -1.4476  1.4035
14534TIP3    H265018   5.766   2.456   0.139  0.5047  1.1021 -0.4775
14535TIP3   OH265019   1.826   1.407  13.790 -0.1583  0.7176 -0.1676
14535TIP3    H165020   1.882   1.355  13.847  0.9467  1.4704 -0.5470
14535TIP3    H265021   1.737   1.376  13.809  0.4177 -0.9179  0.0034
14536TIP3   OH265022   5.626   3.007  12.849 -0.4182  0.0401 -0.0742
14536TIP3    H165023   5.532   3.027  12.845 -0.5587 -0.4665  0.5547
14536TIP3    H265024   5.668   3.081  12.805 -0.9613  1.4747  1.7186
14537TIP3   OH265025   1.412   6.075  11.145  0.7749 -0.1183  0.0197
14537TIP3    H165026   1.382   6.009  11.207 -1.1727  1.2499  0.6516
14537TIP3    H265027   1.341   6.085  11.082  1.6231  0.3736 -0.9064
14538TIP3   OH265028   4.542   4.242   6.190  0.5658  0.4508  0.0760
14538TIP3    H165029   4.518   4.308   6.255 -4.1422  0.6286 -1.4150
14538TIP3    H265030   4.572   4.293   6.115  0.3337  0.7024  0.1490
14539TIP3   OH265031   3.698   1.187  10.244 -0.1751  0.2063 -0.2713
14539TIP3    H165032   3.777   1.167  10.294 -0.7116  1.8471  1.3421
14539TIP3    H265033   3.711   1.277  10.213 -1.0444  0.1996 -0.6929
14540TIP3   OH265034   2.467   2.405  14.311 -0.5407 -0.2092  0.5108
14540TIP3    H165035   2.489   2.498  14.307 -0.9520 -0.0777  1.2697
14540TIP3    H265036   2.505   2.374  14.393 -0.6227 -0.6567  0.3872
14541TIP3   OH265037   6.025   4.276   5.572 -1.0579  0.3983 -0.0148
14541TIP3    H165038   5.947   4.332   5.576 -2.3458 -1.2135 -1.2980
14541TIP3    H265039   6.000   4.197   5.620  0.7662  0.8449  1.8423
14542TIP3   OH265040   5.235   6.798   0.571  0.4752 -0.4238  0.9432
14542TIP3    H165041   5.151   6.836   0.544  1.2529 -0.0383 -1.0726
14542TIP3    H265042   5.257   6.737   0.500  3.1518  1.4337  0.0476
14543TIP3   OH265043   0.189   3.613   1.658  0.4560  0.5533  0.1169
14543TIP3    H165044   0.155   3.700   1.681  0.9351  0.8879 -0.3951
14543TIP3    H265045   0.113   3.556   1.661  0.2740  0.8224  1.2560
14544TIP3   OH265046   3.828   2.664   2.913  0.3495 -0.4932  0.0690
14544TIP3    H165047   3.870   2.586   2.878 -0.2799 -0.3656 -0.9885
14544TIP3    H265048   3.743   2.668   2.870 -0.0225  0.2488  0.8333
14545TIP3   OH265049   5.486   0.713  10.176 -0.3478 -0.8653 -0.5397
14545TIP3    H165050   5.577   0.729  10.200  0.1769 -2.5486 -1.2599
14545TIP3    H265051   5.440   0.793  10.202  1.3788  0.1695 -0.5112
14546TIP3   OH265052   2.831   3.838   1.446  0.0376 -0.0478  0.0188
14546TIP3    H165053   2.808   3.876   1.361 -1.1069  0.8826  0.7216
14546TIP3    H265054   2.840   3.913   1.505 -1.6077 -0.7896  1.2836
14547TIP3   OH265055   6.405   6.385  16.376 -0.7959 -0.2892  0.0521
14547TIP3    H165056   6.471   6.441  16.415 -0.0666  0.4249 -2.0522
14547TIP3    H265057   6.451   6.303  16.356 -1.4878 -1.1508  1.7750
14548TIP3   OH265058   3.319   5.730  16.705  0.0912 -0.0410  0.5034
14548TIP3    H165059   3.379   5.743  16.779 -0.1922  1.0740  0.5462
14548TIP3    H265060   3.233   5.749  16.740 -0.0728  0.2689 -0.0561
14549TIP3   OH265061   3.284   5.076   0.355  0.2571 -0.0150  0.2758
14549TIP3    H165062   3.221   5.105   0.421  0.9505  1.5852  0.2673
14549TIP3    H265063   3.368   5.072   0.401  0.4813 -0.3604 -0.1521
14550TIP3   OH265064   5.957   2.392   2.964 -0.4999  0.0562  0.0711
14550TIP3    H165065   5.935   2.358   3.051 -1.5279  1.1610  0.2711
14550TIP3    H265066   5.886   2.361   2.907 -0.4249  0.2642 -0.1390
14551TIP3   OH265067   5.588   5.270  14.973  0.4083  0.7463 -0.2548
14551TIP3    H165068   5.593   5.306  15.062 -2.4753  0.4546  0.1086
14551TIP3    H265069   5.542   5.187  14.983  1.1969  0.0656 -1.9040
14552TIP3   OH265070   2.892   6.367  13.262 -0.2066  0.3341 -0.0133
14552TIP3    H165071   2.811   6.411  13.233  0.7857  1.5081 -1.1701
14552TIP3    H265072   2.891   6.283  13.217 -0.1781  0.8945 -1.1197
14553TIP3   OH265073   6.700   5.901   5.719  0.0827  0.6744  0.1749
14553TIP3    H165074   6.667   5.859   5.798  1.3366 -0.7610 -0.0210
14553TIP3    H265075   6.628   5.894   5.656 -0.5300  0.8463  0.8473
14554TIP3   OH265076   1.375   0.337   3.260 -0.0397 -0.2002 -0.6118
14554TIP3    H165077   1.339   0.390   3.331 -0.1588 -0.9526 -0.0947
14554TIP3    H265078   1.466   0.323   3.283  0.5163  1.3364 -1.7038
14555TIP3   OH265079   6.361   6.064  14.930  0.0641  0.2790  0.4226
14555TIP3    H165080   6.392   5.980  14.962  1.4934  1.1001  1.2883
14555TIP3    H265081   6.411   6.080  14.850 -0.5032  0.1225  0.0330
14556TIP3   OH265082   4.182   0.810  16.438  0.4438 -0.0752 -0.4073
14556TIP3    H165083   4.205   0.858  16.358  1.1324  1.1351  0.4712
14556TIP3    H265084   4.259   0.821  16.495 -0.6709  0.5168  1.0406
14557TIP3   OH265085   2.048   3.091  15.795 -0.2276  0.0035 -0.3754
14557TIP3    H165086   2.134   3.062  15.826 -0.4447 -0.6508 -0.3663
14557TIP3    H265087   2.009   3.136  15.870 -0.0300 -0.0033 -0.2695
14558TIP3   OH265088   1.379   0.134   0.805  0.5269  0.2060 -0.1077
14558TIP3    H165089   1.346   0.193   0.873 -0.5213 -0.8146  0.3040
14558TIP3    H265090   1.474   0.143   0.810  0.4375  0.8004  0.8930
14559TIP3   OH265091   3.537   1.587  10.599 -0.1210  0.1414  0.0881
14559TIP3    H165092   3.499   1.667  10.564 -1.0189 -1.1580 -2.1112
14559TIP3    H265093   3.600   1.617  10.665  0.6707  2.7295 -1.6954
14560TIP3   OH265094   1.236   0.401   4.249 -0.2743 -0.2002 -0.0919
14560TIP3    H165095   1.318   0.416   4.296  0.2971  0.5632 -1.2751
14560TIP3    H265096   1.263   0.366   4.164 -1.1195  0.5826 -0.7079
14561TIP3   OH265097   1.433   2.624   4.574  0.4428 -0.2347  0.2555
14561TIP3    H165098   1.405   2.565   4.504 -0.4041 -1.1729  1.3565
14561TIP3    H265099   1.514   2.663   4.540  0.8694 -1.7871 -0.6354
14562TIP3   OH265100   2.597   6.680   2.033 -0.4446  0.3703 -0.2673
14562TIP3    H165101   2.516   6.716   2.071 -1.0427 -1.3946  0.2307
14562TIP3    H265102   2.581   6.681   1.939 -0.5209  1.2001 -0.2531
14563TIP3   OH265103   2.288   6.008   3.533 -0.0756  0.4538 -0.1088
14563TIP3    H165104   2.280   6.058   3.614  1.9675 -1.2245  1.2693
14563TIP3    H265105   2.198   5.988   3.508 -0.8689 -1.2666  3.3597
14564TIP3   OH265106   5.366   6.294   2.247 -0.6908 -0.0250  0.0120
14564TIP3    H165107   5.412   6.280   2.330 -1.9821 -0.0491  0.7654
14564TIP3    H265108   5.434   6.318   2.185  0.3261 -0.1034  1.0594
14565TIP3   OH265109   6.766   6.613  13.158 -0.0434 -0.0967 -0.2007
14565TIP3    H165110   6.714   6.627  13.238  0.5884 -0.4537  0.2868
14565TIP3    H265111   6.778   6.701  13.122 -1.0404 -0.0208 -0.3576
14566TIP3   OH265112   4.552   4.346   1.038  0.3860 -0.0274 -0.4992
14566TIP3    H165113   4.574   4.274   0.980  1.0743  0.8230 -1.3344
14566TIP3    H265114   4.612   4.416   1.013  0.6886  0.3810  1.2330
14567TIP3   OH265115   4.139   0.535   2.768  0.1443 -0.5680 -0.1187
14567TIP3    H165116   4.102   0.597   2.706 -1.0444 -0.1457  0.9677
14567TIP3    H265117   4.067   0.512   2.826  1.0646 -1.4124  0.7490
14568TIP3   OH265118   3.347   6.390   5.158 -0.3989  0.2462 -0.2589
14568TIP3    H165119   3.300   6.310   5.182 -0.2655  0.1400 -0.3475
14568TIP3    H265120   3.438   6.373   5.185 -0.2717  0.1754 -0.7265
14569TIP3   OH265121   1.108   2.789   5.587  0.2310  0.9047 -0.2715
14569TIP3    H165122   1.162   2.763   5.661 -1.5635 -2.1658  0.1259
14569TIP3    H265123   1.057   2.864   5.619  0.3761  0.4047  1.1950
14570TIP3   OH265124   5.925   4.942  14.297  0.5679 -0.4698 -0.4379
14570TIP3    H165125   6.020   4.935  14.288  0.2885 -2.4207 -2.7610
14570TIP3    H265126   5.904   5.029  14.265  1.4785 -0.4542 -1.0317
14571TIP3   OH265127   0.498   6.398  10.735 -0.2085  0.4958  0.2149
14571TIP3    H165128   0.594   6.396  10.735 -0.2075  0.4328  0.7020
14571TIP3    H265129   0.476   6.457  10.808 -0.5703 -1.3542  1.6705
14572TIP3   OH265130   4.742   0.257  16.652  0.4141  0.2164 -0.1777
14572TIP3    H165131   4.796   0.295  16.721  0.4026 -0.3566  0.1450
14572TIP3    H265132   4.764   0.164  16.651 -2.9771 -0.8072  2.2639
14573TIP3   OH265133   3.360   6.259  11.047  0.2003  0.2304 -0.0815
14573TIP3    H165134   3.332   6.338  11.093  0.9579  0.1808  0.4955
14573TIP3    H265135   3.455   6.256  11.061  0.1976 -0.7222 -0.1748
14574TIP3   OH265136   4.304   4.785  14.220  0.5032  0.0152  0.4045
14574TIP3    H165137   4.343   4.797  14.133 -1.4073  1.3408 -0.3384
14574TIP3    H265138   4.297   4.874  14.256 -0.9925 -0.2506  0.8487
14575TIP3   OH265139   3.726   3.202  15.316 -0.0526  0.2274  0.6104
14575TIP3    H165140   3.751   3.279  15.265 -0.7988 -1.4533 -2.5623
14575TIP3    H265141   3.795   3.138  15.298  0.0285 -0.2503  2.3918
14576TIP3   OH265142   2.731   2.374  15.183  1.0746 -0.2466  0.1129
14576TIP3    H165143   2.826   2.381  15.168  0.9980 -1.3720 -1.1363
14576TIP3    H265144   2.707   2.292  15.140 -0.9271  1.3571 -2.0707
14577TIP3   OH265145   5.365   5.925  13.418  0.0031  0.3381  0.6086
14577TIP3    H165146   5.287   5.940  13.472 -1.2872 -0.6289 -0.8931
14577TIP3    H265147   5.411   6.008  13.419 -2.4594  1.8395 -0.6209
14578TIP3   OH265148   5.014   6.435  15.037  0.0006 -0.2907 -0.5103
14578TIP3    H165149   4.990   6.373  15.105  0.1211 -0.4553 -0.6168
14578TIP3    H265150   5.110   6.435  15.038  0.0169  0.8922  0.4068
14579TIP3   OH265151   3.729   2.474   4.326 -0.1878  0.1843  0.4122
14579TIP3    H165152   3.799   2.438   4.380 -0.9000 -0.2175  1.0966
14579TIP3    H265153   3.774   2.519   4.254  0.8155  1.4329  1.7592
14580TIP3   OH265154   4.006   5.620  13.198  0.3069  0.0619  0.9914
14580TIP3    H165155   4.056   5.668  13.263  1.5227  1.3354 -0.7981
14580TIP3    H265156   4.012   5.528  13.225 -2.5539  0.7421  4.8182
14581TIP3   OH265157   2.205   3.072   1.757 -0.4067  0.7271  0.3389
14581TIP3    H165158   2.244   3.135   1.817 -0.3712 -0.0428  1.1494
14581TIP3    H265159   2.110   3.082   1.769 -0.4289  1.2434 -0.2024
14582TIP3   OH265160   0.745   2.518  11.432  0.0095 -0.1253  0.1728
14582TIP3    H165161   0.708   2.603  11.411 -0.7337 -0.2663  0.8482
14582TIP3    H265162   0.714   2.461  11.362  0.1029  0.0588 -0.0185
14583TIP3   OH265163   0.802   4.104  12.350  0.1798  0.1401  0.2191
14583TIP3    H165164   0.707   4.113  12.337  0.0352 -0.7020  0.6187
14583TIP3    H265165   0.838   4.189  12.326 -0.5199  0.0195 -1.3989
14584TIP3   OH265166   2.069   2.225  12.234 -0.1339  0.2424 -0.1553
14584TIP3    H165167   2.143   2.194  12.286  0.0967  0.2604 -0.4682
14584TIP3    H265168   2.085   2.190  12.146 -1.9898 -2.2420  0.3827
14585TIP3   OH265169   5.255   3.564  12.565  0.4017 -0.4842  0.2492
14585TIP3    H165170   5.334   3.605  12.529  0.9778 -1.5414  0.2585
14585TIP3    H265171   5.223   3.508  12.494  0.1818 -0.7560  0.5598
14586TIP3   OH265172   3.784   4.582   5.690  0.0084  0.2438  0.6988
14586TIP3    H165173   3.826   4.556   5.771 -0.6405  0.5652  1.1444
14586TIP3    H265174   3.857   4.591   5.627  0.5605  0.4698  1.3606
14587TIP3   OH265175   5.753   5.543  11.109  0.9533  0.5662  0.0966
14587TIP3    H165176   5.838   5.510  11.081 -0.1836 -1.7621 -0.8043
14587TIP3    H265177   5.729   5.490  11.185 -1.3946 -1.6523 -2.0226
14588TIP3   OH265178   5.567   1.027  14.770  0.3033 -0.1979  0.4788
14588TIP3    H165179   5.599   1.070  14.849 -1.8952  0.9719  0.8315
14588TIP3    H265180   5.642   1.027  14.710  1.7842 -0.4022  2.2495
14589TIP3   OH265181   1.467   0.738   5.740 -0.0602  0.4034  0.9283
14589TIP3    H165182   1.438   0.738   5.649  1.6819 -0.9217  0.3139
14589TIP3    H265183   1.396   0.695   5.788 -0.6215  0.3300  0.0534
14590TIP3   OH265184   3.559   6.636   3.622 -0.6729 -0.5882 -0.1348
14590TIP3    H165185   3.592   6.609   3.536  0.4267 -0.4809  0.2288
14590TIP3    H265186   3.588   6.566   3.681  0.9053  0.5854  0.5686
14591TIP3   OH265187   5.294   6.697   1.199  0.1873  0.0814  0.4734
14591TIP3    H165188   5.348   6.632   1.245 -0.0438 -1.2882 -1.0791
14591TIP3    H265189   5.222   6.646   1.163  0.6009  0.9739 -1.7671
14592TIP3   OH265190   1.627   1.287  14.259 -0.3536 -0.1131  0.2962
14592TIP3    H165191   1.646   1.311  14.350 -0.0446 -0.8774  0.4444
14592TIP3    H265192   1.548   1.233  14.265 -0.0840 -0.5291  0.1694
14593TIP3   OH265193   6.754   0.489   1.408  0.6314 -0.3406 -0.2021
14593TIP3    H165194   6.696   0.546   1.458  2.2729  2.0858 -0.8889
14593TIP3    H265195   6.695   0.422   1.371 -1.6893  1.6962 -0.4985
14594TIP3   OH265196   3.132   0.701   0.299  0.1338 -0.0576  0.0874
14594TIP3    H165197   3.078   0.733   0.226  1.3912  0.0866 -0.8265
14594TIP3    H265198   3.190   0.774   0.319  0.2712 -0.3484  0.7663
14595TIP3   OH265199   1.056   3.981  13.327 -0.2322 -0.3381 -0.2180
14595TIP3    H165200   0.995   3.934  13.384  0.9764 -2.0748 -0.3102
14595TIP3    H265201   1.068   3.924  13.251  2.9834 -1.0198  0.6581
14596TIP3   OH265202   1.781   1.889   4.824  0.0381 -0.2955 -0.0543
14596TIP3    H165203   1.847   1.957   4.808 -0.2487 -0.0032  0.0129
14596TIP3    H265204   1.795   1.864   4.915  0.5677 -0.7859 -0.2589
14597TIP3   OH265205   4.568   3.837   0.370  0.0102  0.0209 -0.6019
14597TIP3    H165206   4.649   3.853   0.418  2.0425 -2.1437 -2.9952
14597TIP3    H265207   4.580   3.883   0.287 -1.2915 -0.2165 -0.9418
14598TIP3   OH265208   2.910   0.866  13.360  0.9565 -0.0832  0.2540
14598TIP3    H165209   2.969   0.935  13.331  1.1675 -1.0188 -1.7477
14598TIP3    H265210   2.931   0.791  13.304  1.1213 -1.9938  2.6827
14599TIP3   OH265211   0.789   2.262   2.820  0.0186 -0.0138 -0.7001
14599TIP3    H165212   0.697   2.237   2.825 -0.1660  0.7809  0.1641
14599TIP3    H265213   0.836   2.187   2.856 -0.1026 -1.2957 -3.0333
14600TIP3   OH265214   5.002   4.471  12.893 -0.0603 -0.0469 -0.5183
14600TIP3    H165215   4.978   4.562  12.912 -1.6921 -0.7417  1.0106
14600TIP3    H265216   5.096   4.468  12.908 -0.0645  1.2540 -0.0617
14601TIP3   OH265217   3.721   1.490  15.893  0.0225  0.0534  0.0748
14601TIP3    H165218   3.683   1.417  15.942  0.8932  0.9626  2.2013
14601TIP3    H265219   3.728   1.457  15.803 -1.9810 -1.5498  0.4290
14602TIP3   OH265220   0.757   6.350   2.108 -0.2956  0.0480 -0.3766
14602TIP3    H165221   0.849   6.337   2.089 -0.1274  0.8936 -0.1898
14602TIP3    H265222   0.737   6.287   2.178 -0.1721 -0.9725 -1.2416
14603TIP3   OH265223   2.270   0.516  16.045 -0.3588  0.3760 -0.0268
14603TIP3    H165224   2.325   0.460  16.099 -1.8579  1.5829  2.9977
14603TIP3    H265225   2.192   0.464  16.029 -0.5947  0.5810  0.4217
14604TIP3   OH265226   3.759   2.722   1.892 -0.0766  0.0062 -0.1056
14604TIP3    H165227   3.777   2.761   1.977  1.8028  0.2825 -0.5862
14604TIP3    H265228   3.766   2.794   1.830 -4.2875  0.4846 -0.3704
14605TIP3   OH265229   0.251   6.659  10.367 -0.6735 -0.1589  0.3223
14605TIP3    H165230   0.293   6.715  10.301 -0.1427  0.9156  1.5228
14605TIP3    H265231   0.318   6.595  10.391 -0.4256  0.2531  0.7360
14606TIP3   OH265232   3.266   0.876  13.051  0.0461  0.6320 -0.4335
14606TIP3    H165233   3.341   0.818  13.054  0.4170  1.1323  0.8586
14606TIP3    H265234   3.255   0.897  12.958  0.4415 -0.7686 -0.8261
14607TIP3   OH265235   5.425   0.998   0.233 -0.0539  0.1564  0.3745
14607TIP3    H165236   5.492   1.030   0.293  0.0138  1.4118 -0.3212
14607TIP3    H265237   5.467   1.000   0.147 -1.0030  1.1312 -0.0968
14608TIP3   OH265238   2.865   1.877   3.278 -0.4687 -0.5014  0.4215
14608TIP3    H165239   2.782   1.844   3.244  0.3894 -1.9111 -0.3684
14608TIP3    H265240   2.913   1.799   3.307 -0.4385  0.4687  3.3433
14609TIP3   OH265241   5.398   2.647   3.601  0.0736  0.1618  0.1083
14609TIP3    H165242   5.323   2.698   3.631 -0.0039 -0.7305  1.5309
14609TIP3    H265243   5.471   2.676   3.655 -0.1082 -1.6133  1.4021
14610TIP3   OH265244   2.080   5.911  13.147  0.3341  0.2260 -0.2507
14610TIP3    H165245   2.157   5.867  13.183  1.6018  2.6874  0.2463
14610TIP3    H265246   2.006   5.860  13.180  1.6549 -3.0298 -1.8047
14611TIP3   OH265247   0.299   6.567  14.532  0.4528  0.1806 -0.6325
14611TIP3    H165248   0.224   6.526  14.489 -0.6633  0.1554  1.1982
14611TIP3    H265249   0.278   6.660  14.536 -0.0022  0.0383  0.7998
14612TIP3   OH265250   6.876   3.199  16.103 -0.3109  0.0905 -0.2057
14612TIP3    H165251   6.972   3.193  16.108 -0.1150  0.0168 -2.6040
14612TIP3    H265252   6.860   3.248  16.022 -2.3151  0.1161  0.1583
14613TIP3   OH265253   3.315   0.725   5.740 -0.3477 -0.3855  0.1833
14613TIP3    H165254   3.398   0.702   5.782 -0.0804  0.3348  0.0580
14613TIP3    H265255   3.249   0.708   5.807  0.2369  2.7788  1.7281
14614TIP3   OH265256   6.481   0.435   1.006  0.0041  0.2690 -0.1822
14614TIP3    H165257   6.426   0.483   0.944  1.5610  0.5169 -1.4368
14614TIP3    H265258   6.434   0.441   1.089 -0.2441  3.3150 -0.4342
14615TIP3   OH265259   0.127   3.648   1.269  0.0282 -0.0496  0.0635
14615TIP3    H165260   0.139   3.591   1.345 -1.4029  0.3764  0.6423
14615TIP3    H265261   0.071   3.719   1.301  0.6916  0.9794 -0.9872
14616TIP3   OH265262   2.759   6.348   1.826  0.3814 -0.2772  0.0385
14616TIP3    H165263   2.785   6.438   1.846  0.4914 -0.3880  0.4077
14616TIP3    H265264   2.809   6.294   1.887 -1.0813 -0.4545  1.1393
14617TIP3   OH265265   6.427   4.359  11.038 -0.2441 -0.0164  0.4020
14617TIP3    H165266   6.510   4.341  11.081  0.7009 -1.7930 -1.9349
14617TIP3    H265267   6.444   4.434  10.981  0.2609 -1.2365 -1.1369
14618TIP3   OH265268   2.448   4.469  11.105 -0.1878  0.2777 -0.1409
14618TIP3    H165269   2.445   4.479  11.010 -1.4045 -0.4686 -0.1953
14618TIP3    H265270   2.514   4.400  11.119  0.7275  1.0816 -0.3589
14619TIP3   OH265271   5.814   2.261   2.774  0.0874 -0.2526  0.0481
14619TIP3    H165272   5.757   2.225   2.843  0.4332 -0.8423  0.0327
14619TIP3    H265273   5.782   2.221   2.693 -0.9546  1.1988 -0.2873
14620TIP3   OH265274   6.147   5.253  12.480  0.3547  0.0909 -0.6548
14620TIP3    H165275   6.103   5.322  12.529  0.0600 -0.7232  0.2572
14620TIP3    H265276   6.091   5.176  12.490  1.1550 -0.5335 -0.8460
14621TIP3   OH265277   6.503   2.312   0.423 -0.0708  0.1666 -0.0440
14621TIP3    H165278   6.437   2.244   0.409 -1.7842  1.8346 -0.6164
14621TIP3    H265279   6.541   2.327   0.337 -0.5705  0.7326 -0.1773
14622TIP3   OH265280   1.495   4.344   1.152 -0.0663  0.5795  0.1565
14622TIP3    H165281   1.464   4.269   1.101  0.9316  0.0496  0.3021
14622TIP3    H265282   1.563   4.384   1.098 -0.4118  1.2220  0.1962
14623TIP3   OH265283   3.432   4.748   1.583 -0.2536  1.0261 -0.1504
14623TIP3    H165284   3.345   4.759   1.545 -0.9111 -1.5093  0.4315
14623TIP3    H265285   3.491   4.738   1.508 -0.8199  0.5889 -0.5420
14624TIP3   OH265286   3.676   2.226   3.780 -0.1847  0.2954  0.4004
14624TIP3    H165287   3.765   2.260   3.787 -0.3548  0.9899 -0.5836
14624TIP3    H265288   3.652   2.202   3.869  0.6665  0.9376  0.8135
14625TIP3   OH265289   4.151   4.684  11.472 -0.0131  0.0561 -0.2786
14625TIP3    H165290   4.079   4.719  11.524  0.9268  1.2310  0.2874
14625TIP3    H265291   4.187   4.613  11.525  0.5576  0.8544  0.4449
14626TIP3   OH265292   5.083   4.483  10.534 -0.0325  0.0858 -0.2844
14626TIP3    H165293   5.019   4.532  10.482 -0.7666  0.4194  0.8907
14626TIP3    H265294   5.066   4.391  10.513 -1.0710  0.1535  0.1759
14627TIP3   OH265295   5.820   4.371   0.977 -0.0257  0.7301 -0.1423
14627TIP3    H165296   5.888   4.330   1.029  1.2361  2.3732 -0.4071
14627TIP3    H265297   5.781   4.300   0.927  0.3358 -0.5052  1.2714
14628TIP3   OH265298   0.332   1.629   9.655 -0.2791  0.3458  0.3046
14628TIP3    H165299   0.267   1.560   9.640  3.0972 -2.5109 -3.0976
14628TIP3    H265300   0.300   1.704   9.605 -1.3043 -0.7401 -0.7222
14629TIP3   OH265301   0.625   1.191  16.318 -0.1418 -0.3511 -0.4807
14629TIP3    H165302   0.599   1.101  16.300 -1.8780 -0.0246  0.2259
14629TIP3    H265303   0.556   1.244  16.279  0.8763  0.6927 -0.9236
14630TIP3   OH265304   6.176   1.015   0.804 -0.4731  0.3789  0.2607
14630TIP3    H165305   6.202   1.103   0.776 -0.1520  0.4027  0.6200
14630TIP3    H265306   6.229   0.999   0.883  1.0080 -0.9516 -0.9344
14631TIP3   OH265307   3.449   4.616   2.614  0.0212  0.1616 -0.0387
14631TIP3    H165308   3.462   4.533   2.567  1.0080  0.1234  0.2731
14631TIP3    H265309   3.524   4.670   2.587 -1.0484  1.2614 -0.8739
14632TIP3   OH265310   0.556   4.573  13.848  0.3067  0.1634 -0.3641
14632TIP3    H165311   0.634   4.570  13.903  0.2337 -1.8581 -0.2953
14632TIP3    H265312   0.589   4.555  13.760  0.1439  1.2076 -0.6474
14633TIP3   OH265313   6.241   1.251  12.937  0.3178  0.6991 -0.3132
14633TIP3    H165314   6.155   1.286  12.915  0.1961  2.0097  1.9942
14633TIP3    H265315   6.226   1.158  12.953 -0.2024  0.4380 -2.1282
14634TIP3   OH265316   2.041   6.669   2.133 -0.1506 -0.0208  0.2381
14634TIP3    H165317   1.996   6.678   2.217  0.4726 -0.3015  0.6132
14634TIP3    H265318   2.076   6.756   2.115 -0.4725  0.0929  0.1614
14635TIP3   OH265319   4.739   0.834  16.344  0.4897  0.0129 -0.3089
14635TIP3    H165320   4.704   0.866  16.261  2.0266 -2.5675 -2.0674
14635TIP3    H265321   4.833   0.822  16.328  0.6185 -1.6914  1.3915
14636TIP3   OH265322   0.313   4.044  14.542 -0.0079  0.4255  0.3333
14636TIP3    H165323   0.378   3.987  14.501 -0.1519  0.0027  0.6886
14636TIP3    H265324   0.315   4.124  14.490  0.1633  0.0797 -0.1951
14637TIP3   OH265325   2.058   3.409  16.681 -0.1957 -0.9504 -0.3785
14637TIP3    H165326   1.990   3.410  16.613 -1.7348 -0.3936  1.0796
14637TIP3    H265327   2.029   3.341  16.742  1.5245 -1.9287 -0.5843
14638TIP3   OH265328   3.811   3.167   3.572  0.0697 -0.1249 -0.0829
14638TIP3    H165329   3.844   3.097   3.629  0.6547  0.8952  0.8663
14638TIP3    H265330   3.784   3.121   3.492  1.0867 -1.3651  0.2357
14639TIP3   OH265331   3.526   5.227   3.872 -0.0113  0.1804  0.1368
14639TIP3    H165332   3.461   5.210   3.804  0.0414 -3.1550  0.7496
14639TIP3    H265333   3.575   5.303   3.840 -1.7147  0.3940 -2.1895
14640TIP3   OH265334   2.264   3.560  11.133  0.0972  0.0129  0.0418
14640TIP3    H165335   2.310   3.495  11.080  0.9371 -2.2298  3.1996
14640TIP3    H265336   2.332   3.623  11.159 -0.1493  0.6605 -0.8398
14641TIP3   OH265337   0.890   2.239  10.359  0.1791  0.1677 -0.1428
14641TIP3    H165338   0.945   2.278  10.291  0.5816  0.3802  0.2912
14641TIP3    H265339   0.801   2.253  10.329  0.3249  1.0974 -0.1826
14642TIP3   OH265340   4.124   4.916  16.012 -0.2867 -0.0188  0.1013
14642TIP3    H165341   4.144   4.945  16.101  0.4582 -1.8172  0.5768
14642TIP3    H265342   4.164   4.981  15.955 -1.0861  1.3593  1.0678
14643TIP3   OH265343   4.142   0.962   0.377 -0.4257 -0.2991 -0.0176
14643TIP3    H165344   4.130   0.985   0.285 -0.7965 -1.4110 -0.2647
14643TIP3    H265345   4.174   0.872   0.375 -2.1717 -0.9963  0.9900
14644TIP3   OH265346   6.396   0.760  13.166  0.5296 -0.6414 -0.1651
14644TIP3    H165347   6.456   0.757  13.092  0.5592  0.4898 -0.2029
14644TIP3    H265348   6.390   0.669  13.196 -0.3189 -1.3280 -2.2180
14645TIP3   OH265349   5.058   4.149   1.356  0.3999  0.0199  0.3760
14645TIP3    H165350   5.047   4.125   1.448  1.7408  1.3823  0.9349
14645TIP3    H265351   5.120   4.085   1.321 -1.1721 -1.3568  0.0020
14646TIP3   OH265352   2.832   5.324  13.887 -0.6577  0.1619  0.8878
14646TIP3    H165353   2.921   5.306  13.919 -0.9829  1.3029  2.5400
14646TIP3    H265354   2.786   5.360  13.962 -2.7096 -0.8969  0.2252
14647TIP3   OH265355   4.454   3.728  15.461  0.1124 -0.3401 -0.1212
14647TIP3    H165356   4.472   3.758  15.551  2.1842 -1.3311 -0.1371
14647TIP3    H265357   4.444   3.634  15.469 -2.5485 -0.1559 -0.5974
14648TIP3   OH265358   0.104   4.354   0.001  0.1821 -0.3901 -0.5481
14648TIP3    H165359   0.019   4.390   0.023  0.8722  0.4807  0.7803
14648TIP3    H265360   0.161   4.430  -0.010  0.9825 -0.9847 -0.6356
14649TIP3   OH265361   6.241   0.214  14.636  0.5561  0.2859  0.0907
14649TIP3    H165362   6.160   0.227  14.587 -0.2252  1.0308  1.4983
14649TIP3    H265363   6.242   0.120  14.656  0.7268  0.0362 -1.0464
14650TIP3   OH265364   2.504   5.812   1.820  0.2349  0.3984 -0.7233
14650TIP3    H165365   2.560   5.795   1.896 -0.1182  1.2022 -0.2733
14650TIP3    H265366   2.483   5.905   1.826 -2.4734 -0.1557  0.0581
14651TIP3   OH265367   1.452   6.225  14.265  0.7881  0.6532  0.3783
14651TIP3    H165368   1.498   6.148  14.231  1.3427  0.4540  1.5591
14651TIP3    H265369   1.496   6.299  14.223 -0.7814  0.3275 -2.0328
14652TIP3   OH265370   6.248   3.268   0.490  0.3831  0.5892 -0.2211
14652TIP3    H165371   6.338   3.288   0.518 -0.3923  1.4474  1.8758
14652TIP3    H265372   6.194   3.295   0.564 -1.4654 -1.6663 -0.6463
14653TIP3   OH265373   4.446   2.510  15.284  0.0448  0.5838  0.2679
14653TIP3    H165374   4.469   2.419  15.301  0.5524  0.9963  2.0542
14653TIP3    H265375   4.353   2.515  15.304 -0.0543  0.4064 -0.1307
14654TIP3   OH265376   4.129   1.814   5.459 -0.1207  0.3047  0.0113
14654TIP3    H165377   4.190   1.745   5.485  1.7073  1.2724 -1.4852
14654TIP3    H265378   4.045   1.787   5.497  0.8992 -1.8169  0.9293
14655TIP3   OH265379   3.380   4.553   4.578  0.2016  0.3815  0.1560
14655TIP3    H165380   3.398   4.619   4.512  1.2439 -0.2998 -0.2685
14655TIP3    H265381   3.463   4.540   4.624  0.6033 -1.9750 -1.0473
14656TIP3   OH265382   4.204   6.897   5.707  0.2125 -0.5396 -0.5102
14656TIP3    H165383   4.251   6.819   5.676  1.7796  0.4761 -0.7561
14656TIP3    H265384   4.221   6.899   5.801  0.3704 -0.3490 -0.5447
14657TIP3   OH265385   4.737   5.739  13.493  0.2551 -0.0937 -0.8933
14657TIP3    H165386   4.660   5.726  13.439 -1.9362 -0.2681  2.0216
14657TIP3    H265387   4.766   5.828  13.472 -1.4330  0.4015 -1.2685
14658TIP3   OH265388   3.406   6.892   1.075  0.9758 -0.4407 -0.3050
14658TIP3    H165389   3.386   6.814   1.127 -0.8672 -0.6656 -1.2732
14658TIP3    H265390   3.399   6.964   1.138  1.9477 -0.9552  0.4284
14659TIP3   OH265391   3.699   0.348   2.878 -0.3737 -0.2353  0.7049
14659TIP3    H165392   3.781   0.314   2.841  0.0219 -0.1466  1.4725
14659TIP3    H265393   3.723   0.435   2.911 -0.6288 -0.4489  1.4637
14660TIP3   OH265394   1.241   2.658  12.644  0.5321  0.0216  0.0853
14660TIP3    H165395   1.262   2.732  12.587  0.6981  0.1070  0.2559
14660TIP3    H265396   1.206   2.697  12.724 -1.1042 -0.1459 -0.5155
14661TIP3   OH265397   6.006   5.396   2.546 -0.0581  0.1347  0.7421
14661TIP3    H165398   5.981   5.409   2.455  2.9567 -2.4170 -0.6538
14661TIP3    H265399   6.070   5.465   2.563  1.8303 -1.2559 -0.3028
14662TIP3   OH265400   2.143   5.158   1.554 -0.1886  0.1554  0.0344
14662TIP3    H165401   2.185   5.239   1.581 -0.3248 -0.3740  1.9960
14662TIP3    H265402   2.128   5.110   1.635  1.7674 -2.7951 -1.1718
14663TIP3   OH265403   6.672   2.828   1.598  0.3238 -0.4328 -0.7451
14663TIP3    H165404   6.619   2.809   1.675 -0.9391 -0.1153 -1.5016
14663TIP3    H265405   6.608   2.843   1.528  1.4322 -0.5443 -1.8170
14664TIP3   OH265406   0.150   2.747  14.127  0.2548  0.3308  0.2822
14664TIP3    H165407   0.111   2.706  14.050  1.3672  1.6432 -1.0384
14664TIP3    H265408   0.203   2.678  14.167 -1.2021 -0.6739  0.5264
14665TIP3   OH265409   0.007   6.853  14.814 -0.3347  0.0806  0.2546
14665TIP3    H165410  -0.008   6.816  14.901  1.7164  0.1081  0.6652
14665TIP3    H265411   0.021   6.776  14.758  0.3038  0.1140  0.3631
14666TIP3   OH265412   0.125   5.325   0.241  0.0679 -0.1021  0.2200
14666TIP3    H165413   0.109   5.420   0.235  1.2014  0.1588  0.9421
14666TIP3    H265414   0.043   5.289   0.274 -0.3009  0.6659  0.1634
14667TIP3   OH265415   4.468   0.969  13.607 -0.6491  0.2917  0.5093
14667TIP3    H165416   4.539   1.017  13.563 -1.0205  1.0644  0.7382
14667TIP3    H265417   4.505   0.942  13.691 -0.2918 -0.2324  0.1915
14668TIP3   OH265418   6.188   6.381  15.677 -0.7868  0.0916  0.3376
14668TIP3    H165419   6.234   6.376  15.760 -0.8205 -1.1763  0.2975
14668TIP3    H265420   6.243   6.332  15.615 -0.7061  1.1027 -0.4201
14669TIP3   OH265421   0.465   2.462   1.522  0.1419 -0.4096  0.8077
14669TIP3    H165422   0.475   2.544   1.570  0.2854 -1.2530  2.2670
14669TIP3    H265423   0.553   2.444   1.487  0.0267  0.2253  0.1741
14670TIP3   OH265424   2.731   5.005  15.435  0.7439 -0.3975 -0.1524
14670TIP3    H165425   2.784   4.926  15.434  2.5903  0.7980 -0.3123
14670TIP3    H265426   2.746   5.046  15.350  1.1143  0.9400  0.5303
14671TIP3   OH265427   3.105   3.042   5.264  0.4695  0.3035  0.3946
14671TIP3    H165428   3.146   2.964   5.303 -0.9365 -0.5289  0.2627
14671TIP3    H265429   3.012   3.033   5.284  0.1216  1.3487 -0.6522
14672TIP3   OH265430   0.690   3.622   4.418  0.0862  0.0160 -0.1750
14672TIP3    H165431   0.661   3.643   4.507  1.0003  0.4074  0.0474
14672TIP3    H265432   0.766   3.679   4.404  0.7572 -0.9841 -0.7051
14673TIP3   OH265433   0.701   0.477   4.482  0.0336  0.0914 -0.7531
14673TIP3    H165434   0.622   0.430   4.454 -1.4509  2.2068 -0.3634
14673TIP3    H265435   0.683   0.499   4.573  0.1852  2.2387 -1.1929
14674TIP3   OH265436   4.669   0.325  15.932  0.1392  0.0491 -0.2319
14674TIP3    H165437   4.720   0.284  15.862 -1.2667 -1.4741 -0.4301
14674TIP3    H265438   4.734   0.369  15.987  1.5461 -0.9003 -1.0742
14675TIP3   OH265439   1.268   5.076   5.291 -0.5379  0.1075  0.0799
14675TIP3    H165440   1.222   5.016   5.350  0.7950  0.3351  1.4088
14675TIP3    H265441   1.300   5.021   5.220 -1.1594 -0.3713  0.1575
14676TIP3   OH265442   3.210   3.207  14.063 -0.1469 -0.3391  0.5077
14676TIP3    H165443   3.120   3.217  14.032 -0.6430 -4.2865  0.1748
14676TIP3    H265444   3.226   3.112  14.061  4.6582  0.2016 -1.2157
14677TIP3   OH265445   1.189   0.256  14.260  0.3679  0.4214 -0.0545
14677TIP3    H165446   1.114   0.295  14.303  0.7762  2.1048 -0.7809
14677TIP3    H265447   1.166   0.164  14.250 -0.6111  0.4254  1.7854
14678TIP3   OH265448   0.602   3.236  11.648  0.1951 -0.3980 -0.2070
14678TIP3    H165449   0.636   3.199  11.730 -0.4694  0.9456  0.7236
14678TIP3    H265450   0.538   3.302  11.677  1.1555  1.3086 -1.7414
14679TIP3   OH265451   5.596   0.094   5.381 -0.3202 -0.5123 -0.4867
14679TIP3    H165452   5.505   0.073   5.361 -0.0111 -1.7112 -0.7483
14679TIP3    H265453   5.621   0.032   5.450  0.4505 -0.5701 -0.8016
14680TIP3   OH265454   2.549   3.182  16.303 -0.7516 -0.6832 -0.1529
14680TIP3    H165455   2.553   3.237  16.381  1.2070 -0.4995 -0.3382
14680TIP3    H265456   2.524   3.241  16.233  2.2949  0.3295 -0.5434
14681TIP3   OH265457   5.507   3.282   2.180  0.3046  0.4406  0.0081
14681TIP3    H165458   5.519   3.301   2.273  1.1695  1.1206 -0.2291
14681TIP3    H265459   5.435   3.219   2.178 -0.2971  1.0537  1.0800
14682TIP3   OH265460   3.626   1.987   2.674 -0.6267 -0.2363  0.3727
14682TIP3    H165461   3.632   1.925   2.746  1.7212 -0.0220  0.4652
14682TIP3    H265462   3.690   1.955   2.610 -0.3098  1.3354 -0.1480
14683TIP3   OH265463   2.678   2.145  14.759 -0.5645 -0.0283 -0.2198
14683TIP3    H165464   2.673   2.203  14.684  1.0200 -1.5518 -1.5991
14683TIP3    H265465   2.695   2.059  14.722  0.4179 -0.8218  1.8965
14684TIP3   OH265466   5.841   6.022   4.197 -0.0462 -0.1927  0.2894
14684TIP3    H165467   5.909   5.990   4.257  0.1113 -0.1982  0.1094
14684TIP3    H265468   5.795   6.090   4.246  0.4204  0.1688  0.2289
14685TIP3   OH265469   2.797   6.761   2.190 -0.2124  0.0750 -0.1999
14685TIP3    H165470   2.767   6.817   2.262 -1.0665 -1.4898  0.7277
14685TIP3    H265471   2.717   6.738   2.142 -0.1439 -1.5563  0.3779
14686TIP3   OH265472   6.498   2.408  10.785  0.3967  0.4627 -0.4945
14686TIP3    H165473   6.508   2.418  10.691  0.3292  1.4323 -0.4178
14686TIP3    H265474   6.546   2.483  10.822 -0.0294  0.3978  0.2133
14687TIP3   OH265475   3.785   3.959  13.851 -0.9054 -0.3978 -0.5479
14687TIP3    H165476   3.784   3.988  13.760 -1.0398  1.4022 -0.0093
14687TIP3    H265477   3.712   3.898  13.858 -0.8716 -0.5822 -1.6517
14688TIP3   OH265478   4.644   1.137  16.304 -0.5935 -0.2391 -0.6123
14688TIP3    H165479   4.567   1.081  16.315 -0.0540 -1.3370 -2.1135
14688TIP3    H265480   4.619   1.199  16.236 -1.0801  1.2117  0.8306
14689TIP3   OH265481   5.655   3.569  11.605 -0.6193 -0.4925 -0.0101
14689TIP3    H165482   5.560   3.575  11.614 -0.7758 -1.3950 -0.8743
14689TIP3    H265483   5.674   3.606  11.518 -0.0736  0.5569  0.5455
14690TIP3   OH265484   5.865   0.133   0.786  0.1821 -0.1052 -0.1888
14690TIP3    H165485   5.930   0.194   0.750  1.1559 -1.2660 -0.4601
14690TIP3    H265486   5.877   0.053   0.735  0.7741 -1.4246  1.9305
14691TIP3   OH265487   2.338   4.792  11.081  0.2192 -0.4616 -0.5101
14691TIP3    H165488   2.380   4.715  11.119 -0.6691 -1.0028 -0.6110
14691TIP3    H265489   2.342   4.858  11.150 -2.1805 -1.7030  0.9590
14692TIP3   OH265490   1.262   5.831   5.932  0.2292  0.2484  0.0517
14692TIP3    H165491   1.248   5.865   6.020  1.3669  1.0542 -0.0511
14692TIP3    H265492   1.317   5.754   5.944 -0.4578 -0.2344  0.1167
14693TIP3   OH265493   6.592   2.437   2.255  0.1089  0.2418  0.2804
14693TIP3    H165494   6.680   2.457   2.288  0.4723  0.0675 -0.5563
14693TIP3    H265495   6.606   2.405   2.166 -0.7323 -0.6646  0.4543
14694TIP3   OH265496   6.324   1.718   5.592  0.1290 -0.4190  0.0403
14694TIP3    H165497   6.416   1.729   5.570  0.4863 -1.9918  0.5776
14694TIP3    H265498   6.300   1.799   5.637  2.0096 -0.9524  2.2308
14695TIP3   OH265499   5.969   1.797   1.721  0.0492 -0.4431  0.2912
14695TIP3    H165500   5.891   1.849   1.705  0.2665 -0.4724 -1.0182
14695TIP3    H265501   5.939   1.723   1.773 -0.9171 -0.7620 -0.6867
14696TIP3   OH265502   4.149   1.848  16.648  0.1735  0.4748 -0.4651
14696TIP3    H165503   4.168   1.826  16.557  1.6455  0.2620 -0.1316
14696TIP3    H265504   4.232   1.835  16.693 -0.3780  1.1924  0.7972
14697TIP3   OH265505   3.931   0.951   2.692  0.0148  0.0508 -0.3899
14697TIP3    H165506   3.981   0.877   2.657  0.1258 -0.4501  0.7915
14697TIP3    H265507   3.992   1.025   2.690 -0.0787  0.1169 -1.5167
14698TIP3   OH265508   2.201   2.568   1.196  0.1141  0.0249  0.3216
14698TIP3    H165509   2.186   2.483   1.237  0.3898  0.1267  0.6286
14698TIP3    H265510   2.136   2.626   1.236 -0.7826 -0.2752 -0.6392
14699TIP3   OH265511   0.789   5.519   4.586  0.4917  0.0985  0.1141
14699TIP3    H165512   0.830   5.603   4.606  1.9336 -0.5200 -0.1097
14699TIP3    H265513   0.826   5.459   4.651  1.2500 -0.8354 -1.1491
14700TIP3   OH265514   4.156   2.837  16.634  0.1330 -0.6067  0.2475
14700TIP3    H165515   4.062   2.820  16.632 -0.2145  1.1346 -1.5208
14700TIP3    H265516   4.166   2.916  16.687  0.4287 -0.1132 -0.5167
14701TIP3   OH265517   4.496   2.995  11.134  0.1704 -0.0234  0.3111
14701TIP3    H165518   4.560   2.955  11.192  0.3951  0.5629  0.4761
14701TIP3    H265519   4.538   2.998  11.048  0.2871  0.1821  0.3760
14702TIP3   OH265520   6.027   3.601   3.233 -0.8175  0.1271  0.5312
14702TIP3    H165521   5.967   3.563   3.297 -0.5560  0.2274  0.8358
14702TIP3    H265522   6.091   3.532   3.215 -0.5584  0.2893  0.8085
14703TIP3   OH265523   2.073   3.819   0.496  0.6822  0.5238 -0.0110
14703TIP3    H165524   2.156   3.778   0.521  0.2092  0.5423  1.7242
14703TIP3    H265525   2.062   3.891   0.558 -0.3601  0.8734 -0.5837
14704TIP3   OH265526   1.643   1.090   3.934  0.1246 -0.3943 -0.6086
14704TIP3    H165527   1.619   1.176   3.968  2.8064 -0.0602  0.7379
14704TIP3    H265528   1.593   1.081   3.853 -1.6601  1.5797  0.1743
14705TIP3   OH265529   5.406   1.862  12.957 -0.3943 -0.7833 -0.3170
14705TIP3    H165530   5.432   1.885  12.868 -0.4789  2.1322  0.3117
14705TIP3    H265531   5.338   1.925  12.979 -0.9887 -1.9861  1.5584
14706TIP3   OH265532   1.275   0.123   1.918  0.4277  1.2355 -0.0474
14706TIP3    H165533   1.251   0.141   1.827  2.4979  2.1789 -0.4522
14706TIP3    H265534   1.203   0.160   1.969 -1.9775 -1.3640 -1.2696
14707TIP3   OH265535   0.642   3.315  14.029  0.6032 -0.0380 -0.1001
14707TIP3    H165536   0.566   3.281  14.078  0.3373 -0.5597 -0.8585
14707TIP3    H265537   0.610   3.396  13.990  1.1537  0.9905  1.4794
14708TIP3   OH265538   1.172   5.083   0.076 -0.5873 -1.0385  0.0023
14708TIP3    H165539   1.236   5.088   0.005  0.4240  1.9976  0.9776
14708TIP3    H265540   1.089   5.109   0.035 -0.1825 -0.1418 -0.2712
14709TIP3   OH265541   4.013   5.724   2.239 -0.3629  0.0120  0.2836
14709TIP3    H165542   3.920   5.700   2.234 -0.3484 -0.1191  0.5958
14709TIP3    H265543   4.060   5.646   2.210 -0.2521 -1.0037  2.8999
14710TIP3   OH265544   5.589   1.774  12.094 -0.2659 -0.5235 -0.2616
14710TIP3    H165545   5.552   1.724  12.020 -0.8067  0.1842 -0.4768
14710TIP3    H265546   5.576   1.717  12.170  1.2837 -1.7519 -0.8506
14711TIP3   OH265547   5.185   5.984  15.423 -0.4099  0.3157  0.4978
14711TIP3    H165548   5.259   5.935  15.457  1.1694 -0.0765 -3.0199
14711TIP3    H265549   5.116   5.919  15.410  0.8022 -0.6196 -1.7652
14712TIP3   OH265550   3.110   0.949  14.729  0.1595 -0.4217  0.3755
14712TIP3    H165551   3.186   0.961  14.673  0.4667 -1.0341  0.6502
14712TIP3    H265552   3.131   0.996  14.809  0.4910 -1.0368  0.6607
14713TIP3   OH265553   3.597   3.062  13.871 -0.2047  0.3940 -0.8755
14713TIP3    H165554   3.627   2.976  13.899 -0.5386  0.4026 -0.4748
14713TIP3    H265555   3.508   3.069  13.906  0.3362  1.5005  0.4153
14714TIP3   OH265556   3.085   3.277  15.978 -0.6309  0.1263 -0.6513
14714TIP3    H165557   3.009   3.332  15.958 -0.5720 -0.0426 -1.3610
14714TIP3    H265558   3.156   3.340  15.993 -1.0118  0.3032  0.5121
14715TIP3   OH265559   3.522   4.077   4.608 -0.2391  0.0728 -0.3113
14715TIP3    H165560   3.589   4.021   4.568  0.7170  0.5263  0.6220
14715TIP3    H265561   3.542   4.077   4.701 -0.9848  0.9706 -0.1335
14716TIP3   OH265562   3.598   6.122   1.604  0.4749 -0.1402  0.2553
14716TIP3    H165563   3.599   6.138   1.510 -0.2141  2.3572  0.5836
14716TIP3    H265564   3.569   6.031   1.613  0.4664 -0.4075 -1.9262
14717TIP3   OH265565   4.271   0.245   2.461  0.0944 -0.0076 -0.2986
14717TIP3    H165566   4.279   0.239   2.557  0.5773 -0.1451 -0.3440
14717TIP3    H265567   4.223   0.326   2.446 -0.2100 -0.1159  0.0712
14718TIP3   OH265568   0.600   5.907  10.294 -0.1198 -0.2670 -0.6540
14718TIP3    H165569   0.675   5.914  10.234  0.6098  1.6982  0.4069
14718TIP3    H265570   0.618   5.972  10.362 -2.9735  0.5268 -0.5458
14719TIP3   OH265571   1.508   0.066  12.649  0.1700  0.0337 -0.3396
14719TIP3    H165572   1.539   0.145  12.693 -0.2021  0.3760 -0.6769
14719TIP3    H265573   1.455   0.099  12.576 -0.6841 -0.5336  0.0161
14720TIP3   OH265574   4.176   2.761   3.413  0.3198  0.2844 -0.1229
14720TIP3    H165575   4.085   2.761   3.383  0.2927 -0.1851 -0.0436
14720TIP3    H265576   4.179   2.692   3.479  0.8245  0.0314 -0.4099
14721TIP3   OH265577   3.126   2.663  15.006  0.1390 -0.1537  0.8661
14721TIP3    H165578   3.211   2.620  15.016 -0.3421 -0.7413  2.9794
14721TIP3    H265579   3.067   2.593  14.975  0.2412  0.0511  0.1980
14722TIP3   OH265580   4.027   2.871  13.863  0.3802 -0.4794 -0.2114
14722TIP3    H165581   4.120   2.882  13.841  0.2648  2.0938  0.2102
14722TIP3    H265582   4.027   2.850  13.956  0.5507 -1.6651 -0.4643
14723TIP3   OH265583   6.143   5.880  16.422 -0.5292  0.0299 -0.1297
14723TIP3    H165584   6.141   5.827  16.342  0.0719  0.3918 -0.3906
14723TIP3    H265585   6.137   5.816  16.493  1.0476 -0.4930 -0.4121
14724TIP3   OH265586   3.338   4.619   1.860 -0.0892  0.2510 -0.0514
14724TIP3    H165587   3.284   4.682   1.908 -0.5983  0.1338 -0.4539
14724TIP3    H265588   3.332   4.647   1.768  2.5094  1.6867  0.1328
14725TIP3   OH265589   0.887   3.051  13.420 -0.3954  0.2447 -0.0336
14725TIP3    H165590   0.981   3.058  13.407 -0.1608 -1.2098  0.6490
14725TIP3    H265591   0.874   2.963  13.457 -2.1192  0.0242 -1.0381
14726TIP3   OH265592   1.193   1.223  11.639  0.4057  0.0072 -0.3690
14726TIP3    H165593   1.145   1.198  11.559  0.0855  1.4866 -0.6745
14726TIP3    H265594   1.202   1.318  11.632 -0.0219  0.2283  1.5806
14727TIP3   OH265595   1.172   3.938   2.158 -0.6750 -0.2191 -0.1356
14727TIP3    H165596   1.132   3.884   2.089  0.3971 -2.4990  0.9646
14727TIP3    H265597   1.101   3.953   2.220 -0.8518 -0.8203 -0.1859
14728TIP3   OH265598   3.287   3.556  12.710  0.1411 -0.1895  0.4889
14728TIP3    H165599   3.237   3.486  12.667  0.5979 -0.1838 -0.0619
14728TIP3    H265600   3.227   3.630  12.713 -0.6358 -0.8249  1.8100
14729TIP3   OH265601   1.233   1.704  11.328  0.1134  0.1051  0.8144
14729TIP3    H165602   1.199   1.793  11.314  1.0956  0.2348 -1.1458
14729TIP3    H265603   1.198   1.653  11.256  1.2434 -0.5815  0.7229
14730TIP3   OH265604   5.806   6.223  12.846 -0.3607  0.4218 -0.3892
14730TIP3    H165605   5.805   6.128  12.859  0.9275  0.2394 -1.4341
14730TIP3    H265606   5.892   6.250  12.879 -0.4444  1.1255 -0.7454
14731TIP3   OH265607   2.670   1.582   0.130  0.5846  0.0557 -0.1738
14731TIP3    H165608   2.666   1.504   0.075  2.6171 -0.2983  0.1127
14731TIP3    H265609   2.712   1.648   0.076 -0.1422  0.6418 -0.0445
14732TIP3   OH265610   3.024   5.886   1.812  0.1121 -0.1610 -0.2796
14732TIP3    H165611   2.979   5.920   1.889  0.4339  0.3469 -0.3100
14732TIP3    H265612   3.086   5.955   1.789  0.9955 -0.9010 -0.1610
14733TIP3   OH265613   4.354   4.849  13.962 -0.0198 -0.2303 -0.2208
14733TIP3    H165614   4.363   4.943  13.977 -3.7617  0.1098  0.8307
14733TIP3    H265615   4.306   4.843  13.879 -2.4444 -0.9749  1.1519
14734TIP3   OH265616   6.044   5.083  14.915  0.2113 -0.2680  0.0553
14734TIP3    H165617   5.968   5.135  14.887  0.8429  0.1934 -0.8303
14734TIP3    H265618   6.005   5.011  14.965 -0.7412  0.5465  0.5529
14735TIP3   OH265619   1.853   0.929  13.409  0.2502  0.3742  0.5497
14735TIP3    H165620   1.935   0.977  13.399  0.7745 -0.4617  0.7930
14735TIP3    H265621   1.785   0.994  13.391  0.9802  0.8553 -0.5628
14736TIP3   OH265622   2.541   2.178  15.509  0.6810  0.0339 -0.3079
14736TIP3    H165623   2.615   2.234  15.486 -1.1393  2.5250 -0.4868
14736TIP3    H265624   2.504   2.151  15.424  1.0170 -0.7249 -0.2198
14737TIP3   OH265625   1.937   6.496  15.900 -0.2441 -0.3713  0.3637
14737TIP3    H165626   1.991   6.532  15.969 -1.6642 -1.6289  2.2260
14737TIP3    H265627   1.935   6.564  15.832  0.6532  1.1752  1.8352
14738TIP3   OH265628   5.480   0.688  12.965  0.0743 -0.4209  0.4203
14738TIP3    H165629   5.461   0.639  13.045 -0.0582  0.1102  0.7204
14738TIP3    H265630   5.406   0.747  12.956  0.0492 -0.5386 -0.1447
14739TIP3   OH265631   2.456   1.306   1.877  0.3086 -0.0887  0.2374
14739TIP3    H165632   2.420   1.394   1.873  1.5105  0.4175  0.1689
14739TIP3    H265633   2.421   1.262   1.800 -0.8948  0.0787  0.6734
14740TIP3   OH265634   3.556   2.439   1.917  0.2688  0.1433 -0.2282
14740TIP3    H165635   3.466   2.474   1.918  0.5729  0.9620 -0.5135
14740TIP3    H265636   3.605   2.498   1.974  0.8517  0.3487 -0.9212
14741TIP3   OH265637   1.017   1.065  15.792 -0.1965  0.1250  0.5452
14741TIP3    H165638   1.077   1.128  15.753 -0.3983 -0.3028 -0.4900
14741TIP3    H265639   0.974   1.113  15.862  0.7337  0.6848  0.7512
14742TIP3   OH265640   2.307   4.035  14.849 -0.5427 -0.4043  0.0731
14742TIP3    H165641   2.232   4.089  14.823  0.6468  1.2105 -0.1364
14742TIP3    H265642   2.370   4.045  14.778  0.5119 -0.4223  0.9757
14743TIP3   OH265643   1.738   1.838  15.835 -0.4386  0.1137 -0.3596
14743TIP3    H165644   1.753   1.892  15.913 -0.2571 -2.0860  1.2112
14743TIP3    H265645   1.823   1.837  15.791 -0.0828  0.0660  0.3033
14744TIP3   OH265646   0.935   2.456   4.930  0.2935 -0.0072 -0.1063
14744TIP3    H165647   0.895   2.418   4.852  0.3021 -0.9562  0.3331
14744TIP3    H265648   0.908   2.397   5.001  1.8071 -0.2157  0.3250
14745TIP3   OH265649   4.743   1.718   0.200 -0.1785 -0.2471 -0.2803
14745TIP3    H165650   4.713   1.809   0.188 -0.5807 -0.1713  1.1141
14745TIP3    H265651   4.673   1.665   0.161 -0.8517  0.0075  0.5523
14746TIP3   OH265652   5.468   6.098   3.177 -0.2479 -1.2126  0.3512
14746TIP3    H165653   5.470   6.003   3.166 -1.8900 -1.0702 -2.1672
14746TIP3    H265654   5.375   6.119   3.183  0.1254  0.1455  2.8732
14747TIP3   OH265655   0.969   2.775   4.334  0.3084 -0.4814  0.4299
14747TIP3    H165656   1.008   2.862   4.324 -0.9345  0.0802  0.2835
14747TIP3    H265657   0.900   2.772   4.267  0.2816 -1.5518  0.4909
14748TIP3   OH265658   0.543   0.709   4.383 -0.4498 -0.2997  0.2520
14748TIP3    H165659   0.500   0.674   4.305 -0.5217  0.4178 -0.0384
14748TIP3    H265660   0.624   0.659   4.390 -0.0926  0.1107 -0.7112
14749TIP3   OH265661   6.801   1.502  16.685 -0.0605 -0.0485  0.0153
14749TIP3    H165662   6.758   1.554  16.753  2.7558  1.9339  0.4750
14749TIP3    H265663   6.793   1.556  16.606 -0.5165 -0.8302 -0.4894
14750TIP3   OH265664   5.185   6.793  10.647  0.2492 -0.2652  0.4794
14750TIP3    H165665   5.155   6.881  10.671  2.0428  0.1929  1.1598
14750TIP3    H265666   5.205   6.799  10.554 -3.0243 -0.9948 -0.4024
14751TIP3   OH265667   6.701   0.982  16.290 -0.1557 -0.4933 -0.1596
14751TIP3    H165668   6.626   1.041  16.288  0.5771  0.4854  0.3175
14751TIP3    H265669   6.761   1.022  16.353  1.4990 -0.3268 -1.7647
14752TIP3   OH265670   4.074   4.292   1.918 -0.6250  0.4339  0.6006
14752TIP3    H165671   4.011   4.279   1.847  1.2121  0.4868 -1.1188
14752TIP3    H265672   4.153   4.325   1.875  1.1179 -1.0362  2.4269
14753TIP3   OH265673   0.914   2.891  11.998  0.4104  0.0796  0.2518
14753TIP3    H165674   0.845   2.826  11.989  0.8841 -0.3593 -0.3183
14753TIP3    H265675   0.890   2.941  12.076 -0.8044  0.2514 -0.2021
14754TIP3   OH265676   2.652   5.348   2.868 -0.4637 -0.6462  0.4163
14754TIP3    H165677   2.690   5.262   2.851 -0.0179 -0.1775 -1.0763
14754TIP3    H265678   2.721   5.410   2.846 -0.8530  0.1256  1.2745
14755TIP3   OH265679   3.144   3.630  11.155 -0.4877 -0.0560 -0.3946
14755TIP3    H165680   3.187   3.549  11.180  0.0357 -0.4030 -2.3220
14755TIP3    H265681   3.168   3.644  11.064 -0.2217  2.4977 -0.0115
14756TIP3   OH265682   6.112   5.172   0.605 -0.0480 -0.1901 -1.0786
14756TIP3    H165683   6.154   5.094   0.642 -1.2857 -0.7147 -0.7244
14756TIP3    H265684   6.095   5.229   0.680 -2.4419 -1.2003 -0.7485
14757TIP3   OH265685   0.260   4.433   1.334  0.3698  0.0213 -0.5686
14757TIP3    H165686   0.183   4.380   1.357  0.7859 -0.7049 -0.8378
14757TIP3    H265687   0.229   4.489   1.263  0.2800 -0.8069 -1.2058
14758TIP3   OH265688   5.631   2.880  10.666 -0.3632 -0.2666  0.1475
14758TIP3    H165689   5.690   2.839  10.728  1.7924 -0.7429 -2.0731
14758TIP3    H265690   5.560   2.915  10.720  0.8123 -1.5822  2.7126
14759TIP3   OH265691   1.800   4.734  12.362  0.2286  0.1852 -0.1957
14759TIP3    H165692   1.862   4.763  12.429  0.2991  0.9859 -0.5975
14759TIP3    H265693   1.727   4.796  12.367  0.2803  0.3198 -0.9249
14760TIP3   OH265694   2.884   6.766   3.570 -1.0389 -0.4631  0.0919
14760TIP3    H165695   2.926   6.720   3.643 -2.4688  0.4629  1.5604
14760TIP3    H265696   2.823   6.702   3.534 -0.4404 -0.8749 -0.2068
14761TIP3   OH265697   1.928   0.666  10.246  0.0335 -0.4464  0.3957
14761TIP3    H165698   1.851   0.720  10.263 -1.3266 -1.4238 -2.1506
14761TIP3    H265699   1.914   0.588  10.300 -3.4811 -2.8847 -3.4430
14762TIP3   OH265700   0.005   3.272   0.779  0.3597  0.4405  0.0080
14762TIP3    H165701  -0.057   3.214   0.735  1.6956 -0.4788 -0.7560
14762TIP3    H265702   0.085   3.264   0.728  1.7275  0.0216  2.0907
14763TIP3   OH265703   6.533   5.107   3.052 -0.2468  0.1745  0.2826
14763TIP3    H165704   6.607   5.064   3.009 -0.8330 -1.2950  0.6677
14763TIP3    H265705   6.559   5.111   3.144 -0.5854 -0.2260  0.3971
14764TIP3   OH265706   5.554   3.081   0.146  0.0769  0.4402  0.3706
14764TIP3    H165707   5.473   3.091   0.196 -1.1397 -0.9777 -1.2014
14764TIP3    H265708   5.528   3.097   0.055  1.5069 -0.3410 -0.1990
14765TIP3   OH265709   5.519   4.613   1.966 -0.0615 -0.4049 -0.4419
14765TIP3    H165710   5.597   4.558   1.959  0.0251 -0.5654  1.2331
14765TIP3    H265711   5.462   4.567   2.028 -0.1612  1.1414  0.7128
14766TIP3   OH265712   1.530   4.812   6.218 -0.1599 -0.5957  0.2590
14766TIP3    H165713   1.447   4.839   6.178 -0.5551 -0.3268  1.2198
14766TIP3    H265714   1.523   4.716   6.223 -0.6011 -0.5457  0.7119
14767TIP3   OH265715   1.110   2.403  16.514  0.5280  0.3302  0.1719
14767TIP3    H165716   1.033   2.346  16.506 -0.2879  1.4219  0.0605
14767TIP3    H265717   1.171   2.354  16.570  0.6759 -1.5097 -1.4908
14768TIP3   OH265718   1.373   5.978  16.574 -0.7226  0.1519  0.0900
14768TIP3    H165719   1.429   6.013  16.644  1.9795  1.1238 -2.3536
14768TIP3    H265720   1.320   6.052  16.546  0.6279  0.7236 -1.0549
14769TIP3   OH265721   2.624   3.477   5.697  0.1019 -0.6230  0.0923
14769TIP3    H165722   2.657   3.391   5.724 -0.2579 -0.4709  1.0556
14769TIP3    H265723   2.532   3.463   5.677  0.1043 -0.5139  0.0032
14770TIP3   OH265724   5.865   2.638   1.690 -0.5166  0.0820  0.0138
14770TIP3    H165725   5.793   2.584   1.722 -0.8583  0.4519 -0.1204
14770TIP3    H265726   5.830   2.727   1.690 -0.4081  0.1435 -1.0022
14771TIP3   OH265727   1.671   6.164   5.760  0.0145  0.5820  0.1098
14771TIP3    H165728   1.604   6.197   5.700 -0.9343 -0.3634  0.6111
14771TIP3    H265729   1.705   6.242   5.804 -1.4887  1.0121  0.5657
14772TIP3   OH265730   1.500   0.326   5.242  0.2422 -0.9544 -0.2782
14772TIP3    H165731   1.479   0.418   5.228 -0.1509 -1.0595 -0.3873
14772TIP3    H265732   1.514   0.319   5.336 -0.7184 -0.9778 -0.1255
14773TIP3   OH265733   6.783   5.196  16.614 -0.1926 -0.0770  0.1527
14773TIP3    H165734   6.691   5.192  16.589 -0.3801 -0.3995  0.8668
14773TIP3    H265735   6.794   5.283  16.653 -0.1890 -0.0356  0.0593
14774TIP3   OH265736   5.858   0.790  10.937  0.0092 -0.0668  0.7422
14774TIP3    H165737   5.767   0.790  10.968 -0.2046 -1.3006  0.1855
14774TIP3    H265738   5.860   0.722  10.869  0.5859  2.1381 -1.5855
14775TIP3   OH265739   5.513   4.814   5.013 -0.2240  1.0949  0.3291
14775TIP3    H165740   5.510   4.818   4.917  1.1556 -0.2766  0.1928
14775TIP3    H265741   5.426   4.783   5.038 -0.3842  0.8291 -0.5193
14776TIP3   OH265742   0.252   4.879   5.284  0.0516  0.4623  0.2296
14776TIP3    H165743   0.261   4.893   5.190 -0.8757 -2.2209 -0.3625
14776TIP3    H265744   0.330   4.830   5.309 -0.7445 -0.8327  0.3114
14777TIP3   OH265745   4.442   6.822  15.490  0.2277 -0.4471 -0.5604
14777TIP3    H165746   4.402   6.821  15.403 -0.0732  0.2872 -0.4390
14777TIP3    H265747   4.417   6.906  15.527  2.0905  0.1621 -0.5737
14778TIP3   OH265748   0.774   0.965  14.851 -0.0510  0.7327  0.7404
14778TIP3    H165749   0.776   0.901  14.922  0.1987  0.2141  0.2788
14778TIP3    H265750   0.684   0.964  14.820 -0.1750  1.0068  1.0914
14779TIP3   OH265751   1.493   2.900  13.384 -0.5223 -0.2453 -0.4837
14779TIP3    H165752   1.556   2.906  13.456 -0.2033  0.4345 -0.8090
14779TIP3    H265753   1.514   2.817  13.341  0.8668  0.4423 -1.2156
14780TIP3   OH265754   2.378   6.161  11.404  0.2317  0.3851 -0.5387
14780TIP3    H165755   2.437   6.088  11.382  1.2661  0.8466  0.5982
14780TIP3    H265756   2.313   6.160  11.334  0.4524 -1.3788 -0.7832
14781TIP3   OH265757   0.218   0.205  14.779  0.3914 -0.0290  0.1743
14781TIP3    H165758   0.138   0.165  14.746  1.3552 -1.6377 -0.3079
14781TIP3    H265759   0.246   0.264  14.709 -0.2688  0.4291  0.2857
14782TIP3   OH265760   0.156   6.598  16.084  0.8624  0.1210 -0.7532
14782TIP3    H165761   0.125   6.688  16.091 -0.0945 -0.3008  1.4746
14782TIP3    H265762   0.110   6.562  16.008 -1.2282  0.6479  0.1918
14783TIP3   OH265763   4.009   2.402   3.400  0.0538  0.0145 -0.0120
14783TIP3    H165764   3.973   2.477   3.353  0.7635  2.1483  2.6192
14783TIP3    H265765   3.941   2.334   3.391 -1.7569  1.7761 -0.4094
14784TIP3   OH265766   6.370   6.174  16.064 -0.1243 -0.0151  0.0729
14784TIP3    H165767   6.417   6.199  16.143  1.6491  1.8762 -1.4513
14784TIP3    H265768   6.386   6.081  16.054  2.0858  0.2624  0.4675
14785TIP3   OH265769   1.357   4.682  10.742 -0.1640  0.1766 -1.2791
14785TIP3    H165770   1.409   4.602  10.746  0.4230  0.5655 -0.9404
14785TIP3    H265771   1.325   4.685  10.651  0.0989 -0.2586 -1.3904
14786TIP3   OH265772   2.253   2.049   2.299  0.3330 -0.2065  0.1539
14786TIP3    H165773   2.160   2.057   2.318  0.4716 -0.7760  1.1270
14786TIP3    H265774   2.269   1.955   2.295  0.4385 -0.1498 -2.2947
14787TIP3   OH265775   3.998   2.943  12.482 -0.0987 -0.5960 -0.1201
14787TIP3    H165776   4.064   2.974  12.421 -0.2779 -1.5008 -0.7935
14787TIP3    H265777   3.991   3.012  12.548  0.4392  0.1700 -0.8579
14788TIP3   OH265778   2.699   4.163  12.688 -0.1321 -0.5574  0.7547
14788TIP3    H165779   2.670   4.128  12.604 -1.1158  0.2664  0.7319
14788TIP3    H265780   2.767   4.103  12.717  1.6852  0.2218 -1.5794
14789TIP3   OH265781   2.531   5.190   1.031 -0.4549 -0.0389  0.2218
14789TIP3    H165782   2.534   5.251   0.957 -0.2033 -1.9799 -1.4661
14789TIP3    H265783   2.569   5.239   1.104 -2.5788  2.6681 -0.3269
14790TIP3   OH265784   6.045   2.116   9.968 -0.0354  0.3483  0.2753
14790TIP3    H165785   6.127   2.162   9.950  1.8529 -2.1004  1.9479
14790TIP3    H265786   5.990   2.181  10.012  1.0449  1.9820 -0.6938
14791TIP3   OH265787   2.571   2.905  16.577  0.2381  0.0778  0.0610
14791TIP3    H165788   2.618   2.957  16.643 -0.1273  0.1382  0.2760
14791TIP3    H265789   2.525   2.839  16.628  1.2537 -0.9081 -0.2546
14792TIP3   OH265790   3.903   4.110   0.922 -0.7152  0.2166  0.4533
14792TIP3    H165791   3.894   4.105   1.017 -2.6009 -0.1091  0.3141
14792TIP3    H265792   3.922   4.202   0.904  0.1897  0.1751  1.1701
14793TIP3   OH265793   0.241   2.337   2.532 -0.4080  0.4501 -0.3353
14793TIP3    H165794   0.331   2.348   2.503 -1.0359  0.9851 -2.2110
14793TIP3    H265795   0.209   2.426   2.546 -1.2193  0.3944 -1.6513
14794TIP3   OH265796   3.274   3.792  12.054 -0.2310 -0.4904  0.0383
14794TIP3    H165797   3.185   3.800  12.022 -0.0441  0.3560 -0.2998
14794TIP3    H265798   3.326   3.848  11.995  0.6480 -1.5966 -0.2780
14795TIP3   OH265799   2.926   1.748  16.438  0.0109 -0.1751  0.3668
14795TIP3    H165800   2.956   1.662  16.408  0.9402  0.3624 -0.2909
14795TIP3    H265801   2.886   1.788  16.361  0.6200  0.4289  0.3566
14796TIP3   OH265802   5.335   2.284   2.981  0.3770 -0.1404  0.0435
14796TIP3    H165803   5.331   2.334   2.899  1.2224  1.2080  0.7877
14796TIP3    H265804   5.407   2.222   2.967 -1.2537 -1.8812 -1.2217
14797TIP3   OH265805   3.797   3.419  15.192  0.0817  0.1842 -0.8489
14797TIP3    H165806   3.826   3.456  15.109  2.1243  0.7492  0.0355
14797TIP3    H265807   3.738   3.485  15.228  1.0929  1.0928 -0.7923
14798TIP3   OH265808   5.354   0.772  10.982  0.4452 -0.0682  0.5114
14798TIP3    H165809   5.378   0.742  10.894  0.6343  0.4668  0.3790
14798TIP3    H265810   5.267   0.734  10.997 -0.0281  0.6553 -0.3022
14799TIP3   OH265811   4.504   2.585   1.232 -0.3245  0.2274  0.0996
14799TIP3    H165812   4.457   2.665   1.255  0.4047  0.2315  1.6666
14799TIP3    H265813   4.592   2.615   1.209 -0.6548  0.0748 -1.4967
14800TIP3   OH265814   5.781   1.617   1.516  0.6121 -0.2614  0.2198
14800TIP3    H165815   5.726   1.695   1.504 -0.2235 -1.0916 -2.0518
14800TIP3    H265816   5.867   1.651   1.540  0.6278  1.5150 -1.9916
14801TIP3   OH265817   6.894   3.145  14.976 -0.2513  0.0664 -0.7117
14801TIP3    H165818   6.818   3.200  14.990 -0.2438  0.2755 -1.4282
14801TIP3    H265819   6.965   3.190  15.022 -0.5934 -0.2431  0.1416
14802TIP3   OH265820   0.914   0.475  12.761 -0.2284  0.1351  0.3119
14802TIP3    H165821   0.910   0.534  12.836 -0.4488 -0.0721  0.4651
14802TIP3    H265822   0.825   0.472  12.727  0.0286  0.8323 -0.4352
14803TIP3   OH265823   2.720   6.103   2.970  0.2844  0.1253 -0.3744
14803TIP3    H165824   2.734   6.198   2.975 -1.2308  0.3416  0.8009
14803TIP3    H265825   2.807   6.065   2.980  0.6914  1.3840  1.3981
14804TIP3   OH265826   3.665   0.598  14.646  0.5275 -0.1105  0.3386
14804TIP3    H165827   3.572   0.621  14.652  0.4962 -0.3024  0.6207
14804TIP3    H265828   3.665   0.504  14.625  0.6506 -0.3300  1.2453
14805TIP3   OH265829   6.465   5.253  13.896  0.5281  0.1074  0.3688
14805TIP3    H165830   6.421   5.292  13.821  0.0667 -0.7144  0.2065
14805TIP3    H265831   6.447   5.160  13.889 -0.3699  0.1090  2.0511
14806TIP3   OH265832   0.306   6.704  13.204  0.5956  0.1463  0.1572
14806TIP3    H165833   0.267   6.785  13.170 -0.4440  0.8240  2.7703
14806TIP3    H265834   0.245   6.635  13.176  0.1669  0.5774  0.0051
14807TIP3   OH265835   2.123   6.462  14.827 -0.1982 -0.4229 -0.4775
14807TIP3    H165836   2.160   6.502  14.906  0.0609  1.2981 -1.4195
14807TIP3    H265837   2.190   6.399  14.798  0.6527  0.4427 -0.4536
14808TIP3   OH265838   2.673   5.860  15.296  0.4433 -0.2807  0.8300
14808TIP3    H165839   2.674   5.956  15.292 -0.2836 -0.3218 -1.8267
14808TIP3    H265840   2.760   5.837  15.330  1.5382  1.2864 -0.7392
14809TIP3   OH265841   1.501   3.894  10.532 -0.2855 -0.2588  0.1379
14809TIP3    H165842   1.433   3.897  10.464  0.0937  1.2064 -0.2122
14809TIP3    H265843   1.583   3.899  10.484  0.0203 -0.2257  0.6602
14810TIP3   OH265844   4.501   1.286   3.614 -0.2531  0.0962  0.2357
14810TIP3    H165845   4.434   1.310   3.678  0.3498  0.8810  0.5896
14810TIP3    H265846   4.468   1.319   3.531 -0.4215  0.2450  0.3615
14811TIP3   OH265847   3.095   6.560  15.701 -0.2148 -0.3726 -0.2566
14811TIP3    H165848   3.126   6.649  15.685 -1.2782 -0.2658 -2.1563
14811TIP3    H265849   3.166   6.517  15.748  0.7566  1.1833 -0.2367
14812TIP3   OH265850   0.977   5.051   2.589  0.0322 -0.0491 -0.0639
14812TIP3    H165851   0.984   5.028   2.682 -1.4530 -1.1821 -0.2023
14812TIP3    H265852   0.971   5.147   2.589 -0.7779 -0.0823  1.0753
14813TIP3   OH265853   4.576   6.199  12.172  0.6764 -0.5545 -0.2276
14813TIP3    H165854   4.657   6.217  12.219  0.0009  1.2093  0.3543
14813TIP3    H265855   4.604   6.155  12.092  1.9855 -2.1699  1.0567
14814TIP3   OH265856   4.927   5.429   1.390 -0.4409 -0.6872  0.5288
14814TIP3    H165857   5.020   5.448   1.378 -0.5750 -0.2505  0.1174
14814TIP3    H265858   4.916   5.415   1.484 -0.4514  2.0197  0.9999
14815TIP3   OH265859   0.197   0.170  13.741  0.1472 -0.3455  0.4805
14815TIP3    H165860   0.219   0.227  13.667  0.4892 -0.2500  0.6558
14815TIP3    H265861   0.169   0.088  13.700  3.2588 -1.4150  0.2612
14816TIP3   OH265862   2.036   5.598  15.910  0.0854 -0.0034  0.1163
14816TIP3    H165863   1.956   5.588  15.962  0.1782 -0.5570  0.1582
14816TIP3    H265864   2.102   5.630  15.972 -0.2152  0.9233 -0.0200
14817TIP3   OH265865   1.754   5.258   0.695 -0.0629  1.1356 -0.3452
14817TIP3    H165866   1.837   5.268   0.648  1.4424  0.0695  1.9440
14817TIP3    H265867   1.777   5.214   0.776 -2.6776  2.1920  1.0862
14818TIP3   OH265868   3.449   3.524  13.460  0.3605 -0.4055  0.2449
14818TIP3    H165869   3.387   3.491  13.525  0.1084  0.0311  0.2300
14818TIP3    H265870   3.516   3.456  13.454  1.0882  0.1223  1.9093
14819TIP3   OH265871   0.437   0.774   1.461 -0.2306  0.1057  0.5427
14819TIP3    H165872   0.389   0.766   1.543 -0.1427 -0.5727  0.5367
14819TIP3    H265873   0.380   0.734   1.395  0.2117 -0.4460  0.4866
14820TIP3   OH265874   1.348   0.689   5.473 -0.1523 -0.3679 -0.2695
14820TIP3    H165875   1.424   0.644   5.435 -1.3594 -0.5468 -2.6468
14820TIP3    H265876   1.284   0.620   5.487 -0.5435  0.0366 -0.0522
14821TIP3   OH265877   3.811   0.555  12.548  0.3585  0.1670  0.0533
14821TIP3    H165878   3.881   0.579  12.608 -1.4765  2.5708  1.3975
14821TIP3    H265879   3.768   0.638  12.526 -4.2705 -1.3106  2.1625
14822TIP3   OH265880   4.172   2.602  15.742  0.0849  0.0502  0.3357
14822TIP3    H165881   4.261   2.565  15.744 -0.7229 -1.9983  1.9145
14822TIP3    H265882   4.132   2.563  15.664 -0.3276 -1.4398  1.2523
14823TIP3   OH265883   6.619   5.760  13.466  0.8157  0.1575  0.0463
14823TIP3    H165884   6.603   5.723  13.379 -0.4360  0.4932  0.1250
14823TIP3    H265885   6.625   5.684  13.523 -0.4665  0.0139  0.0015
14824TIP3   OH265886   0.284   6.387  14.089  0.2288 -0.2777  0.2216
14824TIP3    H165887   0.212   6.416  14.032 -0.1493 -0.7082  0.4775
14824TIP3    H265888   0.359   6.440  14.061  0.0786 -0.5508 -0.7474
14825TIP3   OH265889   4.732   5.435  14.073 -0.4024  0.1225  0.0276
14825TIP3    H165890   4.694   5.420  13.986 -0.9431  1.6535 -0.0267
14825TIP3    H265891   4.798   5.366  14.082 -0.1194  0.1121 -1.7317
14826TIP3   OH265892   3.808   1.618   6.213 -0.1868  0.5512  0.4142
14826TIP3    H165893   3.855   1.692   6.251  0.4134 -0.2297  1.2541
14826TIP3    H265894   3.862   1.542   6.236 -0.6363 -0.1156 -0.6743
14827TIP3   OH265895   6.188   4.938  11.385  0.4032  0.1612  0.7247
14827TIP3    H165896   6.171   4.853  11.426 -1.8598  0.0291 -0.3274
14827TIP3    H265897   6.133   4.999  11.433 -0.1510  0.4933 -0.2898
14828TIP3   OH265898   6.132   4.586   5.526  0.1849 -0.9038  0.3243
14828TIP3    H165899   6.167   4.508   5.482  0.6281 -1.7157  2.0428
14828TIP3    H265900   6.200   4.611   5.588 -0.5099  0.0944  0.7006
14829TIP3   OH265901   5.523   6.077  14.196 -0.0626 -0.4750  0.2581
14829TIP3    H165902   5.509   6.079  14.101  1.3938 -2.5953 -0.0789
14829TIP3    H265903   5.618   6.089  14.206 -0.2211 -0.0784  1.4848
14830TIP3   OH265904   5.873   3.511   2.620 -0.0763  0.6623  0.8606
14830TIP3    H165905   5.818   3.432   2.619  0.1714  0.4919  0.0650
14830TIP3    H265906   5.812   3.583   2.605 -0.4576  0.7427  2.5947
14831TIP3   OH265907   0.958   5.507   4.899  0.4791 -0.2659  0.1309
14831TIP3    H165908   0.925   5.592   4.929 -0.8761 -0.7222 -0.0004
14831TIP3    H265909   1.022   5.529   4.832 -0.1521  0.6483 -0.2007
14832TIP3   OH265910   6.117   2.360  10.330 -0.1009  0.5420 -0.2079
14832TIP3    H165911   6.151   2.448  10.311 -0.9708  0.3434 -3.4096
14832TIP3    H265912   6.195   2.305  10.334  0.3436  1.1122 -0.7121
14833TIP3   OH265913   5.105   1.623   0.886  0.2111 -0.5246  0.3005
14833TIP3    H165914   5.034   1.601   0.826  2.5572 -3.2812 -1.7383
14833TIP3    H265915   5.111   1.718   0.883 -2.5871 -0.2959 -0.3026
14834TIP3   OH265916   3.799   1.817  10.619 -0.3135  0.0432 -0.5925
14834TIP3    H165917   3.769   1.793  10.532 -0.8784 -3.0357  0.3389
14834TIP3    H265918   3.744   1.891  10.644 -1.3232 -0.1219 -2.1845
14835TIP3   OH265919   2.419   3.011   5.014 -0.4556  0.1959 -0.1360
14835TIP3    H165920   2.334   3.044   5.044 -0.7221  1.4391 -2.1148
14835TIP3    H265921   2.422   2.920   5.045 -1.2930  0.9218  2.3061
14836TIP3   OH265922   1.515   0.105   0.254  0.2642 -0.4509 -0.1648
14836TIP3    H165923   1.436   0.122   0.305 -0.8202 -0.2768 -1.8219
14836TIP3    H265924   1.576   0.174   0.280 -0.4346 -0.0909  0.5414
14837TIP3   OH265925   2.384   4.318  14.383 -0.3842  0.3393  0.3977
14837TIP3    H165926   2.306   4.263  14.389 -0.0688 -0.7536 -3.1954
14837TIP3    H265927   2.448   4.264  14.338  1.4758  2.2147  0.6535
14838TIP3   OH265928   4.706   1.092   0.606  0.1528 -0.5183 -0.5234
14838TIP3    H165929   4.714   1.033   0.681  0.7062 -0.9477 -0.9141
14838TIP3    H265930   4.668   1.172   0.642 -1.6178 -1.4666 -0.1510
14839TIP3   OH265931   1.974   2.743   0.304  0.0058 -0.3269 -0.2996
14839TIP3    H165932   2.058   2.784   0.326 -1.0866  1.0314  1.5554
14839TIP3    H265933   1.999   2.666   0.252  2.2876  1.0696 -1.4789
14840TIP3   OH265934   1.442   4.277   3.121  0.3265  0.3605 -0.0934
14840TIP3    H165935   1.357   4.312   3.092  0.1638  1.0246  1.1126
14840TIP3    H265936   1.501   4.352   3.116 -0.1502  1.1067  3.0523
14841TIP3   OH265937   1.543   4.032   3.332 -0.3738 -0.0565  0.1070
14841TIP3    H165938   1.457   4.016   3.370  0.8480 -1.1694  2.6550
14841TIP3    H265939   1.589   3.949   3.341  2.1295  1.3908  2.3299
14842TIP3   OH265940   1.503   1.823  13.996  0.5833  0.5840  0.4539
14842TIP3    H165941   1.443   1.779  13.936 -0.0747  0.6992  1.0077
14842TIP3    H265942   1.590   1.793  13.971  0.5294  2.0571 -1.7946
14843TIP3   OH265943   3.030   2.025   5.309 -0.5490 -0.1323  0.5183
14843TIP3    H165944   3.097   2.051   5.371 -0.7251 -2.1019  1.6149
14843TIP3    H265945   2.953   2.005   5.363 -1.0744 -0.7777 -0.4277
14844TIP3   OH265946   3.831   4.271   3.387 -0.1788 -0.0475  0.1618
14844TIP3    H165947   3.895   4.297   3.321 -1.3054  1.3417 -0.4509
14844TIP3    H265948   3.804   4.354   3.427  0.5363 -0.8565  2.4716
14845TIP3   OH265949   5.434   4.489   4.622 -0.3570 -0.4054 -0.5467
14845TIP3    H165950   5.423   4.525   4.534 -1.5721 -0.4013 -0.4097
14845TIP3    H265951   5.426   4.394   4.610 -1.0822 -0.3700 -0.3702
14846TIP3   OH265952   0.409   5.703  10.934 -0.2280  0.1787  0.1678
14846TIP3    H165953   0.333   5.651  10.907  0.3829 -0.0825 -1.1600
14846TIP3    H265954   0.392   5.726  11.025 -2.7736  1.6944 -0.5874
14847TIP3   OH265955   6.787   6.867   2.154  0.2045 -0.1017  0.5380
14847TIP3    H165956   6.780   6.818   2.235 -0.8451  1.9503  1.7780
14847TIP3    H265957   6.697   6.869   2.120  0.7820 -1.7547 -1.2407
14848TIP3   OH265958   5.262   0.402  13.463  0.1575 -0.5160  0.3260
14848TIP3    H165959   5.348   0.370  13.488  1.4671  1.1893 -1.7023
14848TIP3    H265960   5.234   0.343  13.393 -0.9263 -1.7743  1.7391
14849TIP3   OH265961   5.032   5.769  13.356  0.3446  0.1714  0.3024
14849TIP3    H165962   5.048   5.683  13.394 -2.3849 -0.3202  0.5630
14849TIP3    H265963   5.064   5.831  13.422 -0.0838 -0.6742  1.3293
14850TIP3   OH265964   6.137   4.686  12.117 -0.6218  0.2768  0.6764
14850TIP3    H165965   6.098   4.700  12.204  1.0911  1.3394  1.3269
14850TIP3    H265966   6.066   4.704  12.056 -1.8902 -0.5660  1.8408
14851TIP3   OH265967   1.692   3.671   5.389  0.0955 -0.2147 -0.0419
14851TIP3    H165968   1.691   3.764   5.370 -0.2576 -0.2488 -0.1945
14851TIP3    H265969   1.625   3.660   5.457  0.6945 -0.2349  0.5551
14852TIP3   OH265970   2.103   4.099  12.884 -0.7438 -0.1227 -0.1664
14852TIP3    H165971   2.195   4.114  12.907 -1.1175 -0.3173  1.5761
14852TIP3    H265972   2.064   4.186  12.885 -0.5761 -0.0228 -1.0487
14853TIP3   OH265973   0.219   2.671  12.867 -0.1286 -0.1314 -0.0602
14853TIP3    H165974   0.310   2.641  12.862 -0.2866 -0.7590  0.7008
14853TIP3    H265975   0.169   2.592  12.887 -0.6428  0.5124  1.2894
14854TIP3   OH265976   1.644   4.082   0.349 -0.4773  0.2602  0.3235
14854TIP3    H165977   1.604   4.114   0.430  0.3161 -1.1283  1.3104
14854TIP3    H265978   1.734   4.114   0.352  0.4109 -2.0824  1.4541
14855TIP3   OH265979   4.566   2.314   2.033 -0.0174 -0.0637 -0.3245
14855TIP3    H165980   4.578   2.285   1.943 -1.8048 -1.6607 -0.1114
14855TIP3    H265981   4.512   2.392   2.026 -0.2488 -0.2504 -0.6480
14856TIP3   OH265982   4.862   3.487   2.057 -0.4693  0.0334  0.0753
14856TIP3    H165983   4.900   3.516   2.140  0.3032 -0.2497 -0.1692
14856TIP3    H265984   4.768   3.480   2.075 -0.4655  1.0482  0.6125
14857TIP3   OH265985   6.775   3.053   4.452  0.2109 -0.0698  0.1744
14857TIP3    H165986   6.734   2.967   4.465  2.0665 -0.7748  1.9766
14857TIP3    H265987   6.716   3.114   4.498  0.1480 -0.7654  1.0506
14858TIP3   OH265988   1.591   6.577  13.666 -0.6473  0.2254 -0.2535
14858TIP3    H165989   1.603   6.641  13.596  1.1626 -2.2993 -2.4498
14858TIP3    H265990   1.678   6.538  13.679 -1.5427 -1.4120  1.3392
14859TIP3   OH265991   2.102   1.355  12.810  0.1871  0.5409 -0.5886
14859TIP3    H165992   2.111   1.389  12.899 -0.4325 -1.2427  0.2171
14859TIP3    H265993   2.182   1.303  12.797  0.4360  1.0743 -1.2155
14860TIP3   OH265994   0.874   4.261   0.120 -0.1970  0.0838  0.3338
14860TIP3    H165995   0.784   4.251   0.092  0.0948 -0.2042 -0.5216
14860TIP3    H265996   0.905   4.171   0.135  0.7992 -0.0614 -2.1624
14861TIP3   OH265997   4.116   0.600   4.268  0.3261  0.0568 -0.3140
14861TIP3    H165998   4.149   0.643   4.347  0.3673 -0.5140 -0.0209
14861TIP3    H265999   4.025   0.579   4.287  0.3990 -0.2789 -0.3405
14862TIP3   OH266000   6.450   2.042  13.581 -0.4906  0.5689  0.3536
14862TIP3    H166001   6.537   2.013  13.609 -0.0115 -0.0691 -1.6456
14862TIP3    H266002   6.397   2.037  13.660  1.3052  1.1264  1.6717
14863TIP3   OH266003   6.281   3.672   0.145  0.6117 -0.4978 -1.0738
14863TIP3    H166004   6.266   3.629   0.060  2.3873  1.1285 -2.2802
14863TIP3    H266005   6.358   3.628   0.180  0.3513 -0.6266 -0.6608
14864TIP3   OH266006   3.417   0.314  11.325 -0.2435  0.0571  0.4174
14864TIP3    H166007   3.336   0.279  11.361  0.1909 -0.0182  1.3597
14864TIP3    H266008   3.404   0.313  11.230 -1.4224  0.2579  0.5617
14865TIP3   OH266009   3.321   1.992   1.467 -0.4307  0.7998 -0.1576
14865TIP3    H166010   3.363   2.078   1.473  0.5478  0.3142  0.2695
14865TIP3    H266011   3.262   1.990   1.542 -1.6011  1.6687 -1.0213
14866TIP3   OH266012   6.175   0.281  10.308 -0.0222  0.4785 -0.1773
14866TIP3    H166013   6.229   0.202  10.310  1.3972  1.4203  1.4372
14866TIP3    H266014   6.130   0.281  10.393  0.2510  1.5471 -0.0116
14867TIP3   OH266015   0.862   5.276  15.756 -0.2699  0.0347 -0.4167
14867TIP3    H166016   0.927   5.207  15.770 -0.8776 -0.4032  0.3568
14867TIP3    H266017   0.910   5.346  15.712  0.8964 -0.0041  0.7202
14868TIP3   OH266018   1.684   4.227   4.315 -0.2769 -0.1156 -0.2991
14868TIP3    H166019   1.762   4.209   4.368  0.4886  1.3044 -0.8925
14868TIP3    H266020   1.643   4.303   4.357 -1.0174 -0.4742 -0.3488
14869TIP3   OH266021   4.600   4.015   1.139  0.2995 -0.8769 -0.2002
14869TIP3    H166022   4.529   4.078   1.126  1.0033 -0.0626 -0.1773
14869TIP3    H266023   4.625   4.026   1.231  0.8603 -0.7155 -0.3677
14870TIP3   OH266024   6.426   3.242  15.187 -0.6036 -0.1895 -0.5931
14870TIP3    H166025   6.364   3.239  15.114 -0.6191 -1.1991 -0.5475
14870TIP3    H266026   6.371   3.240  15.265 -0.5345 -0.7510 -0.5544
14871TIP3   OH266027   5.923   0.713   1.625  0.2500  0.5341  0.2376
14871TIP3    H166028   5.829   0.696   1.624  0.2676  0.2099  1.5890
14871TIP3    H266029   5.933   0.796   1.579 -0.7525  0.8117  0.4861
14872TIP3   OH266030   0.266   5.493   0.607 -0.2166  0.3221 -0.5559
14872TIP3    H166031   0.200   5.428   0.582 -1.0023  0.6375  0.5929
14872TIP3    H266032   0.284   5.542   0.527 -0.4593 -0.5600 -1.1700
14873TIP3   OH266033   2.259   3.127  11.433  0.6049 -0.2222  0.1531
14873TIP3    H166034   2.182   3.102  11.484 -0.9640 -1.9036 -2.8134
14873TIP3    H266035   2.323   3.057  11.451 -0.5179 -1.6769 -1.3048
14874TIP3   OH266036   0.471   3.759  16.637  0.1228  0.8256  0.1680
14874TIP3    H166037   0.495   3.666  16.638 -2.3697  0.1072  1.2263
14874TIP3    H266038   0.487   3.789  16.726 -1.1238  0.7768  0.4314
14875TIP3   OH266039   1.575   1.606  14.303 -0.0616  0.2613  0.5011
14875TIP3    H166040   1.497   1.582  14.353  0.0364  0.3239  0.6856
14875TIP3    H266041   1.564   1.699  14.285 -1.0098 -0.1420 -1.2206
14876TIP3   OH266042   3.228   5.468   2.319 -0.3147  0.1197 -0.4375
14876TIP3    H166043   3.211   5.536   2.254  1.5569  0.5358 -0.5551
14876TIP3    H266044   3.260   5.516   2.396 -1.6006 -0.4416  0.4822
14877TIP3   OH266045   3.044   4.914  11.068  0.1370 -0.4037  0.1268
14877TIP3    H166046   3.137   4.911  11.087  0.8023  1.2980 -2.3534
14877TIP3    H266047   3.015   4.997  11.104 -0.0385 -0.1717 -0.5397
14878TIP3   OH266048   6.136   3.647  15.289  0.4934 -0.2043  0.1500
14878TIP3    H166049   6.048   3.663  15.323 -0.0234  0.4853 -1.4409
14878TIP3    H266050   6.133   3.677  15.198  3.6140  4.2054  1.2041
14879TIP3   OH266051   2.545   1.157  13.251 -0.2017 -0.2649  0.0207
14879TIP3    H166052   2.529   1.084  13.310  0.7660 -0.8172 -0.3703
14879TIP3    H266053   2.555   1.233  13.308  1.1344 -0.8617  0.6272
14880TIP3   OH266054   5.909   5.981  14.046  0.9822 -0.0385  0.1366
14880TIP3    H166055   5.849   6.004  13.976  1.2769  1.4025  0.3283
14880TIP3    H266056   5.888   6.042  14.117  0.5685 -1.5726  1.3886
14881TIP3   OH266057   6.651   2.395  16.580  0.1061 -0.1723 -0.0588
14881TIP3    H166058   6.684   2.437  16.660 -1.6369  0.7935  0.1916
14881TIP3    H266059   6.728   2.388  16.524  0.9262  1.1822  0.8363
14882TIP3   OH266060   5.021   3.851   1.248 -0.2606 -0.5372  0.2433
14882TIP3    H166061   4.937   3.839   1.204 -1.9201  0.7658  2.8458
14882TIP3    H266062   5.068   3.914   1.194 -1.4076 -0.4600 -0.6938
14883TIP3   OH266063   0.111   2.480   4.168  0.1127 -0.1951 -0.4922
14883TIP3    H166064   0.144   2.499   4.256  1.6474 -0.5830 -0.9476
14883TIP3    H266065   0.062   2.558   4.143  1.3006  0.7400 -0.0244
14884TIP3   OH266066   1.810   3.135  13.030 -0.2373 -0.6877  0.0897
14884TIP3    H166067   1.724   3.174  13.013  0.2752  0.6543  0.3824
14884TIP3    H266068   1.792   3.060  13.086 -1.0850  0.8696  2.0535
14885TIP3   OH266069   4.064   5.894   2.506 -0.3050 -0.5300  0.9242
14885TIP3    H166070   4.104   5.852   2.430  1.4681  1.0493  0.9087
14885TIP3    H266071   3.979   5.925   2.474  0.9830  1.3855 -0.9237
14886TIP3   OH266072   3.185   3.662  14.899 -0.3757  0.7119 -0.6431
14886TIP3    H166073   3.156   3.627  14.983  0.0170  0.4610 -0.6083
14886TIP3    H266074   3.213   3.751  14.917 -2.2422  1.3936 -0.8967
14887TIP3   OH266075   0.329   1.483   2.604 -0.2670  0.0602 -0.1296
14887TIP3    H166076   0.259   1.418   2.610  0.7101 -0.9272  0.7719
14887TIP3    H266077   0.394   1.456   2.669 -0.9347  3.3218  2.1784
14888TIP3   OH266078   6.514   1.599   4.983 -0.4115  0.1934  0.2292
14888TIP3    H166079   6.505   1.657   5.058 -3.0002  1.4672 -0.9017
14888TIP3    H266080   6.571   1.647   4.922  0.3509 -0.0958  0.7089
14889TIP3   OH266081   0.427   0.472  12.174 -0.1678  0.4744  0.1327
14889TIP3    H166082   0.471   0.402  12.126  0.4830  1.0486 -0.1201
14889TIP3    H266083   0.356   0.499  12.116  2.0534  2.8370 -1.7207
14890TIP3   OH266084   6.160   5.677  10.794 -0.1126 -0.3883 -0.4304
14890TIP3    H166085   6.211   5.708  10.719 -0.1377 -2.4958 -1.3863
14890TIP3    H266086   6.150   5.754  10.849  1.2378  0.8715 -1.8378
14891TIP3   OH266087   1.171   4.396  10.736 -0.1299 -0.7605  0.2512
14891TIP3    H166088   1.118   4.475  10.737  0.6784 -0.2096  0.5189
14891TIP3    H266089   1.257   4.425  10.705 -0.0406 -1.6720 -0.4017
14892TIP3   OH266090   0.566   2.575  12.601  0.3886  0.4210  1.0583
14892TIP3    H166091   0.513   2.507  12.642  0.4158  0.1566  0.6669
14892TIP3    H266092   0.653   2.535  12.591  0.0768  0.0388 -0.3399
14893TIP3   OH266093   4.014   6.223  15.796 -0.2878  0.0605 -0.2921
14893TIP3    H166094   3.984   6.140  15.759  2.7500 -2.0863  1.5832
14893TIP3    H266095   4.083   6.252  15.737  0.1074  0.0921  0.1792
14894TIP3   OH266096   1.588   4.652   2.813  0.2941 -0.4322  0.3931
14894TIP3    H166097   1.493   4.651   2.801  0.1342 -1.3154  1.5456
14894TIP3    H266098   1.601   4.682   2.903  1.1187 -0.1856  0.2049
14895TIP3   OH266099   6.131   3.717  14.581  0.4303 -0.0580 -0.0454
14895TIP3    H166100   6.092   3.643  14.629 -2.0885  0.5227 -1.0548
14895TIP3    H266101   6.187   3.760  14.645 -1.5061 -0.2874  1.9325
14896TIP3   OH266102   1.359   1.084  13.698  0.6688 -0.9323  0.1462
14896TIP3    H166103   1.433   1.030  13.670  0.3401 -0.6467 -1.3404
14896TIP3    H266104   1.390   1.128  13.777  1.9535 -1.0935 -0.2498
14897TIP3   OH266105   0.239   3.483  12.444  1.0339 -0.0316  0.0774
14897TIP3    H166106   0.223   3.518  12.356  1.9833  0.6857  0.1629
14897TIP3    H266107   0.334   3.469  12.446  0.7944 -1.8743  0.3493
14898TIP3   OH266108   4.463   6.094   1.181  0.7645 -0.7017  0.0073
14898TIP3    H166109   4.383   6.101   1.129  1.0499 -1.4632 -0.5603
14898TIP3    H266110   4.459   6.007   1.221  0.9236 -0.4264  0.6364
14899TIP3   OH266111   4.589   2.153   2.528 -0.2627  0.4392 -0.0232
14899TIP3    H166112   4.550   2.209   2.461 -0.9396  0.3271  0.2688
14899TIP3    H266113   4.537   2.169   2.607 -0.9723 -1.1594 -0.1194
14900TIP3   OH266114   4.631   6.817  14.318  0.5691  0.5191 -0.0451
14900TIP3    H166115   4.664   6.757  14.251 -1.3176 -1.3268  0.5604
14900TIP3    H266116   4.614   6.761  14.394  0.4407  2.1568  1.1900
14901TIP3   OH266117   6.397   3.801   5.779  0.1391  0.4046  0.2765
14901TIP3    H166118   6.344   3.760   5.847 -0.4927  1.8411  0.7072
14901TIP3    H266119   6.399   3.737   5.708  1.1382 -1.3016  1.7583
14902TIP3   OH266120   2.347   3.602  12.285 -0.2441  0.0043 -0.3997
14902TIP3    H166121   2.409   3.554  12.339 -1.9702  0.3552  2.0763
14902TIP3    H266122   2.266   3.552  12.291 -0.7952  0.6861 -1.7659
14903TIP3   OH266123   2.781   6.439  12.000  0.7016  0.1007 -0.3159
14903TIP3    H166124   2.829   6.455  12.081  0.4609 -1.0989  0.0746
14903TIP3    H266125   2.698   6.486  12.012  1.2509  1.1473 -0.4913
14904TIP3   OH266126   3.538   3.974  15.889 -0.5456  0.3572 -0.3916
14904TIP3    H166127   3.601   3.971  15.961 -1.8522  0.7529  0.8094
14904TIP3    H266128   3.542   3.886  15.851 -0.4463 -0.1388  0.7220
14905TIP3   OH266129   6.337   1.667   1.770 -0.3078 -0.6970  0.1614
14905TIP3    H166130   6.331   1.628   1.682 -0.7741  1.1735 -0.6815
14905TIP3    H266131   6.351   1.760   1.754  1.5849 -0.5751  2.1125
14906TIP3   OH266132   5.705   2.422  11.197 -0.3705  0.0075  0.4918
14906TIP3    H166133   5.665   2.354  11.143 -1.7776 -0.3142  1.8909
14906TIP3    H266134   5.775   2.377  11.244 -1.8733 -0.7750  2.1016
14907TIP3   OH266135   4.005   6.399  11.305 -0.1329 -0.0007 -0.1532
14907TIP3    H166136   4.077   6.446  11.347  0.5046 -0.1157 -1.0862
14907TIP3    H266137   3.927   6.451  11.325  0.0974 -0.2263  1.4159
14908TIP3   OH266138   2.018   0.376  11.100 -0.0644  0.0730  0.3229
14908TIP3    H166139   1.970   0.304  11.059 -0.4895 -0.2573  1.3807
14908TIP3    H266140   2.005   0.363  11.194  0.2457  1.2646  0.5387
14909TIP3   OH266141   5.193   3.391  15.604 -0.1171  0.3400 -0.0523
14909TIP3    H166142   5.241   3.376  15.685  0.6516 -0.1761 -0.5827
14909TIP3    H266143   5.124   3.453  15.628 -0.6147 -0.6762  1.2339
14910TIP3   OH266144   0.063   2.888  12.888  0.0792 -0.1306 -0.5851
14910TIP3    H166145   0.137   2.933  12.929  0.4297 -0.2087 -1.1083
14910TIP3    H266146   0.095   2.799  12.872  0.2642  0.1227 -1.7779
14911TIP3   OH266147   4.926   2.951  11.048  0.4628 -0.2496 -0.2142
14911TIP3    H166148   4.847   2.908  11.081  1.3093 -0.4982  1.6210
14911TIP3    H266149   4.935   3.029  11.103  0.2396  1.0579 -1.9530
14912TIP3   OH266150   5.701   5.151  16.372  0.0279  0.1612  0.1219
14912TIP3    H166151   5.778   5.207  16.360  1.3989 -1.0768  2.3896
14912TIP3    H266152   5.659   5.186  16.450 -0.5942 -0.3914  0.0327
14913TIP3   OH266153   3.899   1.769   5.199 -0.4159  0.1375 -0.2011
14913TIP3    H166154   3.959   1.783   5.272 -0.9647  3.8376 -0.3123
14913TIP3    H266155   3.946   1.800   5.122 -1.4279  0.4316 -0.7199
14914TIP3   OH266156   6.149   2.842  16.639 -0.1073  0.4040 -0.2206
14914TIP3    H166157   6.209   2.776  16.671 -1.5048 -0.5919  0.4720
14914TIP3    H266158   6.151   2.834  16.544  0.4458  0.0161 -0.1778
14915TIP3   OH266159   2.798   0.621  11.022 -0.7843 -0.6041 -0.1292
14915TIP3    H166160   2.857   0.691  10.995 -0.5923  0.2061  2.1073
14915TIP3    H266161   2.853   0.543  11.027 -0.8464 -0.7893 -1.9746
14916TIP3   OH266162   5.480   6.255   1.475  0.5165  0.1568 -0.1349
14916TIP3    H166163   5.468   6.196   1.401  2.2901 -1.7235  0.9492
14916TIP3    H266164   5.574   6.250   1.494  0.3187  1.5763  1.4504
14917TIP3   OH266165   6.272   2.557   0.665  0.2588 -0.1969 -0.7966
14917TIP3    H166166   6.184   2.583   0.690 -0.2403 -1.6954 -0.9403
14917TIP3    H266167   6.291   2.607   0.585 -0.0803  0.8252 -0.2478
14918TIP3   OH266168   2.086   1.330  15.448  0.3073 -0.4535 -0.2932
14918TIP3    H166169   2.006   1.380  15.435 -0.0943 -0.6755  1.1600
14918TIP3    H266170   2.057   1.239  15.450  0.4894 -0.4991  0.8590
14919TIP3   OH266171   4.060   1.777  10.347 -0.1529 -0.0654 -0.2601
14919TIP3    H166172   4.066   1.870  10.325 -0.0969 -0.0133 -0.0259
14919TIP3    H266173   4.129   1.763  10.412 -1.8449  0.3117  1.7039
14920TIP3   OH266174   6.867   3.896  15.735 -0.2265 -0.4101 -0.2761
14920TIP3    H166175   6.802   3.838  15.696 -0.7645  0.0617 -0.0863
14920TIP3    H266176   6.951   3.857  15.711 -0.5321 -0.2151 -1.8122
14921TIP3   OH266177   6.020   3.171   6.165  0.3181 -0.0330 -0.1527
14921TIP3    H166178   6.112   3.186   6.189  0.6066 -0.0278 -1.2234
14921TIP3    H266179   5.984   3.124   6.240  1.3507 -0.5905  0.0191
14922TIP3   OH266180   3.604   1.529   2.091 -0.0645  0.8541  0.3698
14922TIP3    H166181   3.583   1.620   2.113  0.9106  1.1570  0.1102
14922TIP3    H266182   3.530   1.478   2.125  0.4916  1.4854  2.6759
14923TIP3   OH266183   6.523   2.389  12.396  0.7925 -0.4246 -0.2726
14923TIP3    H166184   6.476   2.450  12.339  0.2675 -1.5060 -1.0218
14923TIP3    H266185   6.454   2.346  12.446  1.1729 -0.3283  0.3489
14924TIP3   OH266186   3.235   4.673   0.069  0.0466 -0.4394  0.1654
14924TIP3    H166187   3.269   4.612   0.004  0.9189  0.3287 -0.1210
14924TIP3    H266188   3.284   4.654   0.148  1.0039  0.4984 -0.1793
14925TIP3   OH266189   3.951   5.756  12.064 -0.3365  0.6339  0.2315
14925TIP3    H166190   4.002   5.793  12.136 -0.7855 -0.7226  1.2985
14925TIP3    H266191   3.981   5.802  11.987  1.2735  1.0709  1.0807
14926TIP3   OH266192   4.462   5.013   4.475 -0.3802 -0.1702  0.0989
14926TIP3    H166193   4.419   5.042   4.395 -1.9114  0.2360  1.0392
14926TIP3    H266194   4.547   5.056   4.473 -0.5213  0.0896 -1.1396
14927TIP3   OH266195   6.254   2.380  15.162 -0.3028  0.0435 -0.7441
14927TIP3    H166196   6.268   2.460  15.112 -1.5909  0.4960 -0.4407
14927TIP3    H266197   6.218   2.318  15.099 -0.2114  0.0187 -0.7724
14928TIP3   OH266198   2.478   3.067   0.140 -0.5233 -0.0585 -0.3571
14928TIP3    H166199   2.498   3.111   0.223 -0.6249 -0.5312 -0.0811
14928TIP3    H266200   2.409   3.121   0.101 -0.3066  0.3042 -0.2541
14929TIP3   OH266201   2.893   5.430  13.006  0.7882 -0.0961 -0.5232
14929TIP3    H166202   2.848   5.416  12.923 -0.9354  1.1851  0.1327
14929TIP3    H266203   2.839   5.386  13.071  1.4439 -0.0255  0.0869
14930TIP3   OH266204   3.920   5.859  13.570 -0.1469 -0.1859  0.1451
14930TIP3    H166205   3.909   5.924  13.639 -0.5471 -0.8689  0.7483
14930TIP3    H266206   3.959   5.907  13.497 -0.0110  0.6205  0.7334
14931TIP3   OH266207   1.139   4.157  13.859 -1.0147 -0.4785 -0.1748
14931TIP3    H166208   1.074   4.152  13.789 -1.1594 -2.2264  0.0384
14931TIP3    H266209   1.214   4.108  13.825 -0.6133 -0.2817  0.4180
14932TIP3   OH266210   4.980   0.284  16.172  0.7679 -0.3092  0.1251
14932TIP3    H166211   5.060   0.305  16.125  1.0858 -0.0321  0.7861
14932TIP3    H266212   5.009   0.259  16.260  0.3655 -2.7227 -0.3492
14933TIP3   OH266213   0.122   2.064  16.174  0.1477  0.0931  0.0664
14933TIP3    H166214   0.121   1.995  16.108 -2.3041  1.3232 -1.3193
14933TIP3    H266215   0.207   2.054  16.217  1.6734 -1.0830 -2.8984
14934TIP3   OH266216   3.491   1.986  13.088  0.0584 -0.0353  0.5008
14934TIP3    H166217   3.563   1.994  13.151  0.2098  0.3754  0.2847
14934TIP3    H266218   3.412   1.980  13.142 -0.0846  2.9189  0.7695
14935TIP3   OH266219   4.752   6.223   6.111  0.0923  0.4911 -0.1814
14935TIP3    H166220   4.843   6.227   6.138 -0.2712  0.8195  1.0423
14935TIP3    H266221   4.702   6.218   6.192 -0.9365 -0.8992 -0.8387
14936TIP3   OH266222   3.202   4.115  10.599  0.2931 -0.1419 -0.1845
14936TIP3    H166223   3.206   4.165  10.517  2.1364  0.2622  0.1230
14936TIP3    H266224   3.130   4.053  10.585 -0.6229  1.1089 -1.4068
14937TIP3   OH266225   3.261   4.253  13.493 -0.1246 -0.4127  0.7907
14937TIP3    H166226   3.280   4.255  13.399  0.6591  0.1068  0.9442
14937TIP3    H266227   3.209   4.174  13.506  0.1690 -0.7465 -0.0062
14938TIP3   OH266228   6.808   4.177   0.458  0.5397  1.0624  0.3881
14938TIP3    H166229   6.852   4.173   0.543  1.3942  0.6196 -0.0602
14938TIP3    H266230   6.877   4.159   0.395 -0.5110 -0.9532 -0.2855
14939TIP3   OH266231   5.347   3.495   3.136  0.4968  0.4524 -0.7058
14939TIP3    H166232   5.323   3.404   3.153 -1.1806  0.9009 -0.4925
14939TIP3    H266233   5.437   3.490   3.104  1.0077 -1.1159  0.8242
14940TIP3   OH266234   1.530   3.836  10.821  0.4201  0.9872 -0.2424
14940TIP3    H166235   1.554   3.882  10.741 -0.3576  0.0394 -1.0531
14940TIP3    H266236   1.579   3.754  10.817 -0.8712  0.1914 -0.6188
14941TIP3   OH266237   1.313   5.682  10.962 -0.6655  0.7233  0.0179
14941TIP3    H166238   1.398   5.723  10.943 -0.4877  0.1035 -0.5903
14941TIP3    H266239   1.328   5.634  11.044  0.3723 -1.4810 -1.3547
14942TIP3   OH266240   0.232   6.231   4.149 -0.2704 -0.2907  0.1494
14942TIP3    H166241   0.297   6.299   4.129 -2.5473  1.9144 -0.2856
14942TIP3    H266242   0.268   6.187   4.226  1.3080  1.4397  0.5022
14943TIP3   OH266243   6.608   6.775  14.435  0.1038 -0.2321 -0.2185
14943TIP3    H166244   6.536   6.712  14.436  0.1024 -0.2705 -1.3993
14943TIP3    H266245   6.566   6.860  14.451 -0.1695 -0.2854 -0.6517
14944TIP3   OH266246   2.501   0.804   2.760 -0.1173  0.3672  0.3098
14944TIP3    H166247   2.529   0.714   2.744  0.3748  0.7434 -1.1041
14944TIP3    H266248   2.559   0.857   2.705  0.5349  1.6786  2.1650
14945TIP3   OH266249   3.271   5.587   4.506  0.4842  0.5225 -0.4325
14945TIP3    H166250   3.194   5.641   4.523 -0.1725 -0.0635 -1.4695
14945TIP3    H266251   3.259   5.510   4.561 -0.1718 -0.0172 -1.3110
14946TIP3   OH266252   2.980   6.201   2.275 -0.0415  0.2849 -0.6801
14946TIP3    H166253   3.049   6.256   2.237  1.1392 -0.3982  0.3893
14946TIP3    H266254   2.963   6.240   2.361  0.2645 -0.5680 -0.2278
14947TIP3   OH266255   6.672   3.287   3.653 -0.3456 -0.1258  0.7221
14947TIP3    H166256   6.713   3.281   3.567  2.9670  0.8163  2.0842
14947TIP3    H266257   6.664   3.381   3.669  0.0553 -0.2662  1.8427
14948TIP3   OH266258   0.643   6.484   3.630 -0.2202 -0.6350 -0.3563
14948TIP3    H166259   0.626   6.535   3.709 -3.6790  0.7251 -1.7837
14948TIP3    H266260   0.738   6.488   3.619  0.0862  1.6937  2.0408
14949TIP3   OH266261   4.184   2.945  10.006 -0.2055 -0.3247 -0.3778
14949TIP3    H166262   4.144   3.028  10.034  0.6716 -0.1297  0.3709
14949TIP3    H266263   4.112   2.895   9.969 -0.9343  0.4173 -0.0081
14950TIP3   OH266264   0.826   5.177   4.349  0.0686  0.6644  0.3215
14950TIP3    H166265   0.863   5.095   4.383 -1.1250  0.0254  0.1378
14950TIP3    H266266   0.783   5.217   4.424 -3.0706 -1.0311 -0.4234
14951TIP3   OH266267   2.655   3.902  11.829 -0.0087  0.5151 -0.0391
14951TIP3    H166268   2.648   3.875  11.738 -0.5476  3.6200 -1.0169
14951TIP3    H266269   2.573   3.872  11.869 -0.0554 -0.3103 -0.7352
14952TIP3   OH266270   5.316   3.761   2.114  1.0620  0.8000 -0.0980
14952TIP3    H166271   5.406   3.732   2.098  0.3747 -1.6027  0.0371
14952TIP3    H266272   5.265   3.718   2.045 -0.3252 -0.0197  1.3852
14953TIP3   OH266273   2.505   1.758   4.908  0.4886  0.2067  0.0813
14953TIP3    H166274   2.412   1.749   4.927  0.6344 -0.9609  0.3051
14953TIP3    H266275   2.513   1.741   4.815  0.6292 -1.0561  0.3071
14954TIP3   OH266276   1.453   0.603  16.577 -0.4643 -0.4035  0.2936
14954TIP3    H166277   1.414   0.621  16.663 -0.5032  1.9176 -0.1383
14954TIP3    H266278   1.547   0.613  16.591 -0.5177  0.7954 -0.0552
14955TIP3   OH266279   5.675   0.088   3.124  0.5982 -0.2096 -0.4805
14955TIP3    H166280   5.642   0.141   3.051  1.2280  1.2653  0.2622
14955TIP3    H266281   5.617   0.109   3.197  1.7869  0.6709  0.2362
14956TIP3   OH266282   3.390   3.328   1.268 -0.1608 -0.1740 -0.0033
14956TIP3    H166283   3.451   3.370   1.208  0.9578  0.8066  1.7315
14956TIP3    H266284   3.435   3.250   1.299 -0.6387 -0.5538 -0.2403
14957TIP3   OH266285   2.836   4.047  13.983 -0.2815 -0.0750  0.5775
14957TIP3    H166286   2.843   4.021  14.075  2.2501 -1.5180  0.0687
14957TIP3    H266287   2.747   4.022  13.958 -0.5884 -0.8363  2.2773
14958TIP3   OH266288   1.390   4.662  16.171  0.0605  0.2808  0.5242
14958TIP3    H166289   1.430   4.746  16.193  0.0823  0.5558 -0.5127
14958TIP3    H266290   1.300   4.683  16.147 -0.2140 -0.1204  1.1797
14959TIP3   OH266291   4.588   1.713  11.207 -0.0776 -0.1329 -0.4502
14959TIP3    H166292   4.614   1.701  11.298 -0.7594 -2.9167 -0.5440
14959TIP3    H266293   4.566   1.625  11.176 -0.3920  0.8022 -3.1564
14960TIP3   OH266294   3.857   6.345  11.649 -0.7166 -0.1747 -0.3377
14960TIP3    H166295   3.869   6.253  11.628  1.4146 -0.3535  1.3610
14960TIP3    H266296   3.764   6.353  11.673 -1.0824 -1.7072 -1.1744
14961TIP3   OH266297   6.355   2.207  10.345 -0.1561  0.4162 -0.6244
14961TIP3    H166298   6.315   2.131  10.389 -0.5045  2.0341  2.1194
14961TIP3    H266299   6.448   2.199  10.365  0.2236 -0.6191 -2.6063
14962TIP3   OH266300   5.267   0.250  10.172 -0.2915 -0.4031 -0.7478
14962TIP3    H166301   5.293   0.184  10.107 -0.7230 -1.7599  0.4175
14962TIP3    H266302   5.308   0.331  10.140  1.1877 -1.4364 -1.6368
14963TIP3   OH266303   2.510   0.860  11.721 -0.0958 -0.2844 -0.1701
14963TIP3    H166304   2.528   0.937  11.775  0.7997 -1.3907  1.1868
14963TIP3    H266305   2.597   0.825  11.700 -0.4656 -0.4748 -1.4912
14964TIP3   OH266306   1.218   6.278   1.264 -0.0812  0.2791  0.2654
14964TIP3    H166307   1.277   6.352   1.278  0.3956  0.1886 -1.1169
14964TIP3    H266308   1.200   6.244   1.352 -1.6779  3.0320  1.1183
14965TIP3   OH266309   1.727   0.515   0.624  0.1199 -0.4460  0.1870
14965TIP3    H166310   1.759   0.600   0.596 -2.0809  0.6319  0.7333
14965TIP3    H266311   1.806   0.462   0.637  1.6167  1.8623  1.0037
14966TIP3   OH266312   3.120   3.545  14.131  0.1372  0.1881 -0.0272
14966TIP3    H166313   3.049   3.608  14.143  0.0704  0.0659  0.2389
14966TIP3    H266314   3.103   3.478  14.197  0.9292  0.5437  0.5561
14967TIP3   OH266315   3.366   3.347  11.616 -0.5440  0.3288  0.3527
14967TIP3    H166316   3.305   3.308  11.679 -0.6583  0.9527  0.6342
14967TIP3    H266317   3.313   3.411  11.568 -0.6079 -0.5551 -0.7973
14968TIP3   OH266318   1.094   4.377  15.942  0.2440 -0.2047 -0.0226
14968TIP3    H166319   1.173   4.411  15.901 -0.6333  0.4265 -1.2607
14968TIP3    H266320   1.118   4.289  15.971  0.9762 -0.6141 -1.7534
14969TIP3   OH266321   1.876   6.773   1.519 -0.4086 -0.3079 -0.3442
14969TIP3    H166322   1.931   6.747   1.444 -1.3096 -1.7779 -0.5300
14969TIP3    H266323   1.789   6.786   1.481 -0.7652 -0.5775  0.3789
14970TIP3   OH266324   5.681   2.160   0.313  0.1569 -0.1967  0.0509
14970TIP3    H166325   5.765   2.136   0.273  0.1194  1.8291 -1.3981
14970TIP3    H266326   5.701   2.239   0.365 -0.9423  0.7046 -0.8467
14971TIP3   OH266327   4.973   4.545   9.991  0.7001 -0.3904  0.3931
14971TIP3    H166328   4.991   4.639   9.986  0.5849 -0.4019 -0.4612
14971TIP3    H266329   4.883   4.540  10.024  0.1096 -0.1305 -1.0894
14972TIP3   OH266330   4.743   2.870  11.231 -0.0614  0.3493 -0.1271
14972TIP3    H166331   4.719   2.936  11.296  1.2630  1.1793 -0.4621
14972TIP3    H266332   4.820   2.826  11.268  0.2948  0.3720 -0.8379
14973TIP3   OH266333   6.786   5.580  15.043 -0.3728 -0.1027  0.0776
14973TIP3    H166334   6.719   5.637  15.005 -1.3793 -1.0861  0.3168
14973TIP3    H266335   6.741   5.534  15.114  0.0732 -1.9865 -0.7853
14974TIP3   OH266336   0.907   3.248   4.889 -0.1393 -0.5026  0.6984
14974TIP3    H166337   0.942   3.251   4.800 -0.7326  0.2082  0.4763
14974TIP3    H266338   0.954   3.176   4.931  1.0664 -0.0373  0.2032
14975TIP3   OH266339   3.171   0.627  11.132 -0.0894  0.2936 -0.5317
14975TIP3    H166340   3.123   0.553  11.170  0.5265 -0.6471 -1.5597
14975TIP3    H266341   3.103   0.685  11.099 -0.5842 -1.1944 -2.2906
14976TIP3   OH266342   1.117   5.614  12.911  0.2171 -0.1229 -0.4102
14976TIP3    H166343   1.027   5.640  12.891  0.6796  0.9434 -1.1811
14976TIP3    H266344   1.126   5.627  13.005 -0.0691  0.9354 -0.5245
14977TIP3   OH266345   2.336   4.560   3.954 -0.2483 -0.1615  0.2408
14977TIP3    H166346   2.384   4.536   4.033  1.0629 -0.9261 -0.7558
14977TIP3    H266347   2.253   4.596   3.986  0.0043 -1.0206  1.9313
14978TIP3   OH266348   5.371   1.056  15.142  0.2966  0.0447 -0.2662
14978TIP3    H166349   5.419   1.026  15.065 -1.2428  1.1921 -1.7540
14978TIP3    H266350   5.417   1.135  15.169 -0.4048  0.8754 -1.3958
14979TIP3   OH266351   3.939   6.579  11.827  0.4787  1.0641 -0.4139
14979TIP3    H166352   4.035   6.584  11.825  0.4687  1.1746 -0.8116
14979TIP3    H266353   3.920   6.493  11.789  0.4443  0.7057  0.4068
14980TIP3   OH266354   5.713   5.855   4.587 -0.0342 -0.3300 -0.5442
14980TIP3    H166355   5.749   5.941   4.565 -0.5780 -0.3748 -1.7346
14980TIP3    H266356   5.768   5.794   4.539  0.7157 -0.7125  0.7640
14981TIP3   OH266357   0.923   0.406   4.316  0.1360  0.3793  0.2381
14981TIP3    H166358   0.843   0.443   4.353  0.2452 -1.0332  2.0092
14981TIP3    H266359   0.957   0.474   4.258 -1.9401  1.2908  0.0307
14982TIP3   OH266360   1.135   2.648   6.007 -0.7030  0.3798 -0.4074
14982TIP3    H166361   1.169   2.695   6.084  0.0126  0.6188 -0.8632
14982TIP3    H266362   1.039   2.651   6.018 -0.6043 -0.1920  0.8280
14983TIP3   OH266363   6.029   5.842  14.398 -0.3288  0.9870 -0.0271
14983TIP3    H166364   5.961   5.873  14.458 -0.9056  0.6577 -0.5026
14983TIP3    H266365   6.096   5.805  14.456 -0.8074  0.8118  0.4233
14984TIP3   OH266366   4.247   1.643   3.733 -0.2074 -0.1193 -0.1131
14984TIP3    H166367   4.165   1.643   3.783 -0.6278 -0.4375 -0.7928
14984TIP3    H266368   4.315   1.650   3.800 -0.7038 -1.7133  0.5966
14985TIP3   OH266369   0.062   3.113   1.734  0.6001 -0.1891  0.3477
14985TIP3    H166370   0.158   3.107   1.730  0.6047  0.3009 -0.4745
14985TIP3    H266371   0.045   3.174   1.805  0.8850 -0.6487  0.8129
14986TIP3   OH266372   4.918   0.083  11.243 -0.0107 -0.2108 -0.3897
14986TIP3    H166373   4.951  -0.006  11.232 -2.2631 -1.2362  0.6825
14986TIP3    H266374   4.832   0.073  11.283 -0.3996  2.4576 -0.3547
14987TIP3   OH266375   6.573   6.797   1.386  0.0244  0.7410  0.4956
14987TIP3    H166376   6.570   6.856   1.462 -0.7517  1.7615 -0.2977
14987TIP3    H266377   6.582   6.856   1.311 -1.7222 -0.0746 -0.3925
14988TIP3   OH266378   1.931   0.624  15.986  0.4575  0.2465 -0.3356
14988TIP3    H166379   1.987   0.553  15.954 -1.0554 -2.1170  1.8712
14988TIP3    H266380   1.989   0.679  16.037  0.9523 -2.1972  1.9799
14989TIP3   OH266381   4.516   1.265   5.699 -0.0251  0.3080 -0.1859
14989TIP3    H166382   4.534   1.196   5.762  1.3843  1.8459  1.1588
14989TIP3    H266383   4.431   1.301   5.725 -0.5024 -0.5269 -0.5605
14990TIP3   OH266384   3.495   5.627  13.652  0.0476 -0.1430  0.4698
14990TIP3    H166385   3.562   5.673  13.601 -1.0124 -0.8693 -1.7203
14990TIP3    H266386   3.545   5.573  13.713  1.4866 -0.2355 -0.7178
14991TIP3   OH266387   0.539   2.202  12.404  0.4840 -0.1965  0.0862
14991TIP3    H166388   0.516   2.142  12.475 -2.7090  3.3847  2.4587
14991TIP3    H266389   0.473   2.186  12.337  0.5504 -0.2772  0.0384
14992TIP3   OH266390   2.119   6.434   0.480 -0.2204  0.5594 -0.1689
14992TIP3    H166391   2.032   6.473   0.485 -0.8746 -0.7819 -0.5353
14992TIP3    H266392   2.144   6.443   0.388  0.8769  2.6212  0.2746
14993TIP3   OH266393   1.147   3.473  11.325 -0.1522  0.2671  0.0744
14993TIP3    H166394   1.094   3.553  11.328  1.2327  1.2257  0.2869
14993TIP3    H266395   1.179   3.461  11.414 -1.9168 -1.6875  0.5049
14994TIP3   OH266396   4.402   2.527   3.658 -0.3152 -0.0963 -0.0571
14994TIP3    H166397   4.431   2.585   3.587 -2.7857 -0.4099 -1.4371
14994TIP3    H266398   4.440   2.565   3.737  1.1311  1.2724 -1.3305
14995TIP3   OH266399   6.246   3.269  13.018 -0.5341 -0.0112  0.0132
14995TIP3    H166400   6.255   3.352  12.972 -2.0857 -0.4559 -1.1957
14995TIP3    H266401   6.271   3.203  12.953  2.5537 -0.4885  1.5306
14996TIP3   OH266402   5.324   5.571  15.770 -0.4774 -0.2992 -0.1129
14996TIP3    H166403   5.407   5.606  15.803  0.9586 -0.3105 -3.2939
14996TIP3    H266404   5.276   5.544  15.848  2.3256  0.0913  1.8981
14997TIP3   OH266405   0.533   4.906  14.449 -0.0140 -0.0626  0.6214
14997TIP3    H166406   0.490   4.919  14.533  2.2959  2.7829  1.5193
14997TIP3    H266407   0.496   4.973  14.392 -0.8153 -1.3018 -0.3592
14998TIP3   OH266408   5.322   5.019  11.005  0.8030  0.2925  0.1868
14998TIP3    H166409   5.337   4.946  10.944  0.7533  0.0785  0.4277
14998TIP3    H266410   5.278   5.085  10.953  1.3526  0.3804 -0.1818
14999TIP3   OH266411   4.543   0.372   0.338 -0.1818  0.5929 -0.3504
14999TIP3    H166412   4.469   0.388   0.396 -1.4700 -0.9796 -1.4749
14999TIP3    H266413   4.516   0.407   0.253 -0.1307 -0.9357 -1.0398
15000TIP3   OH266414   2.417   0.862   0.431 -0.5633 -0.5228 -0.2953
15000TIP3    H166415   2.414   0.927   0.361  2.0623  0.4164  0.3137
15000TIP3    H266416   2.397   0.779   0.388  1.7173 -0.0979 -2.4322
15001TIP3   OH266417   0.837   5.833   2.284  0.1390  0.4823  0.4760
15001TIP3    H166418   0.885   5.913   2.304 -1.9960  1.9518  0.0691
15001TIP3    H266419   0.897   5.781   2.231  1.5246  1.8611  0.6223
15002TIP3   OH266420   0.471   3.747   0.209 -0.1218  0.0250  0.4433
15002TIP3    H166421   0.542   3.761   0.271  0.9931 -0.7082 -0.6265
15002TIP3    H266422   0.405   3.812   0.233  1.2244  1.2446  0.9829
15003TIP3   OH266423   6.744   6.654  16.293  0.6501 -0.0630 -0.0961
15003TIP3    H166424   6.693   6.685  16.218 -1.1044 -2.8116 -0.1941
15003TIP3    H266425   6.679   6.614  16.351  2.1777  0.5353  2.1388
15004TIP3   OH266426   3.294   6.199   3.823 -0.5319  0.7565  0.1347
15004TIP3    H166427   3.229   6.269   3.819 -2.3948 -0.6000  3.0606
15004TIP3    H266428   3.347   6.219   3.900  0.8702  0.4539 -0.7114
15005TIP3   OH266429   6.242   4.004  14.483  0.3893 -0.2435  0.4792
15005TIP3    H166430   6.254   4.041  14.395  1.1524 -0.6267  0.4155
15005TIP3    H266431   6.196   3.921  14.468  1.0827 -0.6198  0.3707
15006TIP3   OH266432   5.255   5.120  16.630 -0.4737  0.3703 -0.2412
15006TIP3    H166433   5.260   5.196  16.573 -1.5130  0.4497 -0.2505
15006TIP3    H266434   5.271   5.154  16.718 -1.1486  0.6412 -0.2196
15007TIP3   OH266435   4.607   6.309  15.314 -0.0298 -0.4260 -0.2134
15007TIP3    H166436   4.593   6.270  15.400 -1.2718  0.3304 -0.0413
15007TIP3    H266437   4.528   6.285  15.264 -0.9525  1.9750 -0.0256
15008TIP3   OH266438   1.564   6.000  10.676 -0.6123 -0.5427 -0.1501
15008TIP3    H166439   1.566   6.040  10.590  1.4953  0.5772  0.3646
15008TIP3    H266440   1.529   6.068  10.734  1.0900 -0.0645  0.3876
15009TIP3   OH266441   5.466   1.622  13.752 -0.1548 -0.3253 -0.2665
15009TIP3    H166442   5.457   1.567  13.830  1.3901 -0.7434 -0.3448
15009TIP3    H266443   5.387   1.676  13.752 -0.4327 -0.6634  1.2976
15010TIP3   OH266444   4.796   6.561   4.816  0.2179  0.3913 -0.0050
15010TIP3    H166445   4.760   6.644   4.784 -2.3355 -1.0507 -1.1017
15010TIP3    H266446   4.764   6.495   4.755 -0.5385 -1.8451  2.6220
15011TIP3   OH266447   2.019   1.822  15.769  0.2274  0.3327 -0.0022
15011TIP3    H166448   2.104   1.801  15.806  1.4312  0.7079 -2.3189
15011TIP3    H266449   2.012   1.766  15.692 -0.1663  2.4549 -1.6188
15012TIP3   OH266450   5.593   0.356   6.010  0.0480 -0.6607  0.0851
15012TIP3    H166451   5.506   0.364   6.049 -0.5504 -1.1852 -1.0897
15012TIP3    H266452   5.643   0.306   6.074  0.1295  1.3968  1.7235
15013TIP3   OH266453   4.380   0.468   4.345  0.2763 -0.0046  0.0786
15013TIP3    H166454   4.381   0.393   4.405 -0.3179  0.3392  0.5265
15013TIP3    H266455   4.288   0.481   4.325  0.3651  0.6944  0.1060
15014TIP3   OH266456   1.919   3.954   5.969 -0.2640  0.1777 -0.3204
15014TIP3    H166457   1.910   4.048   5.954  0.8721  0.4929  0.8355
15014TIP3    H266458   1.830   3.920   5.965 -0.8735  1.5626  0.9169
15015TIP3   OH266459   4.950   1.207   5.640 -0.4670  0.8917  0.0116
15015TIP3    H166460   4.868   1.189   5.593  0.7560 -2.2822 -1.1788
15015TIP3    H266461   5.001   1.260   5.580 -1.3065  2.2470  0.4510
15016TIP3   OH266462   6.137   0.493   5.124  0.1417  0.4119  0.0607
15016TIP3    H166463   6.100   0.447   5.048 -0.0932  0.1417  0.3346
15016TIP3    H266464   6.082   0.570   5.135 -1.0950 -0.5777  1.1698
15017TIP3   OH266465   5.870   2.658  12.696 -0.1802  0.8275  0.2267
15017TIP3    H166466   5.859   2.575  12.741 -0.2763  0.1875 -0.9405
15017TIP3    H266467   5.855   2.638  12.604 -3.6032  2.7739  0.2116
15018TIP3   OH266468   5.597   5.850  14.510 -0.1925  0.2822 -0.1754
15018TIP3    H166469   5.556   5.806  14.584 -1.0094  2.4782  0.7798
15018TIP3    H266470   5.576   5.795  14.434 -1.6287 -0.6450  0.8478
15019TIP3   OH266471   3.968   5.187  11.326 -0.1249  0.4840 -0.0216
15019TIP3    H166472   4.003   5.098  11.314  0.3036  0.5918  0.4021
15019TIP3    H266473   4.010   5.218  11.406  1.5530  1.9526 -1.3975
15020TIP3   OH266474   6.330   6.402   4.711 -0.4969 -0.2836 -0.4389
15020TIP3    H166475   6.268   6.384   4.782 -0.9939 -1.3971 -1.1404
15020TIP3    H266476   6.308   6.491   4.683  1.1473  1.0961  2.2102
15021TIP3   OH266477   6.165   5.598  12.222  0.5817 -0.0170  0.5864
15021TIP3    H166478   6.128   5.566  12.304  1.1616 -0.4144  0.6944
15021TIP3    H266479   6.258   5.612  12.241  0.8245 -0.5753 -0.1229
15022TIP3   OH266480   6.147   2.199   1.215  0.4477 -0.2452 -0.4793
15022TIP3    H166481   6.174   2.273   1.269  1.2084 -0.4685 -0.5456
15022TIP3    H266482   6.183   2.122   1.258  0.6407 -0.4720 -1.0308
15023TIP3   OH266483   5.544   0.741  13.874 -0.0511  0.4801 -0.4624
15023TIP3    H166484   5.475   0.700  13.822 -0.9593  0.8215  0.4521
15023TIP3    H266485   5.526   0.835  13.868  1.1469  0.6759 -1.3298
15024TIP3   OH266486   5.535   6.014  16.297 -0.2831  0.9796 -0.2735
15024TIP3    H166487   5.512   6.034  16.206  1.3577 -1.4805 -1.3142
15024TIP3    H266488   5.509   5.923  16.309 -0.9621  1.4031  1.9615
15025TIP3   OH266489   0.927   0.529   3.880  0.0276  0.2243  0.1883
15025TIP3    H166490   0.925   0.447   3.930  1.6244  0.1718  0.2164
15025TIP3    H266491   0.980   0.588   3.934 -0.9325  1.2148  0.0644
15026TIP3   OH266492   1.864   4.139   1.764  0.0301 -0.0068  0.3284
15026TIP3    H166493   1.915   4.102   1.692  1.3691  1.4264  0.4821
15026TIP3    H266494   1.774   4.110   1.748  0.4018 -0.1962 -1.5921
15027TIP3   OH266495   6.830   3.715  11.515 -0.7094 -0.1280  0.2563
15027TIP3    H166496   6.831   3.798  11.564  0.3719 -0.9684  1.7399
15027TIP3    H266497   6.896   3.727  11.447  0.8904 -0.4020  1.6829
15028TIP3   OH266498   4.257   2.920   2.864 -0.5223  0.0689 -0.0806
15028TIP3    H166499   4.203   2.970   2.803 -1.2150 -1.3762 -0.6833
15028TIP3    H266500   4.303   2.856   2.809  1.0085  0.5549  0.5632
15029TIP3   OH266501   1.645   1.624   0.997 -0.2516  0.3546 -0.4745
15029TIP3    H166502   1.574   1.580   1.044 -0.7832  0.1165 -1.4703
15029TIP3    H266503   1.661   1.703   1.048 -0.1252 -0.3689  0.6589
15030TIP3   OH266504   5.322   3.991  11.229 -0.2349  0.0163  0.1416
15030TIP3    H166505   5.377   4.059  11.189 -1.6405  1.6370  0.8647
15030TIP3    H266506   5.269   4.038  11.293  1.4259 -2.3427  3.5519
15031TIP3   OH266507   1.793   5.647  10.816 -0.1288 -0.6168 -0.5052
15031TIP3    H166508   1.860   5.595  10.861 -1.3546 -1.0520  0.9130
15031TIP3    H266509   1.775   5.600  10.735  2.6887  0.5857 -1.9621
15032TIP3   OH266510   5.591   6.315  12.039  0.2810 -0.0749 -0.8326
15032TIP3    H166511   5.509   6.334  11.993 -0.4447  0.8662  0.7456
15032TIP3    H266512   5.653   6.380  12.007 -0.6348  1.5281  0.5259
15033TIP3   OH266513   2.343   4.676  13.781  0.7159  0.0147 -0.1787
15033TIP3    H166514   2.364   4.594  13.827 -1.6915 -0.6471 -0.1463
15033TIP3    H266515   2.362   4.658  13.689 -1.3839 -1.2387 -0.4283
15034TIP3   OH266516   2.453   2.315   0.276  0.1522 -0.4857  0.1593
15034TIP3    H166517   2.459   2.400   0.232  0.2302 -1.0286 -0.9220
15034TIP3    H266518   2.517   2.321   0.347 -1.9157  1.4106  2.0440
15035TIP3   OH266519   1.419   4.895   4.221  0.1423  0.2433  0.3751
15035TIP3    H166520   1.391   4.810   4.256  2.4654 -1.9680 -2.5475
15035TIP3    H266521   1.390   4.894   4.130  2.8113  1.1276 -0.5959
15036TIP3   OH266522   5.567   0.595   3.658 -0.7652 -0.3366  0.2677
15036TIP3    H166523   5.555   0.575   3.751  0.5324  0.2703  0.5910
15036TIP3    H266524   5.618   0.522   3.624 -0.5716 -0.1724  0.2084
15037TIP3   OH266525   5.235   5.508  14.323  0.0923  0.2889  0.3116
15037TIP3    H166526   5.214   5.489  14.415  0.8495 -0.1903  0.4005
15037TIP3    H266527   5.264   5.599  14.323  2.4325 -0.3728  1.0166
15038TIP3   OH266528   3.544   2.292  11.514 -0.1063  0.9738 -0.5878
15038TIP3    H166529   3.487   2.295  11.591 -0.2010  1.0922 -0.6623
15038TIP3    H266530   3.572   2.383  11.502  2.3028  0.5551  1.0891
15039TIP3   OH266531   5.053   1.387   3.126  1.1312  0.0937  0.0421
15039TIP3    H166532   4.969   1.360   3.088  1.2296 -1.5098  0.8785
15039TIP3    H266533   5.108   1.408   3.050  0.4782 -0.4006 -0.5838
15040TIP3   OH266534   5.084   1.695   2.945  0.1022  0.0009 -0.0329
15040TIP3    H166535   5.062   1.763   3.009  0.3356 -0.4172  0.5021
15040TIP3    H266536   5.001   1.675   2.902  0.2373  1.4763 -1.0620
15041TIP3   OH266537   5.531   3.780  13.798  0.0924 -0.4646  0.3550
15041TIP3    H166538   5.567   3.795  13.711  0.8946 -0.2403  0.7127
15041TIP3    H266539   5.561   3.692  13.822 -1.1404 -1.0202 -0.0725
15042TIP3   OH266540   0.471   0.892   3.946 -0.4016  0.0514  0.3141
15042TIP3    H166541   0.431   0.810   3.976 -1.4393  1.0678  1.8988
15042TIP3    H266542   0.396   0.949   3.928  0.3182  0.9316  0.0623
15043TIP3   OH266543   0.682   1.513   4.416 -0.3656  0.3764  0.5282
15043TIP3    H166544   0.648   1.477   4.334 -2.0380 -1.9471  2.1423
15043TIP3    H266545   0.769   1.545   4.393  0.0225 -1.9832 -1.7412
15044TIP3   OH266546   2.940   0.217  15.458  0.1153  0.0007  0.3549
15044TIP3    H166547   2.921   0.309  15.475  0.9716  0.0138  1.3327
15044TIP3    H266548   2.863   0.170  15.488  0.2184  0.3032  1.1137
15045TIP3   OH266549   6.375   5.963  12.377  0.1279  0.3525 -0.3700
15045TIP3    H166550   6.405   5.964  12.286  1.1279 -1.1676 -0.0850
15045TIP3    H266551   6.394   6.051  12.409 -0.9632  1.1651 -1.8353
15046TIP3   OH266552   2.883   1.835   1.608 -0.5689 -0.1201 -0.6456
15046TIP3    H166553   2.814   1.796   1.554 -0.6106 -1.0871  0.0800
15046TIP3    H266554   2.868   1.929   1.601 -2.8040 -0.3074  0.5073
15047TIP3   OH266555   2.489   3.550   1.951  0.1910 -0.4028 -0.4738
15047TIP3    H166556   2.490   3.465   1.995  2.1200 -0.2019 -0.0815
15047TIP3    H266557   2.492   3.614   2.022 -0.3636 -0.0085 -0.7977
15048TIP3   OH266558   0.353   5.251   1.504 -0.0985 -0.2075 -0.4441
15048TIP3    H166559   0.317   5.167   1.533 -0.9875  1.3895  3.8324
15048TIP3    H266560   0.284   5.290   1.451 -1.1016 -0.8282  0.3740
15049TIP3   OH266561   4.910   2.374   5.213 -0.2854  0.6018  0.1672
15049TIP3    H166562   4.834   2.335   5.170  0.2058 -0.5715  0.3258
15049TIP3    H266563   4.874   2.411   5.294 -0.9858  1.6889 -0.6138
15050TIP3   OH266564   6.515   2.781   3.909 -0.6364 -0.4141 -0.1467
15050TIP3    H166565   6.555   2.759   3.994 -1.2478 -0.9267  0.0113
15050TIP3    H266566   6.539   2.873   3.895 -0.0865 -0.4735  0.3275
15051TIP3   OH266567   6.808   0.830   1.571 -0.5823  0.2662  0.9864
15051TIP3    H166568   6.739   0.894   1.552 -1.1491 -0.6626 -0.2516
15051TIP3    H266569   6.781   0.791   1.654 -0.5228  1.2250  1.4703
15052TIP3   OH266570   5.706   3.073   0.381  0.0134  0.2654 -0.2219
15052TIP3    H166571   5.655   3.031   0.313 -1.5939 -1.8184  2.0750
15052TIP3    H266572   5.651   3.145   0.413 -0.4343 -0.4062  0.5692
15053TIP3   OH266573   5.390   1.003  12.736  0.2054 -0.5429 -0.5249
15053TIP3    H166574   5.382   0.953  12.817  1.0542  0.2012  0.0331
15053TIP3    H266575   5.306   1.047  12.726 -0.6085 -2.1459 -1.0930
15054TIP3   OH266576   5.209   6.162   4.749 -0.1817  0.1485  0.2244
15054TIP3    H166577   5.301   6.136   4.742 -0.2282 -1.2740  3.1920
15054TIP3    H266578   5.209   6.231   4.815 -1.2790 -0.2097  0.6170
15055TIP3   OH266579   5.024   4.978  10.993  0.0562  0.1383 -0.4694
15055TIP3    H166580   4.932   4.988  11.018  0.4650 -1.2836  2.0092
15055TIP3    H266581   5.055   5.067  10.978 -1.6503  0.6598 -1.1700
15056TIP3   OH266582   5.727   5.918   5.281 -0.1261  0.0605  0.3163
15056TIP3    H166583   5.722   5.862   5.358  0.7687 -1.8985 -0.9576
15056TIP3    H266584   5.817   5.909   5.250  0.1996  2.6503  0.3120
15057TIP3   OH266585   6.661   3.943   6.317  0.0331 -0.0693 -0.0541
15057TIP3    H166586   6.697   3.951   6.229  0.9214  0.7798  0.3678
15057TIP3    H266587   6.724   3.886   6.363  0.4734  0.8260  0.4812
15058TIP3   OH266588   3.027   4.808  13.285  0.3108 -0.7304  0.7939
15058TIP3    H166589   3.057   4.893  13.253  0.9784 -1.0334  0.5826
15058TIP3    H266590   2.989   4.765  13.208 -1.1371 -0.1649  1.1643
15059TIP3   OH266591   1.289   4.330  15.440 -0.4151 -0.5905 -0.3018
15059TIP3    H166592   1.231   4.388  15.490  0.0648  0.2395 -0.6861
15059TIP3    H266593   1.240   4.248  15.433 -1.9018  0.3357 -1.2998
15060TIP3   OH266594   6.252   5.669  12.693 -0.1372  0.0881  0.3194
15060TIP3    H166595   6.211   5.642  12.775 -1.3185 -0.5286 -0.4317
15060TIP3    H266596   6.337   5.625  12.692 -0.2143 -0.0807  1.1029
15061TIP3   OH266597   1.932   3.299   1.612  0.3242  0.3894  0.5082
15061TIP3    H166598   2.018   3.278   1.573 -0.2194  0.3543 -0.7299
15061TIP3    H266599   1.875   3.312   1.536 -0.9131 -0.1734  1.3229
15062TIP3   OH266600   6.880   5.874   4.621 -0.1109  0.7254  0.0272
15062TIP3    H166601   6.817   5.815   4.663 -0.0207  0.7602  0.2127
15062TIP3    H266602   6.827   5.934   4.570 -0.1412 -1.3788 -2.6824
15063TIP3   OH266603   2.265   4.932  15.925 -0.3717  0.3193 -0.1970
15063TIP3    H166604   2.330   4.931  15.996 -0.9619  1.6727  0.3919
15063TIP3    H266605   2.296   4.999  15.865 -0.2957 -0.2712 -0.8240
15064TIP3   OH266606   3.600   1.058  13.884 -0.2481  0.0269 -0.6893
15064TIP3    H166607   3.626   1.124  13.820 -0.2739  0.7737  0.0558
15064TIP3    H266608   3.529   1.098  13.933 -1.8167 -1.4042 -1.6635
15065TIP3   OH266609   2.941   5.153  12.766  0.3130  0.3721 -0.0546
15065TIP3    H166610   2.935   5.084  12.700 -1.1731  0.2385  0.1760
15065TIP3    H266611   3.023   5.134  12.812  0.7763 -0.2290 -1.0804
15066TIP3   OH266612   0.098   5.968  10.617 -0.3890  0.3544 -0.0248
15066TIP3    H166613   0.064   5.879  10.625  0.9433 -0.1609  0.1960
15066TIP3    H266614   0.050   6.006  10.543  0.2858 -1.1620 -1.3000
15067TIP3   OH266615   5.240   0.221   1.577 -0.4441 -0.2131 -0.5698
15067TIP3    H166616   5.210   0.234   1.667  0.0125  0.8361 -0.5563
15067TIP3    H266617   5.205   0.135   1.552 -0.3879 -0.6271  0.6851
15068TIP3   OH266618   5.412   5.057  15.009  0.0778 -0.6229  0.0705
15068TIP3    H166619   5.349   5.097  14.949 -0.7695 -0.5930  0.9456
15068TIP3    H266620   5.405   4.963  14.992  1.4464 -0.4956 -1.3880
15069TIP3   OH266621   1.706   5.832  11.369  0.7340  0.1078  0.5143
15069TIP3    H166622   1.752   5.910  11.336  0.5635  0.3452  0.8343
15069TIP3    H266623   1.651   5.865  11.440 -1.1625  0.1286 -0.8905
15070TIP3   OH266624   4.561   2.822   2.085 -0.0609  0.2434  0.0982
15070TIP3    H166625   4.644   2.781   2.110 -0.6674 -1.3465 -0.3626
15070TIP3    H266626   4.528   2.768   2.013 -1.7859  0.4708  0.6683
15071TIP3   OH266627   5.214   2.051  13.008  0.5201 -0.3880 -0.1212
15071TIP3    H166628   5.169   2.129  12.976  1.9092  0.4020 -0.2193
15071TIP3    H266629   5.289   2.084  13.058 -0.4606 -1.6201  2.3340
15072TIP3   OH266630   6.849   4.217   2.271  0.0463 -0.3065  0.1888
15072TIP3    H166631   6.907   4.244   2.200  1.9058  0.5637  1.9806
15072TIP3    H266632   6.856   4.121   2.272 -1.2444 -0.4964 -1.7340
15073TIP3   OH266633   5.040   2.328  10.829 -0.0778 -0.1202 -0.1700
15073TIP3    H166634   4.985   2.302  10.755 -0.2283 -2.5953  0.7159
15073TIP3    H266635   5.121   2.358  10.789 -1.3456  1.8412 -1.4257
15074TIP3   OH266636   5.810   4.455   5.564 -0.5045  0.0730  0.1097
15074TIP3    H166637   5.839   4.524   5.623 -2.9991  1.3577 -0.0110
15074TIP3    H266638   5.828   4.488   5.476 -0.5181 -0.0102  0.0743
15075TIP3   OH266639   5.350   4.779   0.454  0.3011 -0.0955  0.3630
15075TIP3    H166640   5.386   4.849   0.508 -0.2786  1.5375 -1.2832
15075TIP3    H266641   5.380   4.799   0.365  0.4080 -2.1572 -0.1285
15076TIP3   OH266642   0.417   0.571   1.952 -0.2544  0.5999 -0.2528
15076TIP3    H166643   0.356   0.519   2.004 -1.1869 -0.3149 -2.1642
15076TIP3    H266644   0.458   0.630   2.015 -0.9168 -0.8060  1.5872
15077TIP3   OH266645   3.042   2.490  12.832 -0.2103 -0.0191  0.3194
15077TIP3    H166646   3.101   2.454  12.765 -0.9891 -3.4036  1.2494
15077TIP3    H266647   2.967   2.522  12.783  1.0901  1.6588 -0.6725
15078TIP3   OH266648   3.155   5.275   3.445  0.2303  0.0860  0.2855
15078TIP3    H166649   3.165   5.237   3.358  0.8322  1.3769 -0.2353
15078TIP3    H266650   3.212   5.352   3.444 -1.6855  1.5881  0.9496
15079TIP3   OH266651   2.998   2.294   0.764  0.8101  0.1449  0.8637
15079TIP3    H166652   2.992   2.250   0.679  1.1063 -0.1473  0.9933
15079TIP3    H266653   3.002   2.387   0.743 -2.5741  0.3636  0.6560
15080TIP3   OH266654   0.113   6.391   0.928 -0.3294  0.5015 -0.2626
15080TIP3    H166655   0.138   6.473   0.886 -0.6580  0.8212  0.1491
15080TIP3    H266656   0.164   6.389   1.009 -1.3520  0.9942  0.4150
15081TIP3   OH266657   3.600   0.129   2.632 -0.1063  0.2190 -0.0943
15081TIP3    H166658   3.584   0.078   2.553  0.1099 -0.3322  0.2135
15081TIP3    H266659   3.651   0.204   2.601  2.7265 -1.5267 -0.0950
15082TIP3   OH266660   2.931   1.179  13.356  0.1048  0.0999 -0.2405
15082TIP3    H166661   2.996   1.173  13.286 -0.9985 -0.9134 -1.2104
15082TIP3    H266662   2.917   1.273  13.366 -0.4562  0.2672 -2.1208
15083TIP3   OH266663   3.824   3.845   2.439  0.2204  0.0535  0.5683
15083TIP3    H166664   3.773   3.891   2.505  0.6912 -0.4018  1.2626
15083TIP3    H266665   3.891   3.797   2.488  1.4755  0.8133 -0.3221
15084TIP3   OH266666   3.626   0.950  16.067 -0.4943 -0.3529  0.2873
15084TIP3    H166667   3.595   0.897  15.994  0.7251 -1.7817  0.7735
15084TIP3    H266668   3.579   0.916  16.143 -2.1475  1.4610  0.1811
15085TIP3   OH266669   1.952   4.098  10.450 -0.3992  0.1477 -0.0730
15085TIP3    H166670   1.892   4.038  10.406  1.1088  0.2469 -2.4544
15085TIP3    H266671   2.034   4.049  10.458 -0.0033  0.9022  0.6410
15086TIP3   OH266672   2.144   1.165   1.120 -0.4447 -0.2397 -0.2558
15086TIP3    H166673   2.174   1.086   1.075 -0.9516  0.1534 -1.3018
15086TIP3    H266674   2.053   1.146   1.144 -0.0661 -0.5912  0.9632
15087TIP3   OH266675   5.268   5.391  14.962  0.3201  0.6745  0.0176
15087TIP3    H166676   5.245   5.321  15.023  1.3177  0.4163  0.1205
15087TIP3    H266677   5.207   5.462  14.982  1.1394  0.9158  1.8834
15088TIP3   OH266678   2.258   1.994  16.393 -0.0686  0.1015  0.1499
15088TIP3    H166679   2.220   2.055  16.457  0.9707  0.5390  0.3768
15088TIP3    H266680   2.273   1.914  16.443 -0.4238  0.0198  0.1296
15089TIP3   OH266681   1.721   6.783  13.065 -0.1432  0.0037 -0.7597
15089TIP3    H166682   1.777   6.834  13.124 -2.0894  0.3322  0.9047
15089TIP3    H266683   1.782   6.747  13.000  1.6951  2.0852 -0.3312
15090TIP3   OH266684   2.206   0.066  13.906  0.2036 -0.4884 -0.2329
15090TIP3    H166685   2.225   0.096  13.818  0.3656 -0.8958 -0.3400
15090TIP3    H266686   2.225  -0.028  13.904 -0.3713 -0.6169  0.0719
15091TIP3   OH266687   5.344   2.599   1.663  0.6819 -0.0266  0.4510
15091TIP3    H166688   5.259   2.564   1.691  0.7965  0.1311  1.0137
15091TIP3    H266689   5.322   2.670   1.604  0.4388 -1.9382 -1.9374
15092TIP3   OH266690   3.429   6.853  14.252  0.2846  0.1560  0.1884
15092TIP3    H166691   3.455   6.766  14.280 -0.4712 -0.9993 -2.3915
15092TIP3    H266692   3.476   6.867  14.169 -1.3575  1.2114 -0.6208
15093TIP3   OH266693   3.759   6.078  15.160  0.1297  0.3755  0.4233
15093TIP3    H166694   3.794   6.021  15.091  1.5528  0.4150  1.0813
15093TIP3    H266695   3.736   6.159  15.115  1.5490  0.5975  0.0663
15094TIP3   OH266696   6.347   6.389   1.105  0.0612 -0.8459  0.2458
15094TIP3    H166697   6.330   6.302   1.142 -0.3195 -0.5406  0.8096
15094TIP3    H266698   6.305   6.450   1.167 -0.2986 -0.3025 -0.5127
15095TIP3   OH266699   4.351   0.579  10.413  0.4957 -0.1595 -0.8326
15095TIP3    H166700   4.370   0.516  10.344 -0.1258  0.0237 -1.1753
15095TIP3    H266701   4.281   0.538  10.464 -0.0580  0.3373 -1.1822
15096TIP3   OH266702   6.574   3.918  15.528  0.1831  0.2216  0.5253
15096TIP3    H166703   6.485   3.906  15.497  0.7309 -0.4499 -0.8749
15096TIP3    H266704   6.565   3.960  15.613 -1.4297  1.5670 -0.2590
15097TIP3   OH266705   5.898   6.756   1.773 -0.8816 -0.0135 -0.0099
15097TIP3    H166706   5.912   6.841   1.815 -0.5373  0.2811 -0.7104
15097TIP3    H266707   5.806   6.759   1.744 -1.0039 -0.0640  0.3631
15098TIP3   OH266708   6.256   3.982   0.469  0.7713  0.0245  0.1421
15098TIP3    H166709   6.333   3.928   0.484 -0.6882 -2.0969  0.4023
15098TIP3    H266710   6.219   3.950   0.387  0.2340  1.1250 -0.0689
15099TIP3   OH266711   2.831   4.259   5.625  0.1374 -0.0384  0.4955
15099TIP3    H166712   2.778   4.295   5.554 -0.2300 -0.0298  0.7681
15099TIP3    H266713   2.779   4.275   5.704  0.5711  0.0145  0.7753
15100TIP3   OH266714   4.426   6.475   3.448 -0.1569 -0.2312 -0.2184
15100TIP3    H166715   4.422   6.478   3.544  0.7721 -1.1023 -0.1199
15100TIP3    H266716   4.426   6.566   3.420  0.4440  0.0519  0.6717
15101TIP3   OH266717   0.142   0.331  11.793 -0.3435 -0.4456 -0.0486
15101TIP3    H166718   0.128   0.323  11.699  4.2841  0.2049 -1.0490
15101TIP3    H266719   0.188   0.251  11.817  0.4196  0.3279  1.1808
15102TIP3   OH266720   6.631   6.082   6.098  0.1610  0.5685 -0.3050
15102TIP3    H166721   6.623   5.998   6.053  2.6807  0.3135 -0.4061
15102TIP3    H266722   6.543   6.100   6.130 -0.2836 -2.6574  0.6707
15103TIP3   OH266723   4.882   6.204  12.802  0.1416  0.5769  0.6126
15103TIP3    H166724   4.954   6.239  12.749  0.2831  1.4266  1.3454
15103TIP3    H266725   4.919   6.126  12.843 -0.0002 -0.1494 -0.6010
15104TIP3   OH266726   2.309   6.353  14.114  0.1167 -0.4906  0.6846
15104TIP3    H166727   2.217   6.370  14.134  0.5061  0.4825  1.7388
15104TIP3    H266728   2.354   6.436  14.132  0.8308 -0.0778 -2.4434
15105TIP3   OH266729   4.827   6.061   4.533  0.4390 -0.4423 -0.3965
15105TIP3    H166730   4.824   6.092   4.624  1.9222 -1.2804 -0.0275
15105TIP3    H266731   4.908   6.010   4.528 -0.3641 -1.6531 -1.7927
15106TIP3   OH266732   3.447   3.942   3.393  0.1149 -0.2466  0.2253
15106TIP3    H166733   3.485   3.982   3.471  0.5383 -0.7877  0.2992
15106TIP3    H266734   3.353   3.936   3.412 -0.1085  1.5614 -0.1596
15107TIP3   OH266735   0.379   5.352  14.612  0.7285 -0.1133 -0.4256
15107TIP3    H166736   0.373   5.428  14.670  0.5493  0.2823 -0.9541
15107TIP3    H266737   0.288   5.331  14.590  0.8235  0.4380 -1.4423
15108TIP3   OH266738   2.110   3.526   5.214 -0.4471 -0.1879  0.3735
15108TIP3    H166739   2.182   3.589   5.216 -0.0041 -0.3140 -3.4702
15108TIP3    H266740   2.119   3.476   5.295 -0.5424  4.2222  3.4165
15109TIP3   OH266741   0.694   4.545   1.387  0.2182  0.0883  0.0416
15109TIP3    H166742   0.668   4.623   1.436 -0.2993 -0.7370  1.1094
15109TIP3    H266743   0.785   4.561   1.363  0.1223  1.0153  0.2509
15110TIP3   OH266744   3.497   5.450   9.961 -0.8226 -0.8017  0.0414
15110TIP3    H166745   3.527   5.482  10.046 -0.3289 -0.5360 -0.2249
15110TIP3    H266746   3.551   5.373   9.943 -0.5796 -0.5679 -0.2508
15111TIP3   OH266747   6.336   1.440   0.634  0.4784  0.1617 -0.4023
15111TIP3    H166748   6.403   1.481   0.688  0.2041  1.0184 -0.7023
15111TIP3    H266749   6.350   1.475   0.546 -0.2575  0.2263 -0.5049
15112TIP3   OH266750   6.683   1.824   4.894 -0.7107  0.1808  0.4037
15112TIP3    H166751   6.744   1.750   4.886 -0.6840  0.3329 -0.9700
15112TIP3    H266752   6.739   1.899   4.913 -0.4831  0.2575 -0.5205
15113TIP3   OH266753   4.105   5.021  11.725 -0.5752 -0.6379 -0.0055
15113TIP3    H166754   4.056   5.037  11.805 -1.2684 -0.2349 -0.4954
15113TIP3    H266755   4.187   5.068  11.737  0.1641 -2.1765  1.2491
15114TIP3   OH266756   3.618   3.831  11.682  0.0541 -0.1807 -0.0380
15114TIP3    H166757   3.614   3.810  11.589 -0.3139 -1.1163  0.1763
15114TIP3    H266758   3.710   3.853  11.698  0.4093 -1.3782 -0.3503
15115TIP3   OH266759   1.937   0.448  12.426  0.4649 -0.2935  0.5286
15115TIP3    H166760   1.924   0.425  12.335  1.6211 -0.0457  0.2924
15115TIP3    H266761   1.910   0.371  12.475 -0.2033 -0.4082 -0.0120
15116TIP3   OH266762   2.910   3.239   3.902  0.4421 -0.4377 -0.0979
15116TIP3    H166763   2.909   3.209   3.811 -1.9647  1.4121 -0.7905
15116TIP3    H266764   2.972   3.312   3.902  0.0298 -0.0759 -0.4299
15117TIP3   OH266765   4.587   1.613   3.376 -0.3134 -0.5031 -0.0243
15117TIP3    H166766   4.635   1.606   3.458 -1.2797  2.0769  0.8835
15117TIP3    H266767   4.501   1.576   3.395  0.2759 -2.3657 -0.7506
15118TIP3   OH266768   0.677   1.738  12.576 -0.4779  0.1386  0.1820
15118TIP3    H166769   0.760   1.741  12.529 -0.0723 -3.4940  0.3119
15118TIP3    H266770   0.613   1.710  12.510 -1.0844  0.5084  0.6017
15119TIP3   OH266771   1.776   2.829  10.647 -0.2789 -0.2258  0.4586
15119TIP3    H166772   1.682   2.848  10.641  0.0499  1.6253  0.6752
15119TIP3    H266773   1.790   2.759  10.583 -1.6760  0.0392 -0.1807
15120TIP3   OH266774   3.872   6.206   5.213 -0.4558 -0.5743  0.2015
15120TIP3    H166775   3.832   6.180   5.296 -1.8916 -0.3901 -0.4081
15120TIP3    H266776   3.837   6.144   5.149  0.4913 -0.6010 -0.3143
15121TIP3   OH266777   3.267   4.578  13.159 -0.2804  0.1951  0.1621
15121TIP3    H166778   3.324   4.548  13.089 -0.8114 -0.7349  0.1030
15121TIP3    H266779   3.192   4.518  13.157 -0.8341  0.8314  0.8079
15122TIP3   OH266780   2.500   5.683   3.091  0.6227 -0.5695  0.3478
15122TIP3    H166781   2.510   5.604   3.146  1.3196  0.7760  2.2742
15122TIP3    H266782   2.589   5.703   3.062  0.2771 -1.1954 -1.2742
15123TIP3   OH266783   2.401   3.797   0.856  0.4336 -0.4872 -0.6202
15123TIP3    H166784   2.466   3.751   0.802  2.7820 -0.0081  1.6040
15123TIP3    H266785   2.329   3.735   0.866  1.9809 -2.3513 -0.5611
15124TIP3   OH266786   6.583   3.146   4.639  0.3372  0.1707 -0.3906
15124TIP3    H166787   6.572   3.085   4.713  1.5542 -1.6894 -1.6578
15124TIP3    H266788   6.511   3.125   4.580  1.4196 -0.9329 -1.3734
15125TIP3   OH266789   1.363   2.981  11.270 -0.0196 -0.1959  0.4093
15125TIP3    H166790   1.409   2.898  11.256 -1.1082 -0.6068 -1.0411
15125TIP3    H266791   1.411   3.044  11.216  0.1705 -0.1271  0.6597
15126TIP3   OH266792   2.039   6.203   3.603  0.2807  0.4479 -0.5677
15126TIP3    H166793   1.999   6.283   3.637  2.1679  1.5330 -0.7882
15126TIP3    H266794   2.035   6.213   3.508 -2.5276 -1.3488 -0.7772
15127TIP3   OH266795   5.880   5.500  15.120 -0.4855  0.1929 -0.1762
15127TIP3    H166796   5.905   5.574  15.176 -3.7824  1.4714 -0.1245
15127TIP3    H266797   5.868   5.427  15.181 -0.9467  0.7017  0.3528
15128TIP3   OH266798   1.618   3.781  14.093 -0.0540 -0.4384  0.8405
15128TIP3    H166799   1.554   3.718  14.060 -0.0117  0.7674 -1.8100
15128TIP3    H266800   1.574   3.826  14.166 -1.6788 -0.6435  0.0113
15129TIP3   OH266801   3.898   6.639   3.226 -0.2284 -0.0643  0.1562
15129TIP3    H166802   3.841   6.616   3.153 -0.8710  0.7259  0.3930
15129TIP3    H266803   3.987   6.637   3.190 -0.3843 -1.3266 -0.2109
15130TIP3   OH266804   6.611   3.119   3.207  0.1552  0.2761 -0.2873
15130TIP3    H166805   6.555   3.075   3.142  0.0509  0.3132 -0.2235
15130TIP3    H266806   6.690   3.141   3.159  0.2764 -0.1259 -0.2799
15131TIP3   OH266807   1.679   6.319   2.002 -0.0039  0.3633  0.4392
15131TIP3    H166808   1.725   6.351   1.925 -0.2161  0.1487  0.2209
15131TIP3    H266809   1.744   6.320   2.072  0.6917 -1.1061 -0.1368
15132TIP3   OH266810   1.717   2.763  16.158  0.0122  0.0188 -0.6708
15132TIP3    H166811   1.645   2.825  16.142  0.1654  0.4722  0.3387
15132TIP3    H266812   1.745   2.781  16.247  1.0995 -0.4583 -0.8999
15133TIP3   OH266813   4.871   6.703  15.563 -0.3200 -0.4358 -0.0201
15133TIP3    H166814   4.906   6.656  15.638 -0.1817 -0.4875 -0.1151
15133TIP3    H266815   4.793   6.654  15.538 -0.5225 -0.2586  0.2597
15134TIP3   OH266816   0.879   1.723   0.214 -0.0001  0.1753 -0.5313
15134TIP3    H166817   0.829   1.648   0.183  0.7270 -0.0842 -1.1252
15134TIP3    H266818   0.944   1.738   0.145  1.6032 -0.3520  0.7919
15135TIP3   OH266819   4.364   2.790  12.358 -0.6267 -0.2444 -0.2162
15135TIP3    H166820   4.355   2.824  12.447  0.2430  0.1007 -0.2424
15135TIP3    H266821   4.330   2.701  12.363  0.3931 -0.6165  0.7441
15136TIP3   OH266822   3.669   1.264  11.823 -0.1142  0.3945 -0.3071
15136TIP3    H166823   3.643   1.229  11.738  0.6512 -5.1226  1.3078
15136TIP3    H266824   3.758   1.295  11.810  0.8607 -2.4747 -1.2447
15137TIP3   OH266825   4.363   3.165  13.325 -0.0008 -0.4457 -0.3733
15137TIP3    H166826   4.400   3.077  13.314  1.0809 -0.0353 -0.1409
15137TIP3    H266827   4.286   3.166  13.269 -0.5340 -1.8370  0.3004
15138TIP3   OH266828   3.411   0.225  14.239 -0.4634 -0.1780  0.0519
15138TIP3    H166829   3.444   0.197  14.154  0.7516  1.2769 -0.0013
15138TIP3    H266830   3.406   0.145  14.291 -0.0210 -0.9055 -1.0034
15139TIP3   OH266831   6.458   1.700   5.226  0.1472  0.3782  0.3444
15139TIP3    H166832   6.524   1.668   5.288  0.9448  1.3223  0.0142
15139TIP3    H266833   6.380   1.647   5.244  1.0230 -0.8436  0.6663
15140TIP3   OH266834   4.599   1.610  15.755  0.1136 -0.4024  0.1371
15140TIP3    H166835   4.639   1.670  15.817 -0.7095 -0.0542  0.3458
15140TIP3    H266836   4.548   1.665  15.696 -0.2599 -0.8552  0.0271
15141TIP3   OH266837   0.247   1.189  14.293  0.0190  0.2754 -0.0340
15141TIP3    H166838   0.232   1.123  14.226  0.3065 -1.3320  1.4237
15141TIP3    H266839   0.162   1.233  14.303  0.3915  1.7386 -2.5993
15142TIP3   OH266840   5.512   5.493  14.218 -0.1743 -0.0807 -0.7029
15142TIP3    H166841   5.418   5.482  14.233  0.0156  0.3347  0.8959
15142TIP3    H266842   5.553   5.479  14.303  1.0771  1.3026 -1.0291
15143TIP3   OH266843   2.952   1.474  10.716  0.2735 -0.0287 -0.5423
15143TIP3    H166844   3.007   1.537  10.668  0.5231  2.2759  2.4411
15143TIP3    H266845   3.014   1.408  10.748  0.4721 -0.2112 -1.2641
15144TIP3   OH266846   4.223   1.098  15.526  0.8202  0.2047  0.5047
15144TIP3    H166847   4.245   1.184  15.488 -0.0227 -0.3555 -1.3580
15144TIP3    H266848   4.256   1.035  15.463 -0.6214 -0.7941  0.7029
15145TIP3   OH266849   2.313   2.627  13.209 -0.0399  0.2106 -0.4042
15145TIP3    H166850   2.220   2.622  13.231 -0.1430  1.0433 -0.6222
15145TIP3    H266851   2.325   2.560  13.141 -0.3139 -0.4045  0.1432
15146TIP3   OH266852   2.499   1.149  12.207  0.1948 -0.5344 -0.6447
15146TIP3    H166853   2.439   1.077  12.231  0.5664 -0.6356  0.0016
15146TIP3    H266854   2.578   1.105  12.177  0.3211 -0.4006 -0.5112
15147TIP3   OH266855   2.424   0.142  10.804  0.2677  0.0807 -0.5773
15147TIP3    H166856   2.376   0.099  10.876  0.8760  0.2415 -0.0659
15147TIP3    H266857   2.503   0.176  10.845  0.2030  0.9538 -1.1547
15148TIP3   OH266858   3.375   6.626  12.871  0.7494  0.0877  0.2973
15148TIP3    H166859   3.427   6.692  12.916 -0.9755  1.5988  0.1770
15148TIP3    H266860   3.440   6.574  12.822  2.1358  2.0264 -0.0579
15149TIP3   OH266861   2.585   0.361  13.930  0.1752 -0.3748  0.1065
15149TIP3    H166862   2.606   0.323  13.845 -0.6443  2.8557 -1.7032
15149TIP3    H266863   2.490   0.370  13.930  0.3719  2.7540 -0.2242
15150TIP3   OH266864   6.728   5.202   2.509 -0.1552 -0.7051  0.5326
15150TIP3    H166865   6.777   5.176   2.587  2.3960 -0.3663 -0.8370
15150TIP3    H266866   6.636   5.192   2.534  0.5763 -2.7065  2.8370
15151TIP3   OH266867   1.086   1.896  13.695  0.3614  0.3534  0.0786
15151TIP3    H166868   1.180   1.879  13.691  0.1674 -1.0753  0.8455
15151TIP3    H266869   1.074   1.976  13.644  1.9848  0.5657 -0.0315
15152TIP3   OH266870   0.864   6.320   0.897 -0.0066 -0.6669  0.1363
15152TIP3    H166871   0.789   6.342   0.841 -0.2646  0.2007  0.8038
15152TIP3    H266872   0.936   6.373   0.863 -1.0279  2.7465  2.7753
15153TIP3   OH266873   6.566   4.881  11.478 -0.1313 -0.5870 -0.8018
15153TIP3    H166874   6.530   4.868  11.390 -0.0684 -2.5475 -0.5859
15153TIP3    H266875   6.586   4.792  11.508  0.1552  0.0847  1.0666
15154TIP3   OH266876   6.895   5.358  12.473  0.1601  0.5806  0.0753
15154TIP3    H166877   6.831   5.289  12.454 -0.1832  0.0715  2.7336
15154TIP3    H266878   6.980   5.316  12.463 -0.0559 -0.4633  2.2558
15155TIP3   OH266879   2.304   4.600   6.260 -0.1607  0.6356  0.1164
15155TIP3    H166880   2.230   4.595   6.319 -0.1653  0.4854  0.0969
15155TIP3    H266881   2.378   4.565   6.309 -0.7851 -2.5751 -1.0157
15156TIP3   OH266882   2.837   4.835   2.351  0.1942 -0.0005  0.8643
15156TIP3    H166883   2.758   4.801   2.392  0.1973 -0.5244  0.4573
15156TIP3    H266884   2.905   4.771   2.374 -0.1736 -1.3719 -1.4348
15157TIP3   OH266885   0.553   6.651   3.881 -0.1958  0.4107 -0.3072
15157TIP3    H166886   0.564   6.702   3.801  0.4460  1.4378  0.4141
15157TIP3    H266887   0.625   6.679   3.938  0.5500 -1.7249 -0.0895
15158TIP3   OH266888   3.541   4.018   1.097 -1.0213 -0.3431 -0.1208
15158TIP3    H166889   3.454   4.046   1.123 -1.1312 -0.5202 -0.2922
15158TIP3    H266890   3.539   3.923   1.107 -0.8393 -0.3453 -0.1026
15159TIP3   OH266891   2.139   6.058  16.375 -0.4217  0.2627 -0.2476
15159TIP3    H166892   2.078   6.129  16.395  0.6398  0.8559  0.9594
15159TIP3    H266893   2.202   6.097  16.314 -0.2221  0.1493 -0.1102
15160TIP3   OH266894   2.734   6.710  12.647  0.0941  0.3567 -0.2397
15160TIP3    H166895   2.653   6.686  12.691  0.3244  1.1580  0.6499
15160TIP3    H266896   2.772   6.779  12.702  0.7035  0.9433 -1.3559
15161TIP3   OH266897   1.107   2.579   0.847  0.2057 -0.4867 -0.5184
15161TIP3    H166898   1.129   2.591   0.754 -0.7957  1.8129 -0.5203
15161TIP3    H266899   1.165   2.509   0.876  0.7489 -1.0759 -2.8065
15162TIP3   OH266900   5.408   4.299   1.992 -0.5309 -0.3764 -0.1205
15162TIP3    H166901   5.390   4.359   2.065  3.6497  0.1183  0.7769
15162TIP3    H266902   5.418   4.213   2.033  1.1031 -0.2224 -0.1132
15163TIP3   OH266903   2.703   1.086  14.834  0.4958 -0.0002  0.3892
15163TIP3    H166904   2.709   1.173  14.871  2.2189  0.8780 -1.7115
15163TIP3    H266905   2.672   1.031  14.906  1.2938  1.9662  2.3497
15164TIP3   OH266906   1.449   1.674   0.599  0.1198 -0.7000 -0.1089
15164TIP3    H166907   1.514   1.632   0.656 -0.3372  0.2092  1.1513
15164TIP3    H266908   1.404   1.602   0.556 -0.2964 -1.5155  1.5968
15165TIP3   OH266909   5.053   0.531   2.612  0.2500  0.0673 -0.1787
15165TIP3    H166910   5.105   0.603   2.646 -1.1742  0.3239  1.6509
15165TIP3    H266911   5.072   0.529   2.519  1.0008  2.2470 -0.1295
15166TIP3   OH266912   5.047   4.190  16.662  0.7244  0.5920 -0.3474
15166TIP3    H166913   5.039   4.235  16.746 -1.4048 -0.5270  0.0965
15166TIP3    H266914   5.052   4.097  16.685 -0.2133  0.2497 -1.4664
15167TIP3   OH266915   5.618   0.410   5.412  0.1375  0.1525 -0.3753
15167TIP3    H166916   5.535   0.402   5.364 -0.1009  2.0599 -0.3468
15167TIP3    H266917   5.665   0.330   5.391 -2.5035 -2.0044  1.1788
15168TIP3   OH266918   0.450   6.420  15.693  0.1088 -0.4489  0.0456
15168TIP3    H166919   0.489   6.500  15.728  0.8202 -0.7902  0.0556
15168TIP3    H266920   0.393   6.450  15.622  1.4428 -0.0333 -0.8908
15169TIP3   OH266921   5.108   4.126   3.149  0.0642  0.1110 -0.1342
15169TIP3    H166922   5.189   4.092   3.188 -0.3530 -0.6022  0.1197
15169TIP3    H266923   5.041   4.061   3.172 -0.9800  1.6153  1.2942
15170TIP3   OH266924   6.187   2.683  12.400 -0.0808  0.3836 -0.0546
15170TIP3    H166925   6.244   2.759  12.412  0.7130 -0.3714  1.1793
15170TIP3    H266926   6.159   2.659  12.488 -0.4226 -0.6756 -0.4332
15171TIP3   OH266927   6.761   6.137   0.094  0.2137 -0.8553  0.2700
15171TIP3    H166928   6.704   6.134   0.171  0.0921 -1.5493  0.1549
15171TIP3    H266929   6.826   6.204   0.115 -0.8910  0.2835  0.2328
15172TIP3   OH266930   5.888   1.434   0.646  0.6440  0.0543 -0.0971
15172TIP3    H166931   5.809   1.485   0.667  1.6704  2.1406 -1.0166
15172TIP3    H266932   5.859   1.372   0.580 -0.4964 -0.1019  0.5189
15173TIP3   OH266933   1.261   0.739  16.370  0.1366  0.4786 -0.0324
15173TIP3    H166934   1.187   0.751  16.429  1.2662 -0.9424  1.7666
15173TIP3    H266935   1.330   0.704  16.425  1.4423 -0.3660 -2.1049
15174TIP3   OH266936   4.167   6.094  13.634 -0.3124 -0.2570  0.0158
15174TIP3    H166937   4.154   6.113  13.541 -1.6648 -1.4081 -0.0780
15174TIP3    H266938   4.218   6.013  13.635 -2.3300 -1.6060  0.1679
15175TIP3   OH266939   3.075   6.076  15.108  0.8183 -0.4135 -0.3837
15175TIP3    H166940   3.016   6.061  15.181  2.4603  3.0912  1.9247
15175TIP3    H266941   3.159   6.042  15.138  1.5735  1.3064 -0.4384
15176TIP3   OH266942   0.565   1.229  12.040  0.4994  0.4014 -0.0581
15176TIP3    H166943   0.645   1.200  12.083 -0.2025  0.4601  1.3254
15176TIP3    H266944   0.499   1.229  12.109 -0.6700  0.4757 -1.1459
15177TIP3   OH266945   4.119   6.500   9.928  0.2777  0.3162 -0.3112
15177TIP3    H166946   4.182   6.462   9.989 -0.6011  0.3472  0.6440
15177TIP3    H266947   4.044   6.524   9.982 -0.9463 -0.5605 -1.5442
15178TIP3   OH266948   3.155   6.532   2.152 -0.4868  0.4188 -0.3804
15178TIP3    H166949   3.192   6.445   2.140 -1.3113  0.0285 -0.1619
15178TIP3    H266950   3.062   6.516   2.170 -0.2646  1.2093  1.7234
15179TIP3   OH266951   0.170   6.364   3.715  0.2643 -0.1162  0.0307
15179TIP3    H166952   0.085   6.378   3.758  0.2356 -0.4000  0.0666
15179TIP3    H266953   0.230   6.346   3.787  0.1168 -1.0906 -0.0793
15180TIP3   OH266954   0.725   6.479  13.357  0.0128 -0.6908  0.1576
15180TIP3    H166955   0.703   6.461  13.448 -0.0188  1.5481  0.6670
15180TIP3    H266956   0.821   6.483  13.355 -0.0093  0.7281  0.4767
15181TIP3   OH266957   0.988   4.339   3.049  0.8559  0.3673 -0.0382
15181TIP3    H166958   0.966   4.305   3.136  1.6629  0.2748  0.1395
15181TIP3    H266959   0.904   4.368   3.013  0.1241 -1.7655 -0.1864
15182TIP3   OH266960   2.561   6.500  15.409 -0.6053  0.2050 -0.0644
15182TIP3    H166961   2.469   6.494  15.383 -0.1622  0.6120 -1.8629
15182TIP3    H266962   2.605   6.432  15.358  0.4088  1.4511 -0.9205
15183TIP3   OH266963   4.717   0.520  10.712  0.0066 -0.1385  0.7617
15183TIP3    H166964   4.678   0.526  10.625 -0.0877  0.3340  0.8378
15183TIP3    H266965   4.752   0.430  10.716  0.9641  0.1768 -0.1579
15184TIP3   OH266966   5.534   4.316  11.788 -0.3920 -0.6212 -0.1166
15184TIP3    H166967   5.600   4.343  11.852  0.9047 -0.4319 -1.4860
15184TIP3    H266968   5.452   4.316  11.837  0.7520 -2.0088  1.9679
15185TIP3   OH266969   4.841   4.333  15.063  0.2128  0.2107 -0.4052
15185TIP3    H166970   4.832   4.427  15.048  1.0774  0.5564  1.0881
15185TIP3    H266971   4.844   4.295  14.975  1.1402  1.7126 -1.0640
15186TIP3   OH266972   3.396   0.253  15.437 -0.1608 -0.2253 -0.5271
15186TIP3    H166973   3.384   0.298  15.353 -3.5273 -0.0950 -0.1196
15186TIP3    H266974   3.321   0.192  15.442 -0.3093  0.0782  2.5447
15187TIP3   OH266975   1.909   2.613  12.696 -0.2854 -0.2884  0.0494
15187TIP3    H166976   1.850   2.551  12.654 -1.6237  1.1513 -0.2922
15187TIP3    H266977   1.919   2.684  12.633  1.3288 -0.1855  0.3707
15188TIP3   OH266978   5.824   4.402  15.387 -0.3502  0.0434  0.5077
15188TIP3    H166979   5.825   4.426  15.479  0.1504 -0.9443  0.7782
15188TIP3    H266980   5.872   4.319  15.383 -2.2565 -1.0994 -0.3019
15189TIP3   OH266981   3.514   1.463   3.950  0.0992  0.6139 -0.0933
15189TIP3    H166982   3.439   1.432   4.001  0.5159  0.0833  0.2161
15189TIP3    H266983   3.527   1.553   3.978 -0.0912  0.5348  0.2521
15190TIP3   OH266984   6.825   0.845  12.578  0.3694  0.2640 -0.0992
15190TIP3    H166985   6.914   0.850  12.612 -0.2779  0.8993  1.6109
15190TIP3    H266986   6.825   0.903  12.502  1.0674  1.4246  0.7563
15191TIP3   OH266987   2.327   5.725   0.356  0.4522  0.6812 -0.8965
15191TIP3    H166988   2.248   5.710   0.408  0.7130  2.4634  0.0769
15191TIP3    H266989   2.378   5.644   0.367 -0.3589  0.2793  0.0496
15192TIP3   OH266990   3.439   5.793   1.918 -0.1601 -0.3443  1.0151
15192TIP3    H166991   3.504   5.826   1.980 -0.8767  0.7220  1.2298
15192TIP3    H266992   3.429   5.864   1.854 -0.3685 -0.9128  0.4040
15193TIP3   OH266993   3.111   3.784  13.887  0.1937 -0.4192  0.1682
15193TIP3    H166994   3.056   3.761  13.962 -1.3153  2.1892 -0.0323
15193TIP3    H266995   3.199   3.756  13.913 -0.9291 -3.5266  1.0429
15194TIP3   OH266996   3.116   6.600  14.917 -0.6794  0.3513  0.3128
15194TIP3    H166997   3.203   6.624  14.885 -0.3848  1.5640  1.8629
15194TIP3    H266998   3.127   6.511  14.951  0.5032  1.1223  2.1444
15195TIP3   OH266999   6.161   6.113  13.575  0.2806  0.4499 -0.0593
15195TIP3    H167000   6.145   6.107  13.481  0.9467 -0.2466 -0.1379
15195TIP3    H267001   6.164   6.207  13.593 -3.0787  0.6881 -0.1419
15196TIP3   OH267002   3.729   3.184  11.790 -0.2714  0.5953  0.5491
15196TIP3    H167003   3.685   3.112  11.746 -1.4650  0.2556  2.1819
15196TIP3    H267004   3.790   3.219  11.725 -0.1967 -1.3945 -0.5181
15197TIP3   OH267005   4.922   2.671   2.333  0.1232 -0.2307 -1.2646
15197TIP3    H167006   4.836   2.629   2.330 -0.0711  0.0212  0.2485
15197TIP3    H267007   4.978   2.615   2.278 -0.3047 -2.0539  0.0520
15198TIP3   OH267008   6.086   3.844   1.745 -0.0714 -0.1085 -0.1906
15198TIP3    H167009   6.098   3.914   1.680  0.8610  1.2712  1.4015
15198TIP3    H267010   5.998   3.811   1.727  1.0025 -1.5488 -3.7802
15199TIP3   OH267011   2.772   2.875   0.393 -0.6731 -0.3697  0.0042
15199TIP3    H167012   2.836   2.843   0.329 -1.2042 -0.4550 -0.4929
15199TIP3    H267013   2.822   2.933   0.450 -0.2696 -0.0048 -0.7090
15200TIP3   OH267014   5.360   1.062   4.725 -0.2392 -0.4759 -0.1616
15200TIP3    H167015   5.384   1.154   4.728 -1.6441 -0.0615 -0.7455
15200TIP3    H267016   5.280   1.059   4.672  1.3610 -2.3850 -2.7311
15201TIP3   OH267017   1.335   3.261  11.454  0.1167 -0.3949 -0.0523
15201TIP3    H167018   1.253   3.262  11.503 -0.3904  1.9763 -0.8377
15201TIP3    H267019   1.331   3.180  11.403 -2.4387  0.3166 -1.1408
15202TIP3   OH267020   5.072   2.221  14.870 -0.3334  0.1370  0.1696
15202TIP3    H167021   5.032   2.300  14.907 -0.3247 -0.0150  0.5018
15202TIP3    H267022   4.998   2.166  14.846 -0.4734  1.3796 -2.6491
15203TIP3   OH267023   0.538   0.167   2.471 -0.5366 -0.0081 -0.3247
15203TIP3    H167024   0.531   0.117   2.552 -1.2467  1.2773  0.4544
15203TIP3    H267025   0.514   0.105   2.402  1.9828 -1.7035  0.1635
15204TIP3   OH267026   4.239   3.352   1.109 -0.1176 -0.4595  0.5375
15204TIP3    H167027   4.207   3.388   1.027  0.6487 -0.7573  0.1083
15204TIP3    H267028   4.323   3.394   1.124  0.0995 -0.9729  0.7859
15205TIP3   OH267029   4.836   0.663   1.150  0.3884  0.4691 -0.0984
15205TIP3    H167030   4.752   0.703   1.176  0.7160  0.5818  0.8449
15205TIP3    H267031   4.817   0.569   1.145  0.1771  0.5054  0.0087
15206TIP3   OH267032   6.000   4.280  13.988 -0.3342 -0.4661  0.1338
15206TIP3    H167033   6.070   4.322  14.039 -0.6750  0.5904 -0.2373
15206TIP3    H267034   5.919   4.308  14.031 -0.6217  0.3616 -0.9108
15207TIP3   OH267035   6.158   3.312  10.238  0.7245 -0.4554 -0.6643
15207TIP3    H167036   6.158   3.399  10.199 -0.1930 -0.0134  0.2819
15207TIP3    H267037   6.068   3.281  10.228  0.8493 -0.9618 -0.2693
15208TIP3   OH267038   4.634   3.710  16.413  0.0389  0.0365  0.0556
15208TIP3    H167039   4.607   3.789  16.460 -1.2899 -0.4468  0.1341
15208TIP3    H267040   4.621   3.732  16.321 -1.3668 -0.4325  0.1202
15209TIP3   OH267041   0.057   6.789   0.428 -0.4320 -0.1403  1.0732
15209TIP3    H167042  -0.037   6.797   0.440 -0.1988  0.7902  2.5728
15209TIP3    H267043   0.090   6.761   0.514  0.8025  1.2023  1.0755
15210TIP3   OH267044   0.661   4.433   1.732 -0.2392 -0.2569  0.0753
15210TIP3    H167045   0.581   4.389   1.704  0.2563 -0.4644 -1.0953
15210TIP3    H267046   0.731   4.388   1.683  0.6973 -0.6922  1.7524
15211TIP3   OH267047   0.575   2.059  11.367 -0.3371  0.4628 -0.1439
15211TIP3    H167048   0.563   2.074  11.461 -1.1865 -0.5137 -0.0852
15211TIP3    H267049   0.501   2.103  11.326 -1.1304 -0.8849 -0.1913
15212TIP3   OH267050   6.084   6.095   4.311 -0.1320  0.5374  0.6324
15212TIP3    H167051   6.115   6.099   4.401 -0.1240 -0.4315  0.6868
15212TIP3    H267052   6.076   6.186   4.284  2.4172  0.8653  0.7411
15213TIP3   OH267053   6.088   4.192  15.305  0.4447 -0.0681  0.0835
15213TIP3    H167054   6.161   4.253  15.314 -0.5432  0.8420  2.5569
15213TIP3    H267055   6.102   4.128  15.375 -1.3041  0.3296  0.8304
15214TIP3   OH267056   3.331   4.990  13.456  0.3009  0.5170 -0.4427
15214TIP3    H167057   3.403   5.048  13.478  1.2959  0.3585 -2.9109
15214TIP3    H267058   3.258   5.048  13.434 -0.3025  0.6798  1.7703
15215TIP3   OH267059   4.587   4.313  13.145  0.1691  0.0759 -0.8011
15215TIP3    H167060   4.570   4.286  13.055  0.5752 -2.0497 -0.3080
15215TIP3    H267061   4.523   4.265  13.197 -0.6744  2.0000 -0.0059
15216TIP3   OH267062   0.681   5.933  15.979  0.1488  0.2207  0.5012
15216TIP3    H167063   0.701   5.894  15.894 -1.0402  1.7751 -0.5751
15216TIP3    H267064   0.710   5.869  16.043 -0.6376 -1.8672 -1.1060
15217TIP3   OH267065   5.164   3.997  13.647  0.3607 -0.1027 -0.2349
15217TIP3    H167066   5.103   3.982  13.719  0.8454 -1.5153 -0.0935
15217TIP3    H267067   5.149   4.089  13.622 -1.6998 -0.3496 -0.1119
15218TIP3   OH267068   2.631   6.216   2.635 -0.0562 -0.2345 -0.1023
15218TIP3    H167069   2.617   6.129   2.671 -2.3960  0.0134 -0.2796
15218TIP3    H267070   2.720   6.239   2.663  0.4928 -2.5045  0.2302
15219TIP3   OH267071   1.918   6.549   1.037 -0.0801 -0.4719 -0.3733
15219TIP3    H167072   1.960   6.476   0.992  2.0966  0.4886 -0.0321
15219TIP3    H267073   1.908   6.617   0.970 -3.1658 -1.3496 -0.9925
15220TIP3   OH267074   2.898   5.944   2.713  0.3304  0.3728  0.6233
15220TIP3    H167075   2.903   5.879   2.783 -0.9725  0.0976  0.4914
15220TIP3    H267076   2.814   5.926   2.670  1.1276  0.4905 -1.0503
15221TIP3   OH267077   6.378   2.000  12.686  0.2652 -0.2112 -0.0476
15221TIP3    H167078   6.463   2.041  12.667 -0.1579  0.6306 -0.1904
15221TIP3    H267079   6.395   1.906  12.684  0.6505 -0.1800 -2.8272
15222TIP3   OH267080   1.217   2.462   4.395  0.1250 -0.0242 -0.3963
15222TIP3    H167081   1.270   2.386   4.373 -0.6133 -0.7793  0.3836
15222TIP3    H267082   1.127   2.434   4.383 -0.1857  0.5017  0.5798
15223TIP3   OH267083   2.483   5.180  16.479 -0.4056 -0.5158 -0.0279
15223TIP3    H167084   2.447   5.203  16.393  1.0117  0.8945 -0.2972
15223TIP3    H267085   2.577   5.199  16.471 -0.0681 -1.4181  1.4952
15224TIP3   OH267086   2.548   0.347  12.225  0.3680  0.0462 -0.6447
15224TIP3    H167087   2.577   0.297  12.302 -1.9917  0.1810  0.4194
15224TIP3    H267088   2.574   0.437  12.245 -1.7002  0.3875  0.9099
15225TIP3   OH267089   0.424   2.217  16.568  0.8465 -0.4176  0.1605
15225TIP3    H167090   0.366   2.199  16.641  0.2099  3.1325  0.6787
15225TIP3    H267091   0.512   2.218  16.606  0.6121  0.3845  0.7042
15226TIP3   OH267092   6.723   2.912   9.884  0.2890 -0.0902 -0.4347
15226TIP3    H167093   6.731   3.005   9.904  1.9689 -0.9146  3.7174
15226TIP3    H267094   6.794   2.894   9.823  0.7362  1.1487 -0.3051
15227TIP3   OH267095   3.804   0.905  11.645  0.3238 -0.4226 -0.2277
15227TIP3    H167096   3.806   1.001  11.650 -3.3135 -0.1636 -0.6528
15227TIP3    H267097   3.763   0.878  11.727  2.3596 -1.8124  0.4107
15228TIP3   OH267098   5.945   4.391   1.537  0.9166 -0.7126 -0.5651
15228TIP3    H167099   6.037   4.409   1.557  0.8126 -0.5321 -0.2519
15228TIP3    H267100   5.931   4.434   1.452  1.1609 -0.8735 -0.6901
15229TIP3   OH267101   6.573   6.020  13.904  0.0801 -0.0390 -0.4999
15229TIP3    H167102   6.587   5.926  13.911  0.0907  0.0453  0.7700
15229TIP3    H267103   6.560   6.035  13.810  3.0851 -0.8525 -1.1390
15230TIP3   OH267104   3.552   3.051  14.873  0.5107  0.1847 -0.0761
15230TIP3    H167105   3.597   3.047  14.957  0.0504  1.6681  0.2592
15230TIP3    H267106   3.601   3.116  14.823 -0.3069  0.6564 -0.2762
15231TIP3   OH267107   1.664   0.887   4.355  0.1774 -0.0384  0.3085
15231TIP3    H167108   1.756   0.873   4.331  0.5453  0.9678  1.0756
15231TIP3    H267109   1.658   0.981   4.371 -0.8890 -0.1638  0.6997
15232TIP3   OH267110   2.014   2.847  14.826  0.0664  0.2252  0.1194
15232TIP3    H167111   2.042   2.882  14.910 -0.2929 -0.7022  0.6477
15232TIP3    H267112   2.077   2.777  14.807 -2.0562 -2.2591  1.5885
15233TIP3   OH267113   5.396   5.637  13.951 -0.3976  0.1214  0.3579
15233TIP3    H167114   5.303   5.622  13.965 -0.0449 -1.6063  1.1147
15233TIP3    H267115   5.438   5.595  14.026  0.9948  0.8321  0.0053
15234TIP3   OH267116   2.307   4.091   5.488 -0.2923  0.1202  0.0781
15234TIP3    H167117   2.358   4.054   5.561 -1.1417 -2.0712 -0.3708
15234TIP3    H267118   2.299   4.019   5.426 -2.7473  0.8050 -0.4998
15235TIP3   OH267119   4.698   5.110   3.042 -0.3369 -0.3808 -0.3643
15235TIP3    H167120   4.760   5.158   3.097 -2.5151  0.9984  1.0702
15235TIP3    H267121   4.662   5.043   3.099 -2.1387  0.6340 -0.2299
15236TIP3   OH267122   3.134   0.175  12.159  0.2495 -0.4127 -0.1443
15236TIP3    H167123   3.175   0.169  12.072  1.0430  0.9308  0.1048
15236TIP3    H267124   3.076   0.251  12.153 -2.2925 -2.2654 -0.4797
15237TIP3   OH267125   4.043   5.444  11.974 -0.2448  0.1666  0.2759
15237TIP3    H167126   4.045   5.381  12.047  0.7272  2.3417  2.2762
15237TIP3    H267127   4.126   5.432  11.930 -1.0627 -1.5445 -0.9003
15238TIP3   OH267128   5.051   4.075   1.646  0.5904  0.4474 -0.1194
15238TIP3    H167129   5.112   4.136   1.687  0.0449  0.2946  0.9387
15238TIP3    H267130   4.977   4.070   1.707  0.0714 -0.3131 -0.7938
15239TIP3   OH267131   6.365   5.295  11.604  0.0151  0.1107  0.0915
15239TIP3    H167132   6.457   5.295  11.629 -0.0483 -0.5777  0.3618
15239TIP3    H267133   6.343   5.202  11.594 -0.2280  0.3214 -1.5590
15240TIP3   OH267134   5.820   4.918  11.678  0.1920 -0.4655  0.2217
15240TIP3    H167135   5.858   4.886  11.760  2.4943  0.6656 -0.3331
15240TIP3    H267136   5.801   4.838  11.628  1.0805 -1.1165  0.8761
15241TIP3   OH267137   6.524   4.125   2.738  0.4592 -0.0918 -0.2049
15241TIP3    H167138   6.585   4.170   2.796 -0.4773  0.2108  0.5901
15241TIP3    H267139   6.469   4.073   2.797  0.2990 -0.7870 -0.9462
15242TIP3   OH267140   5.241   4.244   5.935  0.1131  0.1373 -0.5194
15242TIP3    H167141   5.302   4.293   5.879  0.0734  0.0578 -0.6321
15242TIP3    H267142   5.296   4.185   5.985  0.3966  1.5990  1.0149
15243TIP3   OH267143   5.486   4.015   1.182 -0.4142 -0.7874 -0.1437
15243TIP3    H167144   5.515   4.026   1.092 -1.0229  0.7813 -0.1776
15243TIP3    H267145   5.562   4.039   1.235 -0.5352 -0.1380 -0.2508
15244TIP3   OH267146   0.960   4.066  12.562  0.0163  0.2269 -0.3637
15244TIP3    H167147   0.913   4.079  12.480 -1.1334 -1.3027 -0.0006
15244TIP3    H267148   1.049   4.041  12.535 -0.1697  0.3524 -1.1152
15245TIP3   OH267149   0.952   0.025   4.922 -0.3040  0.2824 -0.1911
15245TIP3    H167150   0.953   0.104   4.867 -2.4391  1.3355  1.1185
15245TIP3    H267151   0.860  -0.004   4.919 -0.0971 -0.6329  1.4145
15246TIP3   OH267152   5.233   6.141  13.759 -0.5468  0.3825 -0.1197
15246TIP3    H167153   5.222   6.177  13.671  2.0978 -0.7876 -1.0294
15246TIP3    H267154   5.165   6.184  13.812 -0.3699  3.3059 -2.0711
15247TIP3   OH267155   0.211   0.317  14.240  0.2462 -0.0910 -0.1971
15247TIP3    H167156   0.174   0.406  14.234 -0.9688 -0.5817 -0.2914
15247TIP3    H267157   0.186   0.276  14.157 -1.6336 -1.3859  0.9353
15248TIP3   OH267158   2.953   6.639  15.490  0.1492  0.3452  0.0271
15248TIP3    H167159   3.007   6.608  15.562  0.2403 -0.0285 -0.1956
15248TIP3    H267160   2.879   6.578  15.487 -0.4690  1.0480  0.5411
15249TIP3   OH267161   6.483   6.162   1.472 -0.0020  0.0436 -0.4471
15249TIP3    H167162   6.556   6.105   1.449  0.1049 -0.8867  1.8773
15249TIP3    H267163   6.486   6.233   1.408  1.0887 -1.5049 -2.2249
15250TIP3   OH267164   6.739   5.692   1.951 -0.4143  0.5177  0.0907
15250TIP3    H167165   6.721   5.783   1.928 -2.4539  0.0419 -0.4896
15250TIP3    H267166   6.762   5.693   2.043  0.4912  1.7013 -0.1350
15251TIP3   OH267167   3.751   2.529   1.175  0.0686  0.0852  0.4019
15251TIP3    H167168   3.786   2.533   1.085 -1.2772  3.3590 -0.1244
15251TIP3    H267169   3.820   2.567   1.229  0.0844 -0.0071  0.4464
15252TIP3   OH267170   3.272   0.868   5.094 -0.2665 -0.1001  0.3009
15252TIP3    H167171   3.224   0.807   5.150  0.3441 -0.6271  0.2599
15252TIP3    H267172   3.318   0.812   5.031 -0.0871  0.4277 -0.0461
15253TIP3   OH267173   2.008   3.833   5.428  0.5463  0.8132  0.6539
15253TIP3    H167174   1.983   3.743   5.406  0.4500  0.8026  0.8088
15253TIP3    H267175   1.979   3.845   5.518  1.5569  0.6297  1.0146
15254TIP3   OH267176   4.937   4.159   5.017  0.2904  0.4896 -0.5064
15254TIP3    H167177   4.891   4.137   5.098 -0.5900 -0.6110 -1.2766
15254TIP3    H267178   4.894   4.239   4.987 -0.3776  0.0893 -0.6359
15255TIP3   OH267179   1.627   5.455  14.474  0.4160  0.0860 -0.3214
15255TIP3    H167180   1.718   5.456  14.445  0.3270  0.5876 -0.6004
15255TIP3    H267181   1.601   5.363  14.470  0.5884  0.0669 -1.2759
15256TIP3   OH267182   0.215   3.802  12.369  0.1008 -0.0438  0.5850
15256TIP3    H167183   0.270   3.787  12.446 -0.9747  0.6122  1.5123
15256TIP3    H267184   0.126   3.783  12.399 -0.7658  3.3616  0.5111
15257TIP3   OH267185   5.624   0.046  12.975 -0.0568  1.0125 -0.3409
15257TIP3    H167186   5.599   0.137  12.986 -1.3165  0.7283 -0.6711
15257TIP3    H267187   5.558   0.010  12.915  0.7474  0.0333 -0.6655
15258TIP3   OH267188   2.919   2.698  12.676 -0.2078  0.2720  0.1494
15258TIP3    H167189   2.881   2.785  12.659  0.0150 -0.0507 -2.2579
15258TIP3    H267190   2.982   2.714  12.746 -0.0228  2.1110 -0.3646
15259TIP3   OH267191   3.494   0.319  11.882 -0.0393  0.8112 -0.0874
15259TIP3    H167192   3.408   0.290  11.911 -0.2621  2.6095  1.2204
15259TIP3    H267193   3.490   0.313  11.786 -1.3831  0.2807 -0.0235
15260TIP3   OH267194   1.770   2.215   2.709 -0.0504 -0.2516  0.1828
15260TIP3    H167195   1.808   2.130   2.688 -0.7489 -0.5350  0.0428
15260TIP3    H267196   1.825   2.279   2.664  0.6572 -0.6111  0.5367
15261TIP3   OH267197   2.217   0.618   4.839 -0.2946 -0.0450  0.1089
15261TIP3    H167198   2.294   0.578   4.879 -0.5908 -0.6937  0.0350
15261TIP3    H267199   2.219   0.588   4.748 -0.7872 -0.3014  0.1773
15262TIP3   OH267200   5.675   2.731   4.003 -0.4038  0.3698  0.3917
15262TIP3    H167201   5.626   2.742   4.084 -0.6608  2.2434  0.0454
15262TIP3    H267202   5.754   2.684   4.028 -0.5621  0.7683  1.6947
15263TIP3   OH267203   1.281   6.397   0.016  0.7966  0.2849  0.3153
15263TIP3    H167204   1.340   6.466   0.046  1.0003  0.2417  0.0218
15263TIP3    H267205   1.339   6.325  -0.008  0.5191 -0.4484  1.7853
15264TIP3   OH267206   1.075   4.279   2.618 -0.0333 -0.1408 -0.6413
15264TIP3    H167207   1.032   4.234   2.545  0.7421  0.2361 -1.3602
15264TIP3    H267208   1.097   4.209   2.680 -0.6648 -0.4755 -0.7917
15265TIP3   OH267209   6.741   0.974  11.377 -0.0376  0.6625 -0.0095
15265TIP3    H167210   6.701   1.060  11.384  0.9991  1.2368 -0.9089
15265TIP3    H267211   6.709   0.926  11.454 -1.1704  1.6014  0.1329
15266TIP3   OH267212   4.229   6.540  12.133 -0.5994  0.1293 -0.0107
15266TIP3    H167213   4.186   6.488  12.064  1.6526  0.9376 -2.1657
15266TIP3    H267214   4.215   6.489  12.213 -0.6982 -2.4952 -1.5720
15267TIP3   OH267215   0.828   0.202  10.902  0.4360 -0.0413 -0.5456
15267TIP3    H167216   0.874   0.286  10.897  0.7578 -0.1419  0.4310
15267TIP3    H267217   0.826   0.170  10.812 -0.6313  1.4977 -1.1044
15268TIP3   OH267218   1.340   0.949   6.319 -0.1104 -0.5457 -0.3727
15268TIP3    H167219   1.253   0.915   6.341 -0.1615 -0.4024 -0.3567
15268TIP3    H267220   1.332   0.977   6.228 -0.7703  1.7109  0.3163
15269TIP3   OH267221   1.867   2.857   2.242  0.2271 -0.5928 -0.7784
15269TIP3    H167222   1.900   2.846   2.153 -0.0561  0.0993 -0.9701
15269TIP3    H267223   1.834   2.946   2.245 -1.7124 -1.2734 -0.6135
15270TIP3   OH267224   0.832   2.554  12.651  0.1092  0.2738 -0.1865
15270TIP3    H167225   0.857   2.481  12.595 -0.3810  0.1318 -0.2229
15270TIP3    H267226   0.868   2.531  12.737 -1.1202 -0.6391  0.1158
15271TIP3   OH267227   6.131   2.994   5.483 -0.0181  0.3101  0.0959
15271TIP3    H167228   6.166   3.013   5.570  1.0142  0.0081 -0.2411
15271TIP3    H267229   6.165   2.907   5.461 -1.8550 -0.4712  0.1811
15272TIP3   OH267230   5.111   6.442   5.868  0.2501  0.3221 -0.1338
15272TIP3    H167231   5.176   6.375   5.847 -0.3402  0.1055 -1.4162
15272TIP3    H267232   5.160   6.524   5.868  0.7725  0.0160  0.3191
15273TIP3   OH267233   3.698   4.008  16.109  0.7795 -0.3132 -0.6576
15273TIP3    H167234   3.793   4.005  16.123  0.7196  0.2890 -0.0731
15273TIP3    H267235   3.661   4.028  16.195  0.0408 -1.4852 -0.6863
15274TIP3   OH267236   3.414   4.757  14.629 -0.0131  0.0005 -0.0686
15274TIP3    H167237   3.506   4.731  14.629  0.0485  0.2134  0.0338
15274TIP3    H267238   3.396   4.782  14.719 -0.0095  0.5107 -0.2007
15275TIP3   OH267239   0.531   0.646  15.034  0.6001 -0.7913  0.4201
15275TIP3    H167240   0.556   0.563  14.994  0.5464 -0.8908  0.5888
15275TIP3    H267241   0.436   0.652  15.020  0.8429  0.0232 -1.0252
15276TIP3   OH267242   0.228   4.864   1.572  0.0189  0.1606  0.5891
15276TIP3    H167243   0.200   4.953   1.592 -1.3602  0.2028 -1.3412
15276TIP3    H267244   0.311   4.875   1.525  1.8340  0.1677  3.4923
15277TIP3   OH267245   4.649   6.639   3.629  0.0585  0.1484 -0.1891
15277TIP3    H167246   4.594   6.706   3.587 -0.6114  0.1949  0.7329
15277TIP3    H267247   4.736   6.679   3.635 -0.3200  0.9212  0.2854
15278TIP3   OH267248   6.069   2.046  12.075  0.5297  0.4203 -0.1748
15278TIP3    H167249   6.050   2.140  12.075 -0.1030  0.3485 -2.1735
15278TIP3    H267250   5.991   2.006  12.038  1.0083 -0.8524  0.1583
15279TIP3   OH267251   5.278   2.012   2.793 -0.0900  0.4308 -0.3560
15279TIP3    H167252   5.224   1.942   2.756  0.2629 -0.1977  0.3136
15279TIP3    H267253   5.237   2.093   2.760 -1.1591 -0.0484 -0.2527
15280TIP3   OH267254   4.637   0.211  15.331 -0.0618  0.0467 -0.1209
15280TIP3    H167255   4.566   0.275  15.323 -0.1472 -0.0242  0.0621
15280TIP3    H267256   4.635   0.163  15.248 -0.8541 -0.5842  0.2405
15281TIP3   OH267257   4.033   1.331   5.599 -0.2574  0.8999  0.2340
15281TIP3    H167258   3.974   1.352   5.671 -0.5246  0.8808  0.0263
15281TIP3    H267259   3.977   1.284   5.536 -0.1511  1.3633 -0.2111
15282TIP3   OH267260   4.350   1.240  16.051 -0.6225 -0.0711  0.1029
15282TIP3    H167261   4.345   1.318  15.995 -1.5396  0.3039  0.6842
15282TIP3    H267262   4.318   1.169  15.996 -0.2980  0.0541 -0.2556
15283TIP3   OH267263   0.133   6.203   6.354  0.3773 -0.3134 -0.0559
15283TIP3    H167264   0.202   6.167   6.299  1.7420  1.6698  0.2726
15283TIP3    H267265   0.138   6.153   6.435  3.1350  1.3644  0.9101
15284TIP3   OH267266   4.601   6.808  10.691 -0.2006 -0.1303  0.3674
15284TIP3    H167267   4.606   6.721  10.652  0.4465  0.1203 -0.1295
15284TIP3    H267268   4.509   6.817  10.718 -0.7560 -0.1651 -1.4323
15285TIP3   OH267269   4.972   4.743  12.977 -0.5197  0.0172  0.4602
15285TIP3    H167270   4.950   4.737  13.070  1.2066 -1.6194  0.8330
15285TIP3    H267271   5.053   4.795  12.975 -0.6493  0.2062 -0.1443
15286TIP3   OH267272   6.046   2.084   3.563  0.7734 -0.0256 -0.0629
15286TIP3    H167273   5.953   2.101   3.581  1.3990  1.5986  1.9978
15286TIP3    H267274   6.051   2.082   3.467 -1.1358  1.5786 -0.2809
15287TIP3   OH267275   4.176   6.067   0.003 -0.0892 -0.1671  0.4641
15287TIP3    H167276   4.133   5.990  -0.034 -1.6051  0.2623  1.2430
15287TIP3    H267277   4.258   6.034   0.040  0.3714 -0.9903 -1.1967
15288TIP3   OH267278   4.649   4.009  13.492 -0.0632  0.2808  0.5645
15288TIP3    H167279   4.607   3.981  13.411 -0.0462 -0.1810  0.7087
15288TIP3    H267280   4.644   3.932  13.549  0.1426  0.5223  0.9144
15289TIP3   OH267281   5.743   2.090  13.512 -0.0067 -0.1794 -0.1125
15289TIP3    H167282   5.675   2.031  13.543 -0.2910  0.1536 -0.0878
15289TIP3    H267283   5.818   2.073  13.569 -0.0847 -0.5137 -0.1074
15290TIP3   OH267284   1.085   6.427   4.220  0.0225 -0.2735 -0.5828
15290TIP3    H167285   1.088   6.495   4.287  1.2592 -1.1877  0.3383
15290TIP3    H267286   1.106   6.473   4.139 -1.6535  0.8748 -0.4195
15291TIP3   OH267287   0.001   0.365   0.285  0.7662  0.0802 -0.0474
15291TIP3    H167288   0.017   0.366   0.190  2.3263 -1.9266  0.1317
15291TIP3    H267289   0.087   0.377   0.324  0.0087  1.9814  1.1909
15292TIP3   OH267290   3.051   2.116  11.724 -0.5783 -0.0724 -0.2272
15292TIP3    H167291   3.073   2.202  11.688 -2.4981 -0.1873 -1.8042
15292TIP3    H267292   3.040   2.060  11.647  0.9589 -1.8591  0.7748
15293TIP3   OH267293   4.603   6.147   0.746  0.0556 -0.6148 -0.0769
15293TIP3    H167294   4.610   6.080   0.813 -1.9885 -2.0386 -1.1629
15293TIP3    H267295   4.661   6.118   0.676  1.3097  0.2754  0.5494
15294TIP3   OH267296   1.322   6.416   0.327  0.1084  0.5631 -0.1929
15294TIP3    H167297   1.235   6.400   0.291  0.0720  0.5103 -0.0812
15294TIP3    H267298   1.381   6.376   0.263  0.0591  0.7223 -0.3394
15295TIP3   OH267299   4.362   1.088  14.570  0.6919 -0.7383  0.2666
15295TIP3    H167300   4.274   1.094  14.608  0.0892 -0.2942 -1.1143
15295TIP3    H267301   4.352   1.024  14.500  0.7075  1.3961 -1.8008
15296TIP3   OH267302   1.108   5.450   0.672  0.0530  0.3083  0.1084
15296TIP3    H167303   1.023   5.424   0.708 -0.5659  0.7865 -0.9351
15296TIP3    H267304   1.127   5.535   0.713  1.4392 -1.0558  2.5077
15297TIP3   OH267305   2.212   6.071  11.015  0.2843 -0.8367 -0.0008
15297TIP3    H167306   2.123   6.043  11.036 -0.5447  0.8104 -1.1012
15297TIP3    H267307   2.212   6.165  11.031  0.9674 -0.3036 -2.6030
15298TIP3   OH267308   6.090   3.830   2.092 -0.3047 -0.2775  0.1189
15298TIP3    H167309   6.111   3.737   2.083 -0.2734 -0.3989  1.2936
15298TIP3    H267310   6.072   3.841   2.186 -2.3705  0.4596 -0.3121
15299TIP3   OH267311   2.618   3.724   3.209 -0.8431  0.2369 -0.8337
15299TIP3    H167312   2.681   3.653   3.220 -0.3037  0.8395  0.1908
15299TIP3    H267313   2.534   3.680   3.197 -0.7614 -0.6076  1.3011
15300TIP3   OH267314   1.524   0.501   0.443  0.7078  0.6352  0.3120
15300TIP3    H167315   1.547   0.576   0.387  0.5253  2.2105  2.2587
15300TIP3    H267316   1.592   0.501   0.510  0.8372 -1.1393  0.2150
15301TIP3   OH267317   1.498   2.566  12.820 -0.1596 -0.1229  0.0155
15301TIP3    H167318   1.463   2.563  12.731 -2.6767 -2.7699  0.9420
15301TIP3    H267319   1.520   2.475  12.841  0.4976  0.4385  2.0496
15302TIP3   OH267320   5.692   0.609   4.967 -0.0985  0.1731 -0.5285
15302TIP3    H167321   5.609   0.579   4.930 -2.3661  0.9837  3.2576
15302TIP3    H267322   5.736   0.654   4.896 -2.3921 -1.2136 -3.0001
15303TIP3   OH267323   2.618   2.424  13.141 -0.2152 -0.5766  0.2081
15303TIP3    H167324   2.702   2.462  13.115 -0.7414  0.3780 -0.1500
15303TIP3    H267325   2.597   2.464  13.225 -0.6341 -0.2971 -0.0270
15304TIP3   OH267326   2.944   0.192   2.547 -0.2205 -0.0930 -0.0882
15304TIP3    H167327   3.016   0.225   2.493 -0.3231  0.6707  0.2247
15304TIP3    H267328   2.889   0.269   2.563 -1.1778 -0.6885 -0.4233
15305TIP3   OH267329   5.147   3.529   3.711 -0.0264 -0.6134  0.5036
15305TIP3    H167330   5.238   3.546   3.688 -0.3942 -0.5396 -1.0116
15305TIP3    H267331   5.124   3.450   3.663 -1.0425 -0.0762  0.0680
15306TIP3   OH267332   3.897   2.561   3.756 -0.6117 -1.1965  0.2069
15306TIP3    H167333   3.821   2.539   3.701  0.3561  0.8904 -2.1181
15306TIP3    H267334   3.972   2.530   3.706  0.3277  1.2045  0.0438
15307TIP3   OH267335   3.475   5.546  14.950  0.1506  0.2653  0.4323
15307TIP3    H167336   3.456   5.596  15.029  0.3351  2.7133 -0.9675
15307TIP3    H267337   3.439   5.459  14.967 -0.7088  1.0004  2.7751
15308TIP3   OH267338   2.617   3.926  10.880 -0.0670 -0.4025  0.0137
15308TIP3    H167339   2.608   4.021  10.881  1.0180 -0.2905  0.0031
15308TIP3    H267340   2.658   3.906  10.796  0.9305 -0.7466  0.5659
15309TIP3   OH267341   0.151   5.631  15.299 -0.0671  0.3991  0.1023
15309TIP3    H167342   0.059   5.604  15.302  0.7658 -3.3012 -1.5652
15309TIP3    H267343   0.185   5.610  15.386 -0.7271  1.6497  0.6797
15310TIP3   OH267344   6.665   3.323  13.346  0.3411 -0.2063  0.0282
15310TIP3    H167345   6.643   3.336  13.254  0.7622  0.5050  0.0220
15310TIP3    H267346   6.692   3.231  13.352  1.7891  0.1281 -0.8812
15311TIP3   OH267347   1.840   0.722  14.007 -0.1397 -0.1026  0.1858
15311TIP3    H167348   1.883   0.718  14.092 -2.1560  0.1209  1.2692
15311TIP3    H267349   1.846   0.814  13.981 -3.5763  0.9455  2.4157
15312TIP3   OH267350   1.414   0.099  15.618  0.6030 -0.4799  0.4352
15312TIP3    H167351   1.423   0.010  15.653 -0.2184 -0.4007  0.8854
15312TIP3    H267352   1.479   0.150  15.667  0.5451 -0.6844  0.7326
15313TIP3   OH267353   1.551   0.761  15.718 -0.1659  0.1640  0.1673
15313TIP3    H167354   1.500   0.684  15.693  0.9783 -1.0790  1.4990
15313TIP3    H267355   1.637   0.748  15.677  0.7943 -0.4720  2.2815
15314TIP3   OH267356   3.122   5.754   2.937 -0.2259 -0.2033  0.4325
15314TIP3    H167357   3.089   5.736   3.025 -3.7961  3.3798  0.1551
15314TIP3    H267358   3.065   5.704   2.879 -2.4104  2.4311  0.1070
15315TIP3   OH267359   5.176   1.069   0.182 -0.2012 -0.1626  0.1023
15315TIP3    H167360   5.265   1.044   0.206 -0.6719 -1.3955  0.6284
15315TIP3    H267361   5.149   1.004   0.118 -1.1521 -0.5577  0.8755
15316TIP3   OH267362   3.443   5.108  10.685 -0.6346 -0.0876 -0.3349
15316TIP3    H167363   3.421   5.193  10.723 -0.6268  0.0811 -0.7069
15316TIP3    H267364   3.407   5.044  10.747  0.8321  0.1569  0.8369
15317TIP3   OH267365   4.285   2.786   1.193  0.2552  0.6146  0.0667
15317TIP3    H167366   4.368   2.823   1.163  1.3077 -2.0338 -0.5232
15317TIP3    H267367   4.233   2.775   1.114  0.0243  0.6212  0.2143
15318TIP3   OH267368   2.752   2.599   4.636  0.0560 -0.3686  0.1250
15318TIP3    H167369   2.720   2.662   4.571  1.4347  1.3608  1.0177
15318TIP3    H267370   2.727   2.638   4.720  0.3116 -1.3944  0.6908
15319TIP3   OH267371   2.166   2.451   4.117 -0.6098  0.6915  0.1649
15319TIP3    H167372   2.255   2.422   4.137 -0.5356  0.1923 -0.8092
15319TIP3    H267373   2.158   2.439   4.022 -1.5357  1.2343  0.1653
15320TIP3   OH267374   4.352   0.284  16.341 -0.2621 -0.0323  0.3383
15320TIP3    H167375   4.358   0.254  16.432  0.9255 -1.1986 -0.0877
15320TIP3    H267376   4.413   0.357  16.336  1.1105 -1.1493  0.0690
15321TIP3   OH267377   0.124   4.557  15.886  0.3708  0.3395 -0.3962
15321TIP3    H167378   0.039   4.601  15.882  0.6322  0.9721  0.5806
15321TIP3    H267379   0.140   4.528  15.797 -0.7203  0.4979 -0.6646
15322TIP3   OH267380   5.704   5.955   0.013  0.4753  0.7400 -0.3777
15322TIP3    H167381   5.620   5.972   0.056 -0.0262 -1.6427 -0.2777
15322TIP3    H267382   5.747   5.891   0.071  0.9615 -0.4761 -2.0229
15323TIP3   OH267383   1.872   5.305  12.555  0.2578 -0.0988  0.0148
15323TIP3    H167384   1.948   5.322  12.610 -0.9201  0.3279  1.5757
15323TIP3    H267385   1.909   5.276  12.471  2.1024 -1.5854  1.2705
15324TIP3   OH267386   1.022   0.585   3.291 -0.6009 -0.1321  0.8669
15324TIP3    H167387   0.988   0.516   3.348 -1.2113 -0.1599  0.4803
15324TIP3    H267388   0.981   0.569   3.206  2.8961 -2.1325 -0.5978
15325TIP3   OH267389   3.161   4.190  10.334  0.2200  0.0713 -0.2619
15325TIP3    H167390   3.210   4.266  10.302  0.7757  0.3718  1.2409
15325TIP3    H267391   3.194   4.117  10.281  1.0240  0.5671 -0.4611
15326TIP3   OH267392   0.970   2.588   0.394  0.2065  0.0818 -0.0204
15326TIP3    H167393   1.021   2.519   0.438  0.0292 -0.8184 -1.1594
15326TIP3    H267394   1.018   2.669   0.413  1.7656 -0.6644 -0.5991
15327TIP3   OH267395   1.939   1.065   4.257 -0.8031  0.2049  0.1119
15327TIP3    H167396   2.005   1.045   4.323  1.1582  3.0907 -0.7890
15327TIP3    H267397   1.878   1.124   4.301 -1.8107 -1.0387  0.4266
15328TIP3   OH267398   1.800   6.685  11.172  0.7699  0.6816 -0.0873
15328TIP3    H167399   1.787   6.593  11.152  2.1028 -0.0177  1.9299
15328TIP3    H267400   1.712   6.722  11.173  0.2820 -0.2742 -1.9630
15329TIP3   OH267401   3.493   2.041  14.434  0.0741  0.4681  0.0817
15329TIP3    H167402   3.452   1.968  14.479 -1.0613  1.2968  0.4199
15329TIP3    H267403   3.570   2.003  14.392  0.8812 -0.4363  2.2410
15330TIP3   OH267404   4.938   0.787  16.128  0.0751 -0.0554 -0.4611
15330TIP3    H167405   4.896   0.719  16.075 -1.2652  0.3888 -0.0165
15330TIP3    H267406   4.896   0.869  16.100  0.8803  0.4510 -0.2194
15331TIP3   OH267407   6.277   6.814  12.488  0.0302  0.2145 -0.1112
15331TIP3    H167408   6.311   6.751  12.424  1.0041 -1.1392  1.6548
15331TIP3    H267409   6.320   6.896  12.466 -0.0542 -0.0768 -1.4858
15332TIP3   OH267410   2.957   3.330   0.343 -0.1928  0.2445  0.8984
15332TIP3    H167411   2.987   3.285   0.264 -1.9427 -0.5864  0.6449
15332TIP3    H267412   2.867   3.299   0.354 -0.5168  1.6023  2.3024
15333TIP3   OH267413   1.198   5.409   3.453  0.4195  0.3258  0.2579
15333TIP3    H167414   1.157   5.327   3.481 -0.4695  0.7921  0.3624
15333TIP3    H267415   1.240   5.443   3.532 -1.5270  1.3107  0.9254
15334TIP3   OH267416   0.725   1.770   3.051  0.0612  0.2667  0.1505
15334TIP3    H167417   0.800   1.724   3.014  0.3934 -0.5082  1.7088
15334TIP3    H267418   0.743   1.774   3.145 -2.1100 -0.4640  0.6442
15335TIP3   OH267419   0.038   0.741  16.667  0.2651 -0.2749 -0.0206
15335TIP3    H167420   0.026   0.658  16.620  1.0479 -0.5059  0.1739
15335TIP3    H267421  -0.041   0.791  16.648  0.8685 -0.0525 -2.1932
15336TIP3   OH267422   5.067   4.831  16.338  0.0840  0.5948 -0.1582
15336TIP3    H167423   5.159   4.840  16.311 -0.1316  1.8440 -0.5589
15336TIP3    H267424   5.067   4.856  16.430  0.1574  0.5842 -0.1549
15337TIP3   OH267425   6.049   4.206  15.025 -0.2894  0.8363  0.6365
15337TIP3    H167426   5.972   4.263  15.022 -0.2987  0.8878  1.5605
15337TIP3    H267427   6.083   4.216  15.114  1.4198  1.6362 -0.0591
15338TIP3   OH267428   6.092   5.210  12.749  0.2512  0.1577 -0.1513
15338TIP3    H167429   6.187   5.214  12.739  0.3285  1.3643  0.8230
15338TIP3    H267430   6.078   5.169  12.835 -0.1046  0.0127 -0.2758
15339TIP3   OH267431   4.453   0.741  13.929  0.4682 -0.4259 -0.0810
15339TIP3    H167432   4.511   0.692  13.870  1.4973  0.5268  0.0940
15339TIP3    H267433   4.506   0.755  14.008  0.0504  0.5753  0.0393
15340TIP3   OH267434   6.295   2.636   4.015  0.4352  0.1007 -0.0603
15340TIP3    H167435   6.207   2.630   3.978  0.2677  0.6122  0.2605
15340TIP3    H267436   6.338   2.704   3.963  0.4927  0.1774  0.0881
15341TIP3   OH267437   0.013   6.860   3.845 -0.6350  0.2589  0.1267
15341TIP3    H167438   0.056   6.924   3.901 -2.4623  2.3320 -0.7087
15341TIP3    H267439   0.019   6.778   3.894  0.5537  1.3193  1.8915
15342TIP3   OH267440   0.733   2.005   1.740  0.1836  0.6079  0.2102
15342TIP3    H167441   0.787   1.942   1.788 -0.7953 -0.1292  0.3574
15342TIP3    H267442   0.786   2.027   1.663  0.4447 -0.5769  0.0288
15343TIP3   OH267443   1.063   5.037  10.426 -0.6868  0.0232  0.7017
15343TIP3    H167444   0.988   5.046  10.367 -0.8862 -1.7462  0.6472
15343TIP3    H267445   1.134   5.085  10.383 -1.6705  1.4561  0.6005
15344TIP3   OH267446   2.480   6.292   5.691 -0.3699  0.2816  0.2799
15344TIP3    H167447   2.491   6.241   5.771  0.9795  1.4560  0.8857
15344TIP3    H267448   2.411   6.354   5.712 -0.2642  0.3546  0.4112
15345TIP3   OH267449   1.337   5.948  13.099 -0.6623 -0.1746 -0.2740
15345TIP3    H167450   1.244   5.969  13.091 -0.2068  1.3159 -2.3776
15345TIP3    H267451   1.354   5.889  13.026  0.2746  0.4791 -0.6002
15346TIP3   OH267452   1.231   5.028  16.277  0.4475 -0.5822 -0.6254
15346TIP3    H167453   1.210   4.936  16.260  0.6616 -0.6073 -0.7579
15346TIP3    H267454   1.324   5.027  16.299  0.0996 -0.6144  1.0110
15347TIP3   OH267455   6.510   2.496  10.515 -0.1927  0.4329  0.0837
15347TIP3    H167456   6.547   2.427  10.460  0.5152  1.5839 -0.9328
15347TIP3    H267457   6.574   2.567  10.511  0.0969  0.4018  2.7812
15348TIP3   OH267458   1.316   1.693   5.058  0.3678 -0.3117  0.2107
15348TIP3    H167459   1.399   1.740   5.047 -0.2522  0.7842  0.0638
15348TIP3    H267460   1.254   1.741   5.004 -0.1441 -1.7593 -0.5506
15349TIP3   OH267461   0.528   2.193   2.852  0.0908  0.2104  0.3771
15349TIP3    H167462   0.492   2.280   2.843 -1.2101 -0.1504  1.7220
15349TIP3    H267463   0.454   2.139   2.881  0.7336 -1.4513 -0.9211
15350TIP3   OH267464   4.611   3.684  16.705  0.0503 -0.0891 -0.1606
15350TIP3    H167465   4.575   3.767  16.674  1.2854  1.3685  2.0263
15350TIP3    H267466   4.706   3.697  16.707  0.1538 -0.2257  3.3012
15351TIP3   OH267467   6.379   3.266   2.822  0.7346 -0.0238  0.2510
15351TIP3    H167468   6.360   3.203   2.753  4.5209 -0.3526 -0.7235
15351TIP3    H267469   6.309   3.332   2.815 -1.5509 -2.4016 -0.7530
15352TIP3   OH267470   0.451   2.618   0.653  0.1390  0.6228 -0.0091
15352TIP3    H167471   0.448   2.645   0.744  0.2714  1.6090 -0.2894
15352TIP3    H267472   0.364   2.639   0.619 -0.4365 -1.1695  0.2707
15353TIP3   OH267473   2.950   2.278  14.708  0.0687 -0.3331  0.3487
15353TIP3    H167474   3.023   2.268  14.646 -1.7602 -2.0339 -1.7030
15353TIP3    H267475   2.937   2.190  14.742  0.4146  0.4075  2.5137
15354TIP3   OH267476   6.524   0.414   3.418 -0.0090  0.4305  0.2248
15354TIP3    H167477   6.456   0.364   3.373 -0.1372  0.6687  0.1511
15354TIP3    H267478   6.606   0.385   3.378 -0.0191 -0.2484  0.6817
15355TIP3   OH267479   6.073   3.830  12.540 -0.8822 -0.1815 -0.0229
15355TIP3    H167480   6.013   3.905  12.539 -1.0474 -0.2144 -2.8829
15355TIP3    H267481   6.098   3.819  12.448  1.1232 -2.0939  0.6691
15356TIP3   OH267482   4.403   4.138  13.631 -0.2167 -0.0984  0.5173
15356TIP3    H167483   4.366   4.063  13.585  0.7807  0.1224 -0.7110
15356TIP3    H267484   4.496   4.116  13.641  0.5848  1.7778 -1.7467
15357TIP3   OH267485   2.513   4.814  12.117  0.0844 -0.1332 -0.4649
15357TIP3    H167486   2.503   4.789  12.209  0.1020  1.4952  0.0117
15357TIP3    H267487   2.445   4.765  12.071 -0.7695 -0.0022  0.6168
15358TIP3   OH267488   5.562   6.221  15.390 -0.4477 -0.2798  0.0754
15358TIP3    H167489   5.520   6.216  15.476  0.4921 -2.3710  0.4661
15358TIP3    H267490   5.568   6.315  15.372 -1.0345  0.1904  2.1022
15359TIP3   OH267491   0.494   1.212   5.565  0.0264 -0.0129 -0.0333
15359TIP3    H167492   0.540   1.149   5.620  2.1107  0.3229 -1.2939
15359TIP3    H267493   0.511   1.297   5.607 -0.1213  0.0372 -0.0748
15360TIP3   OH267494   0.648   1.404  13.477  0.5967  0.2880  0.3529
15360TIP3    H167495   0.582   1.381  13.543  1.7564 -0.2060  1.3761
15360TIP3    H267496   0.597   1.421  13.398 -0.7432 -0.3892  1.0262
15361TIP3   OH267497   2.571   5.890   3.775 -0.1834 -0.2916  0.1697
15361TIP3    H167498   2.540   5.972   3.736  0.8668 -0.2032 -0.5287
15361TIP3    H267499   2.644   5.863   3.719 -1.9036 -2.9316 -1.0294
15362TIP3   OH267500   2.565   0.616   1.695  0.3911  0.6615 -0.7231
15362TIP3    H167501   2.533   0.610   1.605 -0.0228  0.2600 -0.5475
15362TIP3    H267502   2.520   0.546   1.742  0.9287  0.5958 -0.2965
15363TIP3   OH267503   1.162   3.037  14.921 -0.4078  0.5075  0.1895
15363TIP3    H167504   1.125   3.022  15.008  0.3677  0.9603  0.6030
15363TIP3    H267505   1.255   3.017  14.930 -0.5689 -0.8791 -0.9077
15364TIP3   OH267506   1.669   5.920   5.876 -0.2102  0.0076 -0.1036
15364TIP3    H167507   1.660   6.016   5.872 -2.2169  0.0984  2.9462
15364TIP3    H267508   1.665   5.900   5.969 -1.9738 -3.2166 -0.7288
15365TIP3   OH267509   5.698   1.714  14.701 -0.3601 -0.2820 -0.0208
15365TIP3    H167510   5.689   1.809  14.707  1.8568 -0.0737  0.9330
15365TIP3    H267511   5.792   1.698  14.707 -0.7257 -2.5894  0.5877
15366TIP3   OH267512   4.490   3.035   5.584  0.3865 -0.0912 -0.0950
15366TIP3    H167513   4.443   3.077   5.656 -0.1146 -3.2137  1.5536
15366TIP3    H267514   4.558   3.098   5.560 -0.0542  1.4897  2.4162
15367TIP3   OH267515   4.614   3.794   5.754  0.6929  0.5688  0.2350
15367TIP3    H167516   4.533   3.841   5.773  0.0009  0.4176 -1.9937
15367TIP3    H267517   4.585   3.704   5.735  1.6028  0.0844  1.0713
15368TIP3   OH267518   4.913   0.932  11.633  0.0417  0.2925  0.1153
15368TIP3    H167519   4.859   0.881  11.571 -0.4323 -0.0617  0.8005
15368TIP3    H267520   5.003   0.908  11.612 -0.1070  0.3227 -0.5638
15369TIP3   OH267521   5.715   2.565   1.887  0.3441 -0.9128  0.1866
15369TIP3    H167522   5.632   2.611   1.896  0.3533 -0.9058  0.2406
15369TIP3    H267523   5.747   2.556   1.977  1.3442  0.8089  0.0369
15370TIP3   OH267524   3.042   5.782   0.372  0.0975 -0.7500 -0.2291
15370TIP3    H167525   3.006   5.745   0.453 -0.2602 -0.9597 -0.4826
15370TIP3    H267526   3.000   5.732   0.302 -0.3007  0.0518 -0.5737
15371TIP3   OH267527   6.295   3.765  11.474  0.0293 -0.0625 -0.1953
15371TIP3    H167528   6.308   3.849  11.429  0.3225  0.1372  0.2551
15371TIP3    H267529   6.359   3.766  11.545  0.3627 -0.8819 -0.4790
15372TIP3   OH267530   5.204   5.523   3.516 -0.4019 -0.7058 -0.0082
15372TIP3    H167531   5.182   5.562   3.601 -1.1961  1.1450 -1.0020
15372TIP3    H267532   5.291   5.486   3.529  0.8217  2.1723  0.8473
15373TIP3   OH267533   3.342   5.449  10.522 -0.2699  0.4125 -0.2818
15373TIP3    H167534   3.433   5.477  10.508 -0.2638  0.2760 -0.5145
15373TIP3    H267535   3.316   5.493  10.604  0.3542 -0.4069  0.3721
15374TIP3   OH267536   5.308   5.853   4.870 -0.0789 -0.0826  0.1164
15374TIP3    H167537   5.253   5.930   4.853 -0.5013  0.0367  1.8587
15374TIP3    H267538   5.265   5.809   4.944  0.2666 -1.9049 -0.7274
15375TIP3   OH267539   6.387   5.684   2.792  0.3649  0.1994 -0.3912
15375TIP3    H167540   6.382   5.777   2.772  1.3663  0.1851 -0.7753
15375TIP3    H267541   6.474   5.657   2.761 -0.6196 -1.2777 -2.1084
15376TIP3   OH267542   5.567   0.855  12.285 -0.4604 -0.0895 -0.1469
15376TIP3    H167543   5.513   0.782  12.256  0.5068 -0.8558 -0.0925
15376TIP3    H267544   5.553   0.859  12.379  0.4840 -1.0944  0.0649
15377TIP3   OH267545   0.289   2.081   3.419  0.4568  0.2760 -0.5425
15377TIP3    H167546   0.303   2.098   3.512 -0.3468 -1.0191 -0.1697
15377TIP3    H267547   0.227   2.149   3.391  1.3146  1.1592 -0.3421
15378TIP3   OH267548   2.780   1.333   1.718  0.3082  0.3065  0.1722
15378TIP3    H167549   2.842   1.348   1.646 -0.7232  0.2993 -0.7458
15378TIP3    H267550   2.730   1.257   1.691  1.1575 -0.8921  1.8133
15379TIP3   OH267551   1.754   4.651  12.919 -0.4132  0.2113  0.6199
15379TIP3    H167552   1.736   4.654  12.825  1.3137 -2.0483  0.1212
15379TIP3    H267553   1.672   4.623  12.959 -0.4727 -1.4831 -0.5690
15380TIP3   OH267554   0.330   4.181   0.018 -0.2603 -1.1781 -0.4148
15380TIP3    H167555   0.332   4.144  -0.070  1.6109  0.7664 -1.2771
15380TIP3    H267556   0.251   4.236   0.019  0.3176 -0.2902 -1.3444
15381TIP3   OH267557   5.626   4.357   4.287  0.4313 -0.0495 -0.3726
15381TIP3    H167558   5.621   4.340   4.193  1.4898  1.6521 -0.7733
15381TIP3    H267559   5.536   4.350   4.317  0.0527 -0.4838 -1.5179
15382TIP3   OH267560   0.891   0.286   4.805  0.2107 -0.7635 -0.1478
15382TIP3    H167561   0.896   0.285   4.710 -1.3411 -2.6531 -0.2598
15382TIP3    H267562   0.960   0.346   4.832  0.6521 -0.1580 -2.4514
15383TIP3   OH267563   1.320   2.143   6.217  0.0770 -0.6991  0.0761
15383TIP3    H167564   1.253   2.152   6.149 -1.1591 -1.4710  1.1421
15383TIP3    H267565   1.385   2.210   6.195 -0.8827 -0.1172 -1.1613
15384TIP3   OH267566   0.382   6.000   1.670 -0.3049 -0.1131 -0.4929
15384TIP3    H167567   0.344   6.076   1.715 -0.5689 -0.6783  0.2720
15384TIP3    H267568   0.312   5.968   1.614 -0.9402 -1.0256  0.7557
15385TIP3   OH267569   1.830   0.538   5.467  0.2054 -0.2678 -0.4464
15385TIP3    H167570   1.790   0.456   5.495  1.8846 -0.3211  2.1066
15385TIP3    H267571   1.791   0.605   5.523  2.0909 -0.0541  0.6995
15386TIP3   OH267572   2.690   6.634  16.058  0.0696  0.2865  0.5621
15386TIP3    H167573   2.599   6.618  16.086  0.3018 -0.2802  1.0178
15386TIP3    H267574   2.739   6.642  16.140  0.3088  1.3597  0.3257
15387TIP3   OH267575   2.948   4.448  11.533  0.6196  0.4695 -0.4315
15387TIP3    H167576   2.951   4.537  11.498 -0.4724  0.1115 -1.4841
15387TIP3    H267577   2.871   4.409  11.493  0.1829 -0.4610  1.2270
15388TIP3   OH267578   0.197   2.543  13.460 -0.6344  0.0937  0.3791
15388TIP3    H167579   0.156   2.557  13.545  0.9321 -0.8625  1.3442
15388TIP3    H267580   0.205   2.448  13.452  0.9996  0.2315  0.0621
15389TIP3   OH267581   6.150   2.531  11.465 -0.1889  0.2388 -0.1557
15389TIP3    H167582   6.202   2.484  11.530 -2.3963 -2.9085 -0.4044
15389TIP3    H267583   6.211   2.547  11.393  1.1599 -0.4836  0.7750
15390TIP3   OH267584   4.957   1.593  15.308 -0.5856  0.9759  0.4343
15390TIP3    H167585   4.884   1.654  15.294 -0.1944  1.2129 -0.6444
15390TIP3    H267586   4.917   1.519  15.354 -1.2711  1.5910  0.8657
15391TIP3   OH267587   4.182   2.900   1.852  0.5053  0.7951  0.8192
15391TIP3    H167588   4.255   2.883   1.792 -1.1494  2.4095 -1.8215
15391TIP3    H267589   4.221   2.948   1.925  2.3022  0.2772  0.2458
15392TIP3   OH267590   0.872   3.857  12.213  0.3243 -0.1834  0.5606
15392TIP3    H167591   0.943   3.819  12.265  1.4349  1.7093  0.5011
15392TIP3    H267592   0.851   3.939  12.257 -0.2199  0.3876 -0.7245
15393TIP3   OH267593   6.324   3.877   2.572 -0.3452 -0.6930  0.1671
15393TIP3    H167594   6.369   3.863   2.655  0.2757  1.7014  0.3092
15393TIP3    H267595   6.289   3.966   2.578 -2.9062 -1.5023 -0.9737
15394TIP3   OH267596   2.239   2.558   0.263 -0.2988  0.6813 -0.3128
15394TIP3    H167597   2.251   2.606   0.346  0.6595 -1.7224  1.0414
15394TIP3    H267598   2.324   2.564   0.219  0.0928 -0.3839  0.2548
15395TIP3   OH267599   0.890   4.006   1.764  0.0930  0.1364  0.0551
15395TIP3    H167600   0.885   3.923   1.812 -2.4878 -0.2949 -0.8342
15395TIP3    H267601   0.890   3.981   1.672 -0.1664  1.1177 -0.2231
15396TIP3   OH267602   4.173   0.424  15.914  0.4324 -0.1017  0.1496
15396TIP3    H167603   4.153   0.362  15.844 -0.2767  1.6017 -1.2599
15396TIP3    H267604   4.249   0.386  15.959  1.5263 -0.8560 -2.1544
15397TIP3   OH267605   4.747   0.742  15.182 -0.6525 -0.5627 -0.3295
15397TIP3    H167606   4.803   0.815  15.208  1.3308 -2.4974  1.2005
15397TIP3    H267607   4.724   0.761  15.091  2.2130  0.5790 -0.9413
15398TIP3   OH267608   0.563   6.697   1.953  0.1467  0.0368  0.3760
15398TIP3    H167609   0.524   6.639   2.019  1.4362 -0.6245  0.5881
15398TIP3    H267610   0.492   6.756   1.929 -0.6868 -0.4518  1.5090
15399TIP3   OH267611   5.943   0.645  12.841  0.2815 -0.4571  0.2856
15399TIP3    H167612   6.024   0.630  12.890  1.4818  1.1054 -1.0785
15399TIP3    H267613   5.942   0.577  12.774  1.1308  0.2230 -0.4430
15400TIP3   OH267614   5.103   2.583  14.220 -0.0497 -0.3231 -0.0433
15400TIP3    H167615   5.124   2.497  14.257  0.1479  0.4799  1.8197
15400TIP3    H267616   5.165   2.594  14.149 -0.1505 -1.7642 -0.3821
15401TIP3   OH267617   2.786   4.418  14.155 -0.1944  0.1068  0.3894
15401TIP3    H167618   2.792   4.378  14.242  0.0041 -1.2044 -0.1906
15401TIP3    H267619   2.836   4.499  14.162  0.4576 -0.3554  1.3130
15402TIP3   OH267620   6.787   4.419   2.772 -0.9858 -0.0676  0.0254
15402TIP3    H167621   6.875   4.388   2.796 -0.9980  0.4819  0.8356
15402TIP3    H267622   6.785   4.413   2.677 -0.5599 -1.3736  0.0725
15403TIP3   OH267623   6.170   5.345   2.103  0.4724  0.0180 -0.6655
15403TIP3    H167624   6.234   5.292   2.056 -0.6376  0.8088 -3.2920
15403TIP3    H267625   6.130   5.285   2.166  2.8201 -0.8111  0.1195
15404TIP3   OH267626   4.382   3.887   4.652 -0.1074  0.1977  0.1315
15404TIP3    H167627   4.326   3.821   4.611 -2.3299  0.5791  2.2971
15404TIP3    H267628   4.335   3.969   4.639  0.7366  0.7852  0.7027
15405TIP3   OH267629   3.871   1.492  14.079 -0.3197 -0.0334  0.1057
15405TIP3    H167630   3.955   1.534  14.098 -0.2473 -0.7140  1.3909
15405TIP3    H267631   3.821   1.501  14.160 -1.9788  1.4130 -1.0005
15406TIP3   OH267632   3.932   1.352  11.893 -0.1112 -0.0506 -0.3295
15406TIP3    H167633   3.947   1.356  11.988 -1.2959  1.9005 -0.1667
15406TIP3    H267634   4.010   1.308  11.858  0.4721 -0.5773  1.4991
15407TIP3   OH267635   3.476   5.962  16.101 -0.0568  0.8538  0.0181
15407TIP3    H167636   3.489   5.892  16.164 -1.4782 -0.5737 -1.1847
15407TIP3    H267637   3.440   6.035  16.152 -0.3495  0.0372  0.9940
15408TIP3   OH267638   1.773   4.303   4.023  0.1019 -0.1545  0.6158
15408TIP3    H167639   1.851   4.308   4.078 -0.4603  0.7704  1.3713
15408TIP3    H267640   1.740   4.214   4.035  0.3985 -0.1903  1.2179
15409TIP3   OH267641   0.525   4.165  10.569 -0.1123 -0.4628  0.6527
15409TIP3    H167642   0.470   4.089  10.587 -0.4341  0.4132  4.0862
15409TIP3    H267643   0.577   4.140  10.493 -2.7427 -2.6504 -0.6112
15410TIP3   OH267644   4.292   1.681  14.200 -0.1135 -0.0081  0.3700
15410TIP3    H167645   4.268   1.635  14.121 -0.2113 -0.4351  0.6453
15410TIP3    H267646   4.212   1.685  14.252 -0.5894  2.0671 -0.4126
15411TIP3   OH267647   2.538   6.807   5.109  0.0068  0.1180  0.2881
15411TIP3    H167648   2.572   6.897   5.114 -1.1640  0.5662  0.4711
15411TIP3    H267649   2.482   6.798   5.185 -0.0148 -0.7257  0.1787
15412TIP3   OH267650   0.191   2.664  16.669  0.4868  0.4469  0.6579
15412TIP3    H167651   0.166   2.728  16.603 -0.0293 -1.1610 -0.7909
15412TIP3    H267652   0.242   2.599  16.621  1.8382  0.2228  2.2604
15413TIP3   OH267653   1.568   5.688   4.672  0.2467 -0.1159 -0.4150
15413TIP3    H167654   1.642   5.661   4.727 -1.6645 -0.1830  2.3529
15413TIP3    H267655   1.601   5.764   4.623  1.6744  1.0910  2.1778
15414TIP3   OH267656   3.011   2.114   2.519 -0.4032  0.1875  0.1320
15414TIP3    H167657   2.983   2.023   2.515 -0.8110  0.2857  0.6327
15414TIP3    H267658   3.052   2.123   2.606 -1.4327  0.7707  0.5756
15415TIP3   OH267659   3.682   2.308   0.308  0.0990 -0.4704  0.4265
15415TIP3    H167660   3.678   2.270   0.220 -2.0652 -1.3142  0.8300
15415TIP3    H267661   3.639   2.243   0.364 -3.5513  2.3059  1.2148
15416TIP3   OH267662   4.037   3.231   3.933 -0.0997  0.2878  0.0255
15416TIP3    H167663   4.002   3.320   3.944 -1.1833 -0.1214 -0.0319
15416TIP3    H267664   3.962   3.179   3.904  0.2965 -0.8494  0.9616
15417TIP3   OH267665   1.408   2.434   4.928 -0.2094  0.2644  0.3642
15417TIP3    H167666   1.437   2.364   4.987 -0.8006  0.8572  1.3999
15417TIP3    H267667   1.414   2.396   4.840 -0.7078 -1.1440  0.9143
15418TIP3   OH267668   1.959   1.485  11.328 -0.5583  0.3806 -0.1723
15418TIP3    H167669   1.876   1.481  11.280 -1.0724 -2.3301  0.7747
15418TIP3    H267670   1.962   1.404  11.377  0.3158  2.5840  3.8268
15419TIP3   OH267671   0.837   1.354   0.764 -0.0895 -0.2568 -0.3134
15419TIP3    H167672   0.814   1.412   0.691 -0.8035  0.0062  0.1053
15419TIP3    H267673   0.759   1.355   0.820  0.7085  0.1102  0.8197
15420TIP3   OH267674   5.924   6.516   5.811  0.3303  0.2152  0.0177
15420TIP3    H167675   5.962   6.601   5.835  0.5127  0.1039  0.1208
15420TIP3    H267676   5.834   6.537   5.786  0.6414  0.5778 -0.8561
15421TIP3   OH267677   3.125   5.567  15.758  0.4152  0.1684 -0.5825
15421TIP3    H167678   3.056   5.502  15.743  0.3008 -0.0266  0.7174
15421TIP3    H267679   3.201   5.514  15.782  1.7130  0.1952 -3.9974
15422TIP3   OH267680   5.518   0.584  10.514  0.4724 -0.0686  0.0054
15422TIP3    H167681   5.594   0.635  10.487  0.2137  0.3741  0.0973
15422TIP3    H267682   5.494   0.533  10.436 -1.2433  2.3790 -1.2069
15423TIP3   OH267683   3.019   3.207  11.412  0.6538 -0.4790 -0.0427
15423TIP3    H167684   3.003   3.130  11.358 -2.5259  0.3571 -0.5197
15423TIP3    H267685   2.983   3.184  11.498 -1.7254  0.8622 -0.5930
15424TIP3   OH267686   6.410   6.087   0.460  0.4083 -0.1654  0.5359
15424TIP3    H167687   6.416   5.992   0.467  2.1482 -0.1133  0.1457
15424TIP3    H267688   6.328   6.102   0.413  1.0979 -1.5934 -1.2564
15425TIP3   OH267689   3.883   4.940  12.457 -0.0965 -0.0774 -0.6828
15425TIP3    H167690   3.892   4.846  12.443  2.5772 -0.6061  3.0100
15425TIP3    H267691   3.916   4.980  12.377  0.5536 -2.2925 -1.5849
15426TIP3   OH267692   4.388   0.656  13.129  0.1806 -0.0029  0.1606
15426TIP3    H167693   4.420   0.624  13.213  0.4109 -0.9588 -0.2823
15426TIP3    H267694   4.402   0.751  13.132  1.3044 -0.1772  0.7164
15427TIP3   OH267695   1.252   5.790  13.733  0.3020  0.0757  0.0310
15427TIP3    H167696   1.293   5.874  13.713 -0.6957  0.3895 -0.7918
15427TIP3    H267697   1.200   5.806  13.812 -0.7981  0.5726 -0.7602
15428TIP3   OH267698   3.941   4.988  15.385 -0.5229 -0.0474  0.2386
15428TIP3    H167699   3.906   4.926  15.448 -2.7142  0.3678 -0.4816
15428TIP3    H267700   3.868   5.006  15.326  1.0351  0.6458 -1.5927
15429TIP3   OH267701   4.304   6.849   4.066  0.5711 -0.0045 -0.8546
15429TIP3    H167702   4.358   6.927   4.077 -2.0530  1.6296  1.8462
15429TIP3    H267703   4.334   6.790   4.136 -0.3271  0.4442 -0.0738
15430TIP3   OH267704   1.067   1.641  12.767 -0.0102  0.6270 -0.0719
15430TIP3    H167705   1.100   1.599  12.687  0.2804 -2.8921  1.6978
15430TIP3    H267706   1.059   1.734  12.743  2.9003  0.3003 -3.2571
15431TIP3   OH267707   3.820   5.596  14.649  0.0640 -0.2919 -0.0628
15431TIP3    H167708   3.728   5.575  14.663 -0.3220  0.4338 -1.3563
15431TIP3    H267709   3.848   5.537  14.578  0.2124  0.4085 -0.5958
15432TIP3   OH267710   3.996   2.163  16.175  0.0024 -0.0668  0.6669
15432TIP3    H167711   3.954   2.079  16.193 -0.2293  0.1239  1.0361
15432TIP3    H267712   4.088   2.149  16.195  0.1897 -0.6082 -0.5586
15433TIP3   OH267713   6.259   2.714   0.430  0.0660 -0.7841  0.4766
15433TIP3    H167714   6.246   2.806   0.408  0.7489 -1.1188 -1.5415
15433TIP3    H267715   6.236   2.666   0.350 -3.5693 -2.7208  2.4033
15434TIP3   OH267716   4.709   4.839   3.945 -0.1296 -0.1532 -0.3337
15434TIP3    H167717   4.710   4.850   4.040  0.6556 -3.6915  0.2202
15434TIP3    H267718   4.617   4.822   3.924 -0.3000  0.6086 -0.2533
15435TIP3   OH267719   4.513   5.897   4.823 -0.2489  0.4405 -0.4102
15435TIP3    H167720   4.445   5.869   4.763 -0.9220 -0.0062  0.5381
15435TIP3    H267721   4.466   5.933   4.899  0.5255 -0.8026  0.7113
15436TIP3   OH267722   0.094   1.074  11.465 -0.7270 -0.0142 -0.8069
15436TIP3    H167723   0.023   1.021  11.427 -1.4132  0.2375  0.0664
15436TIP3    H267724   0.109   1.144  11.402 -1.7288  0.3047 -0.7107
15437TIP3   OH267725   4.969   6.813   0.948  0.7411 -0.2013  0.0448
15437TIP3    H167726   4.910   6.824   1.023 -0.3482  0.9242 -0.9235
15437TIP3    H267727   5.009   6.899   0.937  0.7855 -0.3137 -0.7383
15438TIP3   OH267728   0.042   1.986  14.584 -0.3224  0.0357  0.0950
15438TIP3    H167729  -0.044   1.951  14.562 -0.7463  1.3281 -0.3716
15438TIP3    H267730   0.103   1.919  14.554 -1.1748 -1.5195  1.6208
15439TIP3   OH267731   2.426   4.926   6.463  0.0739 -0.2354  0.1636
15439TIP3    H167732   2.451   4.847   6.415  1.9623  0.1250  0.4553
15439TIP3    H267733   2.507   4.978   6.468 -0.6186  0.7898  1.7116
15440TIP3   OH267734   4.306   2.527  16.054 -0.5708 -0.7815 -0.1586
15440TIP3    H167735   4.246   2.512  16.127 -3.3277 -0.9941 -2.3177
15440TIP3    H267736   4.340   2.440  16.033 -0.3803 -0.8355  0.3553
15441TIP3   OH267737   0.787   0.149  16.320 -0.8224  0.0613  0.5072
15441TIP3    H167738   0.775   0.081  16.386 -1.2381 -0.2993  0.0678
15441TIP3    H267739   0.882   0.161  16.314 -0.6074 -1.8955 -0.8138
15442TIP3   OH267740   2.776   6.363  16.709  0.1818  0.4767  0.0090
15442TIP3    H167741   2.726   6.282  16.717  0.3256  0.0843 -2.2711
15442TIP3    H267742   2.718   6.431  16.745 -0.4521 -0.4450  0.7847
15443TIP3   OH267743   2.873   0.513   3.506 -0.0936 -0.2167  0.1322
15443TIP3    H167744   2.864   0.585   3.445 -0.3864 -1.0144 -0.7965
15443TIP3    H267745   2.785   0.499   3.541  0.5343  2.1626  3.0949
15444TIP3   OH267746   5.415   0.529   4.896  0.1806  0.8615  0.0511
15444TIP3    H167747   5.446   0.443   4.866  1.2964  0.6263  1.7136
15444TIP3    H267748   5.362   0.562   4.824 -1.0882 -1.6314 -0.2825
15445TIP3   OH267749   1.187   0.568  15.551  0.1985 -0.1651 -0.2459
15445TIP3    H167750   1.163   0.477  15.531 -0.0369 -0.6044  1.8493
15445TIP3    H267751   1.188   0.573  15.646  0.1317  2.0682 -0.2994
15446TIP3   OH267752   4.095   6.060  14.827  0.3090  0.5695 -0.5535
15446TIP3    H167753   4.177   6.024  14.792  1.0880  2.4678 -0.7620
15446TIP3    H267754   4.091   6.027  14.917  0.5774 -0.6591 -0.9661
15447TIP3   OH267755   1.389   5.806   1.392  0.6019 -0.1625 -0.5885
15447TIP3    H167756   1.392   5.877   1.327  2.0582  0.2663 -0.1020
15447TIP3    H267757   1.391   5.726   1.340  2.2385  0.1721 -1.1037
15448TIP3   OH267758   4.117   4.261  15.633  0.3665  0.4082  0.4447
15448TIP3    H167759   4.034   4.302  15.658  0.7010 -0.2822  2.8825
15448TIP3    H267760   4.170   4.262  15.713  0.8881 -3.5629  0.3530
15449TIP3   OH267761   5.376   4.246  15.614 -0.0723  0.3284  0.4069
15449TIP3    H167762   5.409   4.312  15.553  0.0837  0.1985  0.3494
15449TIP3    H267763   5.366   4.167  15.560 -0.1319  0.2711  0.5038
15450TIP3   OH267764   5.084   0.238  11.522 -0.1431  0.4889 -0.0132
15450TIP3    H167765   5.038   0.154  11.516  0.1560  0.4315 -3.0075
15450TIP3    H267766   5.017   0.304  11.506  0.0236  0.6876  0.1004
15451TIP3   OH267767   1.817   5.259   2.550 -0.5318 -0.1492 -0.3312
15451TIP3    H167768   1.852   5.173   2.527  1.3175  0.6511 -0.7217
15451TIP3    H267769   1.874   5.290   2.620 -1.2299  0.7326 -0.1334
15452TIP3   OH267770   2.208   2.123  15.242  0.0962  0.6095 -0.0703
15452TIP3    H167771   2.185   2.095  15.153  1.8280  1.6974 -0.9306
15452TIP3    H267772   2.157   2.203  15.256  1.3588  1.6196 -0.9721
15453TIP3   OH267773   5.070   2.606   1.350  0.7388 -0.0061 -0.4683
15453TIP3    H167774   5.086   2.520   1.388  1.3677 -0.0470 -0.8231
15453TIP3    H267775   5.115   2.667   1.408 -0.9229  0.2400  0.6148
15454TIP3   OH267776   4.054   2.526  11.234 -0.4078 -0.3892  0.1352
15454TIP3    H167777   4.051   2.603  11.291  1.6812  0.0889 -0.3181
15454TIP3    H267778   3.982   2.540  11.172  1.1174  2.3321 -1.2399
15455TIP3   OH267779   6.021   2.522  16.432  0.2212  0.1728 -0.1070
15455TIP3    H167780   6.046   2.443  16.384 -3.4604 -1.8621  0.9270
15455TIP3    H267781   6.024   2.592  16.367  2.1570 -1.0456 -1.4295
15456TIP3   OH267782   1.487   2.726  15.091 -0.8180 -0.4572 -0.1746
15456TIP3    H167783   1.493   2.638  15.053 -0.1606 -0.4529 -0.0875
15456TIP3    H267784   1.435   2.775  15.028  0.2472 -0.4581 -1.0804
15457TIP3   OH267785   5.041   2.563  14.806  0.4940 -0.7444 -0.1349
15457TIP3    H167786   4.969   2.539  14.748 -0.3818  0.0778  0.5761
15457TIP3    H267787   5.118   2.519  14.769 -0.1281 -0.6418 -1.6174
15458TIP3   OH267788   4.057   3.909   1.058 -0.0617 -0.4666 -0.9291
15458TIP3    H167789   4.074   3.930   0.966 -0.5219 -1.1465 -1.1824
15458TIP3    H267790   4.065   3.992   1.104 -0.3207 -0.0292 -1.6617
15459TIP3   OH267791   1.732   0.459   3.393 -0.1674  0.2772 -0.0803
15459TIP3    H167792   1.699   0.370   3.383 -0.2856  0.0354  2.0137
15459TIP3    H267793   1.827   0.450   3.387 -0.2250  0.3009 -1.5203
15460TIP3   OH267794   5.962   5.071  13.497  0.4911  1.5929 -0.1260
15460TIP3    H167795   5.879   5.022  13.497  1.7698 -0.7405 -0.6440
15460TIP3    H267796   5.993   5.065  13.588  0.6705  1.3988 -0.1995
15461TIP3   OH267797   4.393   1.853   0.068 -0.3086  0.4205  0.8010
15461TIP3    H167798   4.457   1.781   0.069  0.7364  1.3069  0.3004
15461TIP3    H267799   4.438   1.924   0.023 -1.8606  0.9103 -0.0571
15462TIP3   OH267800   4.700   5.290   2.665 -0.0164  0.1219 -0.2477
15462TIP3    H167801   4.709   5.385   2.672  0.9467  0.1159 -1.1134
15462TIP3    H267802   4.607   5.273   2.680 -0.4074  1.3110 -1.1585
15463TIP3   OH267803   6.547   1.491   5.768  0.6361  0.1235 -0.4267
15463TIP3    H167804   6.528   1.563   5.828 -2.0069 -0.1686 -0.8113
15463TIP3    H267805   6.573   1.419   5.825 -1.4895 -0.0423  0.4175
15464TIP3   OH267806   3.168   6.505  15.325  0.8368 -0.8230 -0.0941
15464TIP3    H167807   3.216   6.587  15.318 -1.2335  0.5444  0.6797
15464TIP3    H267808   3.088   6.528  15.372 -1.6833 -2.4172 -3.1710
15465TIP3   OH267809   5.711   0.420  13.619 -0.3337 -0.0436 -0.2924
15465TIP3    H167810   5.792   0.457  13.582 -0.2189  1.1045  1.0043
15465TIP3    H267811   5.717   0.440  13.712 -2.0033 -0.1869 -0.1332
15466TIP3   OH267812   5.826   3.275   0.198  0.1969  0.2320 -0.0028
15466TIP3    H167813   5.784   3.211   0.257  1.3283 -1.0868 -0.5745
15466TIP3    H267814   5.790   3.254   0.112  1.0977 -0.1245 -0.3054
15467TIP3   OH267815   2.453   6.110   0.192 -0.2006  0.4995  0.0228
15467TIP3    H167816   2.375   6.055   0.198 -0.3414  0.6900 -0.0779
15467TIP3    H267817   2.469   6.137   0.282 -2.0633  2.9970 -0.2914
15468TIP3   OH267818   6.615   5.071  10.972 -0.1164  0.5413  0.6511
15468TIP3    H167819   6.676   4.998  10.962  2.0954  2.4004 -0.5014
15468TIP3    H267820   6.578   5.083  10.885  1.5347  2.3262  0.1176
15469TIP3   OH267821   0.832   1.417   2.658 -0.2222  0.1424 -0.2747
15469TIP3    H167822   0.832   1.466   2.575  0.3672  0.7769  0.0856
15469TIP3    H267823   0.773   1.467   2.715  0.0593  0.2030 -0.0349
15470TIP3   OH267824   6.846   4.357  12.221 -0.3233  0.6327 -0.6098
15470TIP3    H167825   6.790   4.412  12.165  1.5905  3.2627 -0.1539
15470TIP3    H267826   6.911   4.320  12.161 -1.1667 -0.5973 -0.7992
15471TIP3   OH267827   1.022   6.339   2.065  0.3728  0.4597 -0.3472
15471TIP3    H167828   1.079   6.391   2.121  1.1169  0.3853 -1.0160
15471TIP3    H267829   1.069   6.257   2.051 -0.9860 -0.6125  1.0614
15472TIP3   OH267830   4.707   3.236  11.926 -0.5578  0.2636  0.1115
15472TIP3    H167831   4.654   3.285  11.863  0.0837  0.1712 -0.5102
15472TIP3    H267832   4.731   3.155  11.881 -1.9322 -0.8405  1.2687
15473TIP3   OH267833   6.828   2.203  15.168  0.1502 -0.2739  0.5972
15473TIP3    H167834   6.774   2.202  15.247  1.4403 -0.0132  1.5070
15473TIP3    H267835   6.858   2.112  15.159  0.9796 -0.0524  1.1000
15474TIP3   OH267836   4.032   2.245  11.288  0.6041 -0.1814 -0.1119
15474TIP3    H167837   3.997   2.334  11.278  0.2743 -0.2585  0.3056
15474TIP3    H267838   4.071   2.225  11.203  0.1693  0.1446 -0.3936
15475TIP3   OH267839   3.447   2.544  10.377 -0.0919 -0.0440 -0.4251
15475TIP3    H167840   3.541   2.560  10.381 -0.2489  0.7694  0.2691
15475TIP3    H267841   3.407   2.629  10.398 -0.9771 -0.3262 -0.9229
15476TIP3   OH267842   6.707   2.279  12.907 -0.3320  0.2009 -0.4298
15476TIP3    H167843   6.796   2.281  12.941 -0.4053  0.1491 -0.2298
15476TIP3    H267844   6.652   2.305  12.982 -0.3730  1.7341 -0.9556
15477TIP3   OH267845   3.159   1.635   2.653 -0.2582 -0.4564 -0.1154
15477TIP3    H167846   3.071   1.656   2.622 -0.3795 -0.4956  0.1918
15477TIP3    H267847   3.203   1.594   2.578  0.1816  1.3957 -0.9164
15478TIP3   OH267848   1.075   2.650   1.510  0.2741  0.3523 -0.7738
15478TIP3    H167849   1.057   2.744   1.512 -0.3406  0.2342  1.1358
15478TIP3    H267850   1.020   2.616   1.439 -2.0265  1.0036  0.5830
15479TIP3   OH267851   2.829   4.244  14.867 -0.1465 -0.2283 -0.5890
15479TIP3    H167852   2.843   4.283  14.781 -0.3612  0.5233 -0.2853
15479TIP3    H267853   2.916   4.216  14.896  0.2641  1.3964 -0.1537
15480TIP3   OH267854   1.174   2.533   4.685  0.3668  0.0124 -0.1617
15480TIP3    H167855   1.198   2.505   4.597  0.2319  0.0536 -0.2114
15480TIP3    H267856   1.237   2.490   4.742  0.8156  0.4339 -0.3260
15481TIP3   OH267857   4.635   4.519  14.350 -0.3891  0.0249 -0.3365
15481TIP3    H167858   4.655   4.437  14.304 -0.3530 -0.0979 -0.1038
15481TIP3    H267859   4.634   4.495  14.443  1.2707  0.6135 -0.1312
15482TIP3   OH267860   4.447   0.903  15.025  0.0913  0.0855  0.1705
15482TIP3    H167861   4.402   0.966  15.080  1.6020  0.9694  0.4547
15482TIP3    H267862   4.505   0.955  14.970 -0.3569 -0.8890 -1.3052
15483TIP3   OH267863   1.153   1.557   0.174  0.0436  0.3359 -1.1145
15483TIP3    H167864   1.228   1.593   0.221 -0.7541 -0.1664  0.6456
15483TIP3    H267865   1.136   1.618   0.103  2.3084  0.2803 -1.7714
15484TIP3   OH267866   5.614   1.948  16.416  0.2461 -0.2409 -0.6442
15484TIP3    H167867   5.573   2.032  16.436 -0.3703 -0.7402  0.2334
15484TIP3    H267868   5.696   1.972  16.373  0.7286  0.8547  0.7873
15485TIP3   OH267869   6.296   3.822   3.104 -0.1024 -0.1350  0.9402
15485TIP3    H167870   6.387   3.841   3.125  0.1329 -1.7506  1.5292
15485TIP3    H267871   6.295   3.729   3.082 -1.5418 -0.0559  0.5497
15486TIP3   OH267872   6.455   4.619  10.173 -0.5663 -0.5278 -0.1662
15486TIP3    H167873   6.423   4.656  10.091 -1.4693 -1.6610 -0.3418
15486TIP3    H267874   6.418   4.531  10.176  0.5251 -0.9808  0.8306
15487TIP3   OH267875   0.820   3.330  16.270 -0.7686  0.0364 -0.2742
15487TIP3    H167876   0.751   3.325  16.203 -1.0364 -2.2053  0.0911
15487TIP3    H267877   0.901   3.309  16.222 -0.9397 -1.4173  0.0397
15488TIP3   OH267878   1.377   4.678  14.782 -0.0940 -0.8780 -0.1206
15488TIP3    H167879   1.335   4.682  14.696 -1.0727  1.0770  0.3985
15488TIP3    H267880   1.330   4.608  14.828 -1.2957 -0.2452 -0.3411
15489TIP3   OH267881   6.625   5.817  12.402  0.3957  0.0081 -0.1430
15489TIP3    H167882   6.719   5.827  12.385 -0.0451  2.6310 -1.4822
15489TIP3    H267883   6.582   5.864  12.331 -2.0254 -2.1628 -0.2594
15490TIP3   OH267884   5.570   4.899  11.026 -0.5358 -0.2983  0.0520
15490TIP3    H167885   5.485   4.940  11.010 -0.6480 -0.8141 -0.7529
15490TIP3    H267886   5.594   4.927  11.114 -2.6850 -2.1165  1.3266
15491TIP3   OH267887   2.699   4.151  11.875 -0.4274 -0.7754  0.3120
15491TIP3    H167888   2.674   4.059  11.870 -0.8028 -0.7725  1.6507
15491TIP3    H267889   2.790   4.153  11.845 -1.6182 -0.9154 -3.8513
15492TIP3   OH267890   4.573   6.338  12.478  0.6181 -0.0404  0.1138
15492TIP3    H167891   4.596   6.398  12.549 -1.1147  0.3390  0.4072
15492TIP3    H267892   4.516   6.390  12.421 -2.8621 -1.9269  1.5686
15493TIP3   OH267893   6.492   3.013  12.005  1.0497  0.6392  0.2389
15493TIP3    H167894   6.413   2.984  12.050  0.6313  0.1586 -0.7762
15493TIP3    H267895   6.530   3.079  12.063 -0.4587  1.3770  0.4267
15494TIP3   OH267896   1.485   0.590   2.317  0.1524 -0.0013 -0.3340
15494TIP3    H167897   1.529   0.648   2.254  0.9934  1.4150  1.4599
15494TIP3    H267898   1.554   0.532   2.348  0.5803  1.4417  1.6062
15495TIP3   OH267899   0.140   5.232  11.780  0.2613 -0.3887  0.1003
15495TIP3    H167900   0.059   5.241  11.830 -0.0962  1.7753 -0.7829
15495TIP3    H267901   0.204   5.201  11.844  0.2239  3.6524  2.4285
15496TIP3   OH267902   0.066   4.673  16.191  0.1779 -0.1715  0.1389
15496TIP3    H167903  -0.013   4.698  16.143  0.8692 -2.2196 -2.3145
15496TIP3    H267904   0.138   4.712  16.140  0.8492  0.4172  1.4838
15497TIP3   OH267905   2.916   4.854  16.153 -0.4499  0.4901  0.1042
15497TIP3    H167906   2.929   4.804  16.233 -1.8603 -0.1787 -0.0680
15497TIP3    H267907   2.963   4.937  16.169 -0.9251  0.4822  1.7162
15498TIP3   OH267908   2.498   6.216   0.443 -0.0660 -0.2058 -0.8930
15498TIP3    H167909   2.578   6.250   0.401 -0.4829  0.3700 -1.2347
15498TIP3    H267910   2.517   6.221   0.537 -0.6684  2.4732 -0.8362
15499TIP3   OH267911   0.091   4.032   3.219 -0.2792 -0.0256  0.0302
15499TIP3    H167912   0.169   4.044   3.165 -0.0791 -0.2684  0.2648
15499TIP3    H267913   0.082   4.114   3.267  0.0857 -0.1529  0.3274
15500TIP3   OH267914   5.266   1.513  14.314 -0.1541 -0.3778  0.1776
15500TIP3    H167915   5.242   1.493  14.405 -0.2051  1.3576  0.5786
15500TIP3    H267916   5.186   1.493  14.264 -0.6006 -0.0209  0.7267
15501TIP3   OH267917   4.474   4.651  14.781 -0.5216 -0.3675 -0.0574
15501TIP3    H167918   4.400   4.687  14.830 -0.2143 -1.0182  0.9164
15501TIP3    H267919   4.527   4.727  14.758 -1.1754  0.0400 -0.2335
15502TIP3   OH267920   4.481   6.850   5.600 -0.0701  0.2390  0.3660
15502TIP3    H167921   4.484   6.907   5.678 -0.7805  0.8526 -0.0308
15502TIP3    H267922   4.503   6.763   5.633 -0.4015  0.4811  1.2697
15503TIP3   OH267923   4.814   2.168  10.917 -0.6963 -0.1623 -0.3993
15503TIP3    H167924   4.870   2.156  10.840  0.6246  0.7308  0.3923
15503TIP3    H267925   4.726   2.147  10.886  0.1903 -2.8797 -1.3593
15504TIP3   OH267926   2.838   5.223  12.049 -0.2648 -0.4063  0.4471
15504TIP3    H167927   2.891   5.157  12.095  1.0561  2.2911  3.0991
15504TIP3    H267928   2.748   5.191  12.057  0.3094 -1.8594  1.6507
15505TIP3   OH267929   3.750   4.533  15.436  0.4692 -0.4317 -0.2587
15505TIP3    H167930   3.744   4.590  15.359  0.5321 -0.0922 -0.0133
15505TIP3    H267931   3.661   4.530  15.471 -0.0854 -2.4576 -1.6743
15506TIP3   OH267932   6.230   6.413  16.570  0.1187 -0.2692 -0.3923
15506TIP3    H167933   6.149   6.396  16.521  0.6980 -1.2423 -1.0580
15506TIP3    H267934   6.298   6.411  16.503  0.7381  0.1473  0.2203
15507TIP3   OH267935   2.136   2.790  15.403  0.3447 -0.4068  0.2117
15507TIP3    H167936   2.054   2.742  15.409  1.0635 -1.5839  1.2439
15507TIP3    H267937   2.189   2.739  15.342  0.9748 -0.7123  1.0013
15508TIP3   OH267938   0.987   6.803  16.345 -0.0170 -0.3876  0.8877
15508TIP3    H167939   0.903   6.757  16.344  0.9893 -2.4194 -1.0998
15508TIP3    H267940   0.998   6.834  16.255  0.9515  0.6698  1.3503
15509TIP3   OH267941   2.111   2.616  13.471 -0.3381 -0.3286 -0.3516
15509TIP3    H167942   2.099   2.609  13.376 -2.3855  2.6619 -0.4206
15509TIP3    H267943   2.199   2.654  13.481  0.1971 -1.3431 -0.9427
15510TIP3   OH267944   5.796   5.523   1.555 -0.2551  0.2652  0.3210
15510TIP3    H167945   5.883   5.559   1.538  1.1582 -2.4608  1.1218
15510TIP3    H267946   5.751   5.591   1.605  1.4680  1.6890  0.0407
15511TIP3   OH267947   1.970   0.804   3.405 -0.0306  0.1440  0.4757
15511TIP3    H167948   1.978   0.740   3.335  0.7265 -1.2493  1.7680
15511TIP3    H267949   2.060   0.817   3.437 -0.5161 -0.5420  2.2546
15512TIP3   OH267950   0.014   5.354   3.088 -0.0978 -0.7508  0.0331
15512TIP3    H167951   0.066   5.434   3.080 -1.6271  0.2390 -0.2771
15512TIP3    H267952   0.070   5.285   3.052  0.7612  0.3821 -0.8412
15513TIP3   OH267953   4.545   4.742   1.020  0.6155 -0.3686 -0.0005
15513TIP3    H167954   4.624   4.724   1.073  0.1172 -1.9155  0.2618
15513TIP3    H267955   4.579   4.784   0.941  1.3494  2.5579  1.6976
15514TIP3   OH267956   4.160   5.760  15.515 -0.4624 -0.2038 -0.4953
15514TIP3    H167957   4.135   5.688  15.573  0.7439  0.7339  1.2846
15514TIP3    H267958   4.165   5.837  15.572 -0.5299  1.0603 -2.1094
15515TIP3   OH267959   4.077   3.263   3.373  0.0974 -0.0331 -0.3839
15515TIP3    H167960   4.038   3.346   3.402 -0.4989 -0.7538  1.0080
15515TIP3    H267961   4.002   3.208   3.349  0.4214 -0.4986 -0.3578
15516TIP3   OH267962   3.293   5.228  15.725 -0.1716  0.0394  0.4679
15516TIP3    H167963   3.303   5.194  15.814  1.4338 -1.1818 -0.1317
15516TIP3    H267964   3.350   5.305  15.722 -0.1006 -0.0146  0.4403
15517TIP3   OH267965   2.110   3.948  11.363 -0.0821  0.2013 -0.3655
15517TIP3    H167966   2.043   4.015  11.344 -1.3448 -0.3059  1.9051
15517TIP3    H267967   2.086   3.875  11.306 -1.8326 -0.1593  0.7475
15518TIP3   OH267968   2.101   4.018  14.618 -0.1739 -0.5278  0.0310
15518TIP3    H167969   2.125   4.079  14.549 -1.0803 -0.1450  0.0370
15518TIP3    H267970   2.179   3.966  14.633  0.8796  1.1141  0.5225
15519TIP3   OH267971   2.113   6.697  13.763  0.3629  0.3819 -0.6623
15519TIP3    H167972   2.055   6.754  13.713  1.8282  1.6243 -1.0129
15519TIP3    H267973   2.162   6.648  13.696 -0.0636 -0.4607 -0.3757
15520TIP3   OH267974   6.744   1.517   4.025 -0.2030  0.8107  0.1751
15520TIP3    H167975   6.711   1.448   3.966 -2.3666  1.7317  0.2257
15520TIP3    H267976   6.688   1.511   4.102  1.2106  1.0357  1.2509
15521TIP3   OH267977   6.461   3.042  10.789  0.3846 -0.4008  0.2519
15521TIP3    H167978   6.526   3.100  10.828 -0.6735  0.5950  0.6008
15521TIP3    H267979   6.437   3.084  10.707  1.8652 -1.9755 -1.0604
15522TIP3   OH267980   4.481   3.547   0.298 -0.0497  0.2242 -0.3132
15522TIP3    H167981   4.503   3.624   0.350 -0.4532 -0.7097  1.3411
15522TIP3    H267982   4.565   3.514   0.267  0.4962 -0.5361  1.7968
15523TIP3   OH267983   6.071   1.476  12.825  0.0231 -0.1515 -0.6771
15523TIP3    H167984   6.033   1.459  12.911 -0.6979 -3.0996 -1.4685
15523TIP3    H267985   6.006   1.531  12.781  0.6172  1.7935  0.7226
15524TIP3   OH267986   2.742   6.017  12.208 -0.3828  0.3286  0.3398
15524TIP3    H167987   2.717   5.990  12.297  0.2118 -0.9920  0.1287
15524TIP3    H267988   2.776   5.937  12.168 -0.4267  0.9711 -1.0050
15525TIP3   OH267989   6.696   0.500   4.281 -0.1006  0.1189  0.2680
15525TIP3    H167990   6.782   0.491   4.323  0.6897  0.1549 -1.2999
15525TIP3    H267991   6.683   0.416   4.236 -1.0731 -0.0244  0.7867
15526TIP3   OH267992   6.232   1.699  15.561 -0.1300  1.1073 -0.0626
15526TIP3    H167993   6.200   1.780  15.520  0.3065  1.0685 -0.4926
15526TIP3    H267994   6.295   1.727  15.626 -1.2419  1.2022  1.0081
15527TIP3   OH267995   6.482   5.406  15.879  0.3496  0.6206  0.2273
15527TIP3    H167996   6.491   5.409  15.784  1.5806 -1.0558  0.2506
15527TIP3    H267997   6.568   5.432  15.913  0.0299  0.8596  0.8752
15528TIP3   OH267998   4.408   4.278   3.983  0.4600 -0.2298  0.0605
15528TIP3    H167999   4.482   4.244   4.033  1.0811  0.0740 -0.6439
15528TIP3    H268000   4.422   4.245   3.894 -1.0462 -1.4148  0.2188
15529TIP3   OH268001   5.280   2.170  11.711 -0.3066  0.0048  0.0624
15529TIP3    H168002   5.235   2.130  11.786 -0.1046  0.5082  0.4563
15529TIP3    H268003   5.357   2.115  11.697 -0.8830 -0.7053 -0.4453
15530TIP3   OH268004   4.902   2.070  11.177 -0.7976 -0.8086 -0.1435
15530TIP3    H168005   4.873   2.090  11.088  1.1487 -0.4930 -0.7508
15530TIP3    H268006   4.974   2.130  11.193 -1.4192 -0.5307  1.8559
15531TIP3   OH268007   4.750   4.603  15.007 -1.1070 -0.2577  0.2198
15531TIP3    H168008   4.684   4.599  14.938 -2.2502  0.0319  1.2764
15531TIP3    H268009   4.702   4.628  15.086  0.4408  1.1370  0.7900
15532TIP3   OH268010   0.277   0.645   2.321 -0.1613 -0.0146  0.2753
15532TIP3    H168011   0.234   0.717   2.276 -0.9966 -0.2698  0.6487
15532TIP3    H268012   0.223   0.628   2.398 -0.9043 -2.0746 -0.6289
15533TIP3   OH268013   3.477   1.347   2.248 -0.3474 -0.1905  0.0698
15533TIP3    H168014   3.544   1.297   2.293 -0.3570  0.0111  0.3067
15533TIP3    H268015   3.415   1.282   2.217 -0.7916 -0.2662  1.0848
15534TIP3   OH268016   0.706   1.844   1.185  0.0518  0.4411 -0.1066
15534TIP3    H168017   0.695   1.761   1.138  0.2189  0.3411  0.0300
15534TIP3    H268018   0.663   1.829   1.269  1.7009 -0.1680  0.6857
15535TIP3   OH268019   5.681   0.440   4.536  0.2264 -0.1025  0.2168
15535TIP3    H168020   5.668   0.534   4.549 -2.5275 -0.3040 -0.4199
15535TIP3    H268021   5.774   0.431   4.516  1.4150  2.0142  3.8360
15536TIP3   OH268022   6.314   1.598  16.333  0.0260 -0.4302 -0.4383
15536TIP3    H168023   6.346   1.659  16.266  1.0465 -0.7836 -0.2867
15536TIP3    H268024   6.218   1.607  16.328  0.1116  0.3507 -1.1873
15537TIP3   OH268025   5.902   4.565  13.740 -0.2837 -0.1646  0.4563
15537TIP3    H168026   5.880   4.563  13.833  1.6402 -0.5165  0.9523
15537TIP3    H268027   5.991   4.601  13.737 -0.4250  0.1398 -1.2808
15538TIP3   OH268028   3.393   3.943  15.578  0.3171  0.1637 -0.0654
15538TIP3    H168029   3.320   3.921  15.636 -0.1133 -0.6753 -0.8978
15538TIP3    H268030   3.463   3.883  15.603  0.6980  0.8898  0.6534
15539TIP3   OH268031   2.202   2.269   4.812 -0.3768  0.2311  0.3318
15539TIP3    H168032   2.292   2.291   4.836 -0.1999 -0.0146 -0.0920
15539TIP3    H268033   2.160   2.247   4.894  0.1391 -0.3082  0.4556
15540TIP3   OH268034   1.452   2.272   1.497 -0.0811 -0.1444  0.5639
15540TIP3    H168035   1.399   2.350   1.512  0.0059  0.5142 -2.0982
15540TIP3    H268036   1.471   2.273   1.403  2.3118 -1.8515  0.9253
15541TIP3   OH268037   1.018   1.018  15.330  0.2420  0.0447 -0.1050
15541TIP3    H168038   1.004   1.082  15.400  1.1819  1.5249 -1.2129
15541TIP3    H268039   1.069   0.949  15.371  0.1937  0.5465  0.8416
15542TIP3   OH268040   4.687   2.613   1.783  0.4504  0.6899  0.0231
15542TIP3    H168041   4.617   2.677   1.770  0.3721  0.8040  0.9126
15542TIP3    H268042   4.675   2.583   1.873 -0.3722 -1.6213 -0.7712
15543TIP3   OH268043   0.613   4.373  12.088  0.3532 -0.4000  0.1147
15543TIP3    H168044   0.559   4.327  12.024  0.5178 -0.4618  0.0189
15543TIP3    H268045   0.654   4.303  12.140  0.2398 -0.3514  0.2712
15544TIP3   OH268046   2.230   3.286  11.979 -0.0877  0.4534  0.0808
15544TIP3    H168047   2.234   3.289  12.075  1.9538  2.1894  0.0054
15544TIP3    H268048   2.239   3.377  11.952  1.7868 -0.2277 -1.8163
15545TIP3   OH268049   3.016   0.817   1.896 -0.3489  0.0228 -0.3624
15545TIP3    H168050   2.962   0.746   1.931  1.1108 -0.3705  1.2259
15545TIP3    H268051   2.960   0.895   1.904 -1.0583 -0.5347  0.2928
15546TIP3   OH268052   1.941   4.868  10.490  0.4480 -0.3340  0.0198
15546TIP3    H168053   1.988   4.951  10.488  0.5799 -0.3520  1.3702
15546TIP3    H268054   1.993   4.808  10.436  0.9965  0.1369  0.0260
15547TIP3   OH268055   3.582   6.763  13.990  0.2706  0.8353  0.1936
15547TIP3    H168056   3.537   6.680  13.998 -1.8442  2.0901  2.5666
15547TIP3    H268057   3.666   6.750  14.035  0.2514 -0.1593 -0.0455
15548TIP3   OH268058   6.703   3.705   5.159 -0.1481 -0.7210 -0.2067
15548TIP3    H168059   6.713   3.610   5.167  0.6064 -0.6176  0.1818
15548TIP3    H268060   6.788   3.736   5.130 -0.3083 -0.1332 -0.0661
15549TIP3   OH268061   3.358   6.137  13.996 -0.2223 -0.5266 -0.1146
15549TIP3    H168062   3.392   6.055  14.032  1.3132 -0.9818 -2.4111
15549TIP3    H268063   3.375   6.132  13.902 -1.0000  2.0092 -0.4893
15550TIP3   OH268064   1.893   0.168  10.944 -0.3598  0.2653 -0.2953
15550TIP3    H168065   1.893   0.073  10.933  2.0595  0.2254 -0.5435
15550TIP3    H268066   1.837   0.201  10.874 -1.2847 -0.9630 -0.1606
15551TIP3   OH268067   4.836   0.934  15.779  0.0225 -0.1365 -0.3850
15551TIP3    H168068   4.748   0.952  15.745 -0.4849 -0.4193  0.7179
15551TIP3    H268069   4.831   0.843  15.811  1.1439 -0.6513 -1.5933
15552TIP3   OH268070   2.944   6.564   4.760  0.2432 -0.0844 -0.2701
15552TIP3    H168071   2.930   6.492   4.822  1.9420  0.2962  0.6102
15552TIP3    H268072   2.941   6.521   4.674 -1.1926 -0.7719  0.0849
15553TIP3   OH268073   1.892   3.987  13.017  0.9822 -0.1664  0.0550
15553TIP3    H168074   1.969   4.020  12.971  0.5326  1.2522  0.2940
15553TIP3    H268075   1.924   3.964  13.105  1.0060  1.1043  0.3904
15554TIP3   OH268076   4.194   1.802  16.369 -0.1592 -0.1098  0.4497
15554TIP3    H168077   4.290   1.806  16.374 -0.1548 -1.2108  1.5184
15554TIP3    H268078   4.177   1.730  16.307 -0.3175  0.7920 -0.5930
15555TIP3   OH268079   3.965   5.912  16.314  0.0092  0.1327 -0.4155
15555TIP3    H168080   3.945   6.005  16.307 -0.0400  0.1665  0.1000
15555TIP3    H268081   3.880   5.868  16.301  0.1237  0.1314 -1.1830
15556TIP3   OH268082   1.240   0.180  16.178  0.2910 -0.0404 -0.1174
15556TIP3    H168083   1.182   0.115  16.138 -0.6406  0.3509  0.5838
15556TIP3    H268084   1.327   0.160  16.141  0.0416 -1.7241  0.1499
15557TIP3   OH268085   1.878   2.756   0.576 -0.4540 -0.1599  0.1009
15557TIP3    H168086   1.867   2.704   0.497 -0.6078  0.9756 -0.6594
15557TIP3    H268087   1.840   2.841   0.554  1.3921  0.8722  0.6378
15558TIP3   OH268088   6.198   2.242  14.948 -0.5221 -0.4348 -0.2065
15558TIP3    H168089   6.290   2.217  14.958 -0.8897 -2.4434 -1.1217
15558TIP3    H268090   6.150   2.162  14.969 -2.2489  1.1659  2.4909
15559TIP3   OH268091   1.587   1.733   4.274  0.3169  0.2654  0.3978
15559TIP3    H168092   1.558   1.682   4.199 -0.7052  0.0807  0.8996
15559TIP3    H268093   1.671   1.770   4.247  0.3194 -0.3983 -0.5523
15560TIP3   OH268094   4.772   3.266   0.201 -0.6021 -0.6317 -0.1336
15560TIP3    H168095   4.815   3.220   0.129 -0.6653 -0.4448 -0.2930
15560TIP3    H268096   4.721   3.336   0.158 -0.3545 -0.2939  0.1161
15561TIP3   OH268097   2.043   2.428  15.811  0.2487 -0.1386 -0.2963
15561TIP3    H168098   2.079   2.351  15.768  2.4335  0.8490 -0.3779
15561TIP3    H268099   2.096   2.501  15.778 -2.2674  1.5566 -0.8535
15562TIP3   OH268100   1.063   1.587  11.149 -0.3305  0.2342  0.3165
15562TIP3    H168101   1.020   1.571  11.065 -1.5008 -0.2741  0.9888
15562TIP3    H268102   0.996   1.569  11.215 -0.1980  2.9271  1.3235
15563TIP3   OH268103   3.271   3.161   5.449 -0.3707  0.3712 -0.4966
15563TIP3    H168104   3.318   3.092   5.496  1.3004  1.9595  0.3043
15563TIP3    H268105   3.255   3.124   5.362 -1.1964 -1.6767  0.4639
15564TIP3   OH268106   6.761   6.688   1.841 -0.3834  0.3788 -0.4512
15564TIP3    H168107   6.816   6.650   1.910 -1.1090  0.7923  0.3758
15564TIP3    H268108   6.771   6.783   1.852 -1.4052  0.4674 -0.1456
15565TIP3   OH268109   5.444   6.560  16.417 -0.5078 -0.3018 -0.5321
15565TIP3    H168110   5.495   6.484  16.446 -0.9350 -0.4462 -0.1462
15565TIP3    H268111   5.508   6.632  16.415 -0.5627 -0.1417  1.4160
15566TIP3   OH268112   3.011   0.031   2.198 -0.3414 -0.2676  0.5148
15566TIP3    H168113   2.930  -0.020   2.192 -0.0506 -0.6441 -0.7339
15566TIP3    H268114   2.983   0.122   2.188 -0.7203 -0.2994  1.2539
15567TIP3   OH268115   3.531   0.616   4.229  0.5002 -0.3698  0.2547
15567TIP3    H168116   3.556   0.613   4.137  0.6414 -0.6443  0.3030
15567TIP3    H268117   3.446   0.661   4.229 -0.1885 -1.6145 -0.1533
15568TIP3   OH268118   5.058   5.007   2.936  0.0117 -0.1540 -0.0578
15568TIP3    H168119   4.976   5.056   2.942 -0.2427 -0.4993 -0.6280
15568TIP3    H268120   5.060   4.974   2.846  1.4526  1.0175 -0.4826
15569TIP3   OH268121   0.586   2.044   0.966  0.3675  0.2042  0.2604
15569TIP3    H168122   0.658   1.991   0.933  0.4812  1.3014 -1.3831
15569TIP3    H268123   0.588   2.031   1.061  2.9457  0.4774  0.3114
15570TIP3   OH268124   1.575   1.769   3.474  0.8021  0.8727 -0.0802
15570TIP3    H168125   1.560   1.835   3.542 -0.6817 -0.7413  1.2372
15570TIP3    H268126   1.492   1.764   3.427  1.0268  0.2133 -0.4136
15571TIP3   OH268127   2.965   0.662   0.966  0.1582 -0.0445 -0.0384
15571TIP3    H168128   2.909   0.665   0.888  1.1073 -0.4687 -0.7709
15571TIP3    H268129   3.040   0.609   0.938  0.4727 -0.2758  1.2055
15572TIP3   OH268130   6.288   3.351  14.298  0.1135 -0.5097 -0.2087
15572TIP3    H168131   6.228   3.276  14.299 -0.6446  0.0965  1.1724
15572TIP3    H268132   6.231   3.428  14.296  0.8823  0.0777 -1.6689
15573TIP3   OH268133   4.784   2.113  14.561 -0.5467  0.1443  0.6487
15573TIP3    H168134   4.868   2.080  14.593  0.3306 -3.3477 -4.0878
15573TIP3    H268135   4.721   2.044  14.584 -0.7971 -0.1372 -0.7302
15574TIP3   OH268136   1.297   1.671  14.402  0.0152 -0.1336 -0.5067
15574TIP3    H168137   1.281   1.591  14.451 -1.4935  0.1720 -0.4316
15574TIP3    H268138   1.213   1.689  14.359  0.1129  1.7360 -0.0028
15575TIP3   OH268139   5.898   2.226   0.506 -0.1621  0.2329  0.1401
15575TIP3    H168140   5.854   2.309   0.488 -0.0278  0.0627 -1.0620
15575TIP3    H268141   5.956   2.246   0.581 -0.5868  1.0484  0.2682
15576TIP3   OH268142   5.284   5.921  14.613  0.3105 -0.2323 -0.6264
15576TIP3    H168143   5.318   5.937  14.702 -0.3564 -0.9711 -0.2267
15576TIP3    H268144   5.314   5.996  14.562 -2.5378  2.2766  1.0847
15577TIP3   OH268145   6.598   0.299  14.018  0.3059 -0.1544  0.1611
15577TIP3    H168146   6.549   0.242  13.959  1.7361 -0.1219 -1.1188
15577TIP3    H268147   6.685   0.306  13.979  2.2909 -2.3134  3.6864
15578TIP3   OH268148   2.035   2.387   2.176  0.2164  0.3800  0.3768
15578TIP3    H168149   2.072   2.437   2.103  1.8358 -0.8120  0.3300
15578TIP3    H268150   1.965   2.335   2.137  0.5453  0.3411 -0.1703
15579TIP3   OH268151   5.901   5.520  11.817  0.2353  0.2813 -0.5083
15579TIP3    H168152   5.849   5.549  11.742 -0.7009  1.2281  0.4712
15579TIP3    H268153   5.859   5.439  11.846  0.7715 -0.2393 -1.1649
15580TIP3   OH268154   1.612   4.683   1.372  0.1557  0.4219 -0.3820
15580TIP3    H168155   1.694   4.643   1.399  0.9200  0.5758 -2.3370
15580TIP3    H268156   1.549   4.612   1.371  0.1647  0.3483  1.3797
15581TIP3   OH268157   2.467   1.918  14.030  0.1160 -0.1466 -0.1803
15581TIP3    H168158   2.394   1.976  14.051  1.3606  0.4612  3.0891
15581TIP3    H268159   2.535   1.977  13.996  0.1420 -0.2173 -0.2505
15582TIP3   OH268160   5.042   1.417   4.367 -0.2009  0.8682 -0.1690
15582TIP3    H168161   5.113   1.400   4.306 -0.6396 -2.0890 -0.0033
15582TIP3    H268162   5.085   1.454   4.444  1.2230 -0.9298 -0.0370
15583TIP3   OH268163   4.306   6.183   4.384  0.0006  0.0918 -0.0030
15583TIP3    H168164   4.393   6.151   4.409  1.1187  2.7072 -0.2472
15583TIP3    H268165   4.313   6.201   4.290 -0.3930  1.3932  0.1928
15584TIP3   OH268166   1.201   4.875  12.634  0.1668  0.7158  0.1800
15584TIP3    H168167   1.209   4.813  12.706 -1.3298  0.9763  0.5994
15584TIP3    H268168   1.246   4.954  12.664  0.7511  0.3660  0.2479
15585TIP3   OH268169   2.628   4.763   3.880 -0.4907 -0.0243 -0.4052
15585TIP3    H168170   2.669   4.694   3.934  1.4616 -1.3711 -3.3470
15585TIP3    H268171   2.690   4.836   3.883  0.1276 -0.4753 -1.5078
15586TIP3   OH268172   1.464   2.461   4.015  0.0873 -0.5865  0.3142
15586TIP3    H168173   1.430   2.493   3.931  1.1151 -0.7951 -0.1943
15586TIP3    H268174   1.499   2.538   4.058 -1.5452 -0.2548  1.1220
15587TIP3   OH268175   5.104   2.283  13.292  0.1238 -0.4713  0.0102
15587TIP3    H168176   5.140   2.200  13.324  1.5210 -0.3738 -1.1955
15587TIP3    H268177   5.179   2.328  13.254 -0.7374  1.0931  0.0950
15588TIP3   OH268178   6.473   4.359   1.543  0.4335  0.2133  0.7418
15588TIP3    H168179   6.469   4.446   1.582  0.4886 -0.1700  1.6243
15588TIP3    H268180   6.400   4.311   1.581 -2.9067  1.3125 -3.5355
15589TIP3   OH268181   5.389   3.607  16.169 -0.3523  0.4332  0.3247
15589TIP3    H168182   5.376   3.652  16.086 -1.4821  0.3876  0.4489
15589TIP3    H268183   5.306   3.619  16.215  0.8261  1.9820  2.2111
15590TIP3   OH268184   0.098   0.425   1.224 -0.3951 -0.7866 -0.4694
15590TIP3    H168185   0.018   0.477   1.212  0.4192  0.6104 -0.0546
15590TIP3    H268186   0.120   0.394   1.137 -0.5187  0.1830 -0.8648
15591TIP3   OH268187   6.889   4.110   3.714  0.3938  0.0796  0.1198
15591TIP3    H168188   6.842   4.027   3.706  1.0620 -0.3409  0.4341
15591TIP3    H268189   6.977   4.091   3.680 -0.4050  1.5935 -3.3183
15592TIP3   OH268190   1.016   2.478  14.893  0.3631 -0.1278 -0.2732
15592TIP3    H168191   0.977   2.405  14.846  1.9548  0.1621 -2.1390
15592TIP3    H268192   0.969   2.555  14.862  0.0737 -0.1296  0.1461
15593TIP3   OH268193   5.598   2.566  10.292 -0.9026 -0.3234  0.4438
15593TIP3    H168194   5.629   2.523  10.212 -0.6978 -1.0464  0.8976
15593TIP3    H268195   5.503   2.570  10.282 -1.0374 -1.8598  0.8427
15594TIP3   OH268196   0.849   6.813   3.190  0.2525 -0.1977  0.2433
15594TIP3    H168197   0.770   6.841   3.236 -0.9625 -2.2670 -0.4246
15594TIP3    H268198   0.902   6.770   3.257  0.4670  0.4887  0.5266
15595TIP3   OH268199   4.765   5.813   3.304  0.2392 -0.4415  0.1372
15595TIP3    H168200   4.737   5.900   3.333  1.2866  0.2265 -0.7265
15595TIP3    H268201   4.787   5.766   3.384 -0.7918 -0.0762  0.6441
15596TIP3   OH268202   5.018   4.173   4.475 -0.6463  0.0775 -0.0104
15596TIP3    H168203   5.072   4.099   4.501  1.3090  1.6718  0.7573
15596TIP3    H268204   4.958   4.187   4.548  0.6549  0.7163  0.9863
15597TIP3   OH268205   4.453   4.995  12.124 -0.6905 -0.1333 -0.5036
15597TIP3    H168206   4.396   5.070  12.141  0.9161  1.1263 -0.3587
15597TIP3    H268207   4.499   4.980  12.207 -1.3171 -1.6045 -0.3976
15598TIP3   OH268208   2.606   3.544   3.985  0.6068  0.0349 -0.0456
15598TIP3    H168209   2.650   3.620   3.948  1.9080 -0.7917 -0.2642
15598TIP3    H268210   2.620   3.474   3.921  0.1015 -0.5850  0.5058
15599TIP3   OH268211   3.628   0.378  10.694  0.4187  0.2225 -0.1999
15599TIP3    H168212   3.623   0.291  10.654  0.2538  0.1690 -0.0583
15599TIP3    H268213   3.550   0.424  10.663 -0.1100 -0.0707  0.6723
15600TIP3   OH268214   5.945   5.247  12.013 -0.1573  0.6165  0.2781
15600TIP3    H168215   6.032   5.288  12.006  0.8474 -1.5295 -0.7460
15600TIP3    H268216   5.919   5.262  12.103  2.7029 -1.2166  1.5607
15601TIP3   OH268217   1.084   4.150  14.133  0.0721 -0.3427 -0.0890
15601TIP3    H168218   1.169   4.174  14.169  0.4025 -1.3574 -0.1719
15601TIP3    H268219   1.090   4.170  14.040 -0.9287  2.6934  0.4094
15602TIP3   OH268220   3.448   6.125  16.540 -0.0966  0.2930  0.2008
15602TIP3    H168221   3.365   6.134  16.587 -0.4224  0.2789 -0.3629
15602TIP3    H268222   3.514   6.161  16.600 -0.5871  0.8470  0.4159
15603TIP3   OH268223   1.927   6.672   0.791  0.3280 -0.1012  0.3662
15603TIP3    H168224   1.877   6.600   0.753 -0.2464 -0.7654  2.2810
15603TIP3    H268225   2.015   6.661   0.757 -0.1711 -0.5936 -0.8237
15604TIP3   OH268226   5.501   2.399  15.265 -0.1741 -0.2545 -0.2806
15604TIP3    H168227   5.460   2.315  15.286 -1.9235  0.9214  1.4270
15604TIP3    H268228   5.481   2.413  15.172 -3.7961  0.1996  0.4277
15605TIP3   OH268229   4.756   6.135  13.956 -0.0301 -0.0508  0.4815
15605TIP3    H168230   4.746   6.113  14.048  0.0717 -1.9279  0.0888
15605TIP3    H268231   4.667   6.145  13.924 -0.0951 -0.2661  0.5954
15606TIP3   OH268232   3.442   5.921  14.145 -0.1305 -0.1555 -0.4227
15606TIP3    H168233   3.373   5.910  14.210 -0.5949  1.1045 -0.6658
15606TIP3    H268234   3.519   5.881  14.185 -0.5558  0.0500  0.6527
15607TIP3   OH268235   6.492   6.351   0.551  0.5766  0.2912  0.5291
15607TIP3    H168236   6.459   6.273   0.505  1.9924 -0.9815  1.5837
15607TIP3    H268237   6.586   6.351   0.534  0.9068  0.6280  2.1607
15608TIP3   OH268238   5.555   2.594  12.860 -0.3221  0.0291  0.3031
15608TIP3    H168239   5.568   2.662  12.794 -1.4181 -0.8617 -0.8817
15608TIP3    H268240   5.592   2.515  12.821  1.2408 -0.0294  1.7960
15609TIP3   OH268241   1.136   4.291  10.996 -0.2677  0.6798  0.1292
15609TIP3    H168242   1.119   4.337  11.078  1.0697  0.1489  0.7491
15609TIP3    H268243   1.129   4.358  10.929  0.2816  1.5028  0.8713
15610TIP3   OH268244   4.076   0.419   2.361  0.0398 -0.6199  0.2806
15610TIP3    H168245   4.053   0.488   2.298  0.6931 -0.0575  0.6442
15610TIP3    H268246   4.009   0.424   2.428  0.1004 -0.3134  0.3202
15611TIP3   OH268247   5.568   1.900  10.073 -0.0113  0.3068  0.3707
15611TIP3    H168248   5.541   1.948   9.995 -3.8260  0.0383  1.3335
15611TIP3    H268249   5.494   1.843  10.093  0.4316  0.8942  4.5860
15612TIP3   OH268250   0.306   0.010   0.350 -0.0983  0.0781 -0.0404
15612TIP3    H168251   0.350  -0.043   0.416  1.9250 -0.9232 -2.0563
15612TIP3    H268252   0.212  -0.002   0.368  0.3589 -1.3790  1.6663
15613TIP3   OH268253   6.381   4.978  13.766  0.8365  0.0073  0.2766
15613TIP3    H168254   6.374   4.917  13.692  0.0755  0.1198  0.2556
15613TIP3    H268255   6.421   4.925  13.835 -1.8717 -1.2367  1.0172
15614TIP3   OH268256   4.959   1.911   5.542  0.1781  1.0233 -0.0442
15614TIP3    H168257   4.905   1.965   5.600 -0.8370  0.2280 -0.2327
15614TIP3    H268258   4.948   1.950   5.455 -0.7208  0.4236 -0.2172
15615TIP3   OH268259   5.942   6.833  12.391 -0.1259 -0.4872 -0.6716
15615TIP3    H168260   5.984   6.828  12.306 -0.0498 -0.1357 -0.6552
15615TIP3    H268261   5.991   6.771  12.446  0.1955 -0.2807 -0.7251
15616TIP3   OH268262   3.304   4.666   0.612  0.3981  0.1097 -0.2072
15616TIP3    H168263   3.375   4.648   0.551  0.1044  0.3128 -0.6174
15616TIP3    H268264   3.344   4.661   0.699  0.8157 -0.1948 -0.4174
15617TIP3   OH268265   3.503   4.170  13.645  0.5046 -0.1389 -0.0280
15617TIP3    H168266   3.491   4.076  13.654 -1.3140  0.1015  0.2773
15617TIP3    H268267   3.421   4.202  13.608  0.2032  1.6141  1.9834
15618TIP3   OH268268   0.619   1.977   3.635 -0.3202  0.2684  0.1573
15618TIP3    H168269   0.628   2.011   3.546 -1.3632  1.4739  0.4834
15618TIP3    H268270   0.527   1.991   3.657 -0.3634 -1.1074  1.0103
15619TIP3   OH268271   2.662   2.166  13.617 -0.1765 -0.3430  0.0242
15619TIP3    H168272   2.744   2.116  13.617 -0.3597 -0.6525 -0.5863
15619TIP3    H268273   2.684   2.247  13.571 -0.0353 -0.1215  0.4790
15620TIP3   OH268274   3.309   1.781   3.696 -0.0641  0.0610  0.4377
15620TIP3    H168275   3.347   1.713   3.641 -2.0586  0.0392 -1.0260
15620TIP3    H268276   3.372   1.852   3.693  0.8626 -0.7633 -0.1144
15621TIP3   OH268277   2.484   1.696   4.634  0.0974  0.0090 -0.1473
15621TIP3    H168278   2.523   1.742   4.560 -0.2738  0.1435 -0.2629
15621TIP3    H268279   2.454   1.613   4.597  0.9973 -0.4477  0.1150
15622TIP3   OH268280   4.096   1.326   1.709  0.2018  0.0226  0.2168
15622TIP3    H168281   4.126   1.415   1.690  0.1239 -0.3293 -1.7766
15622TIP3    H268282   4.176   1.276   1.724  0.2608  0.3669  1.0492
15623TIP3   OH268283   1.209   4.467   5.837 -0.0951  0.2489  0.2862
15623TIP3    H168284   1.213   4.432   5.748  0.6436  1.5715 -0.2348
15623TIP3    H268285   1.149   4.408   5.884  1.3867 -1.9105 -0.4005
15624TIP3   OH268286   0.131   2.012   3.961 -0.4470 -0.1014 -1.0208
15624TIP3    H168287   0.149   2.099   3.927 -1.7923  0.8905  0.6730
15624TIP3    H268288   0.107   1.961   3.884  0.8440  0.8572 -2.1058
15625TIP3   OH268289   0.596   2.673  14.660 -0.1853  0.2666  0.0496
15625TIP3    H168290   0.513   2.664  14.708  0.9972 -2.0807  1.8431
15625TIP3    H268291   0.586   2.615  14.584 -0.4460  0.5357 -0.1209
15626TIP3   OH268292   0.914   3.313  13.473  0.3219 -0.0354 -0.4108
15626TIP3    H168293   0.856   3.365  13.418 -1.9198 -0.9984  0.9134
15626TIP3    H268294   0.901   3.223  13.445 -0.4992 -0.4949  1.3110
15627TIP3   OH268295   0.645   4.564  15.590  0.1662  0.5266  0.0700
15627TIP3    H168296   0.579   4.504  15.558 -0.1917  1.2319 -0.5580
15627TIP3    H268297   0.712   4.508  15.631 -1.3394 -0.1304  1.7537
15628TIP3   OH268298   3.511   2.214  10.414  0.3871 -0.1229  0.1713
15628TIP3    H168299   3.425   2.251  10.391 -0.3367 -1.9036 -0.1923
15628TIP3    H268300   3.491   2.126  10.445  2.1775 -1.0832 -1.2104
15629TIP3   OH268301   3.597   1.542  11.770 -0.2765  0.6434  0.1930
15629TIP3    H168302   3.513   1.543  11.818 -0.1355 -1.6410  0.5929
15629TIP3    H268303   3.652   1.605  11.817 -0.8707  0.0917  1.6994
15630TIP3   OH268304   1.347   0.536  13.722 -0.0605 -0.2179 -0.4711
15630TIP3    H168305   1.341   0.442  13.734  2.7273 -0.5042 -0.6549
15630TIP3    H268306   1.345   0.549  13.627 -4.0692  0.3664 -0.4854
15631TIP3   OH268307   5.309   2.788   2.893 -0.7453  0.1111 -0.4869
15631TIP3    H168308   5.331   2.731   2.966 -1.1086  1.3877  0.6714
15631TIP3    H268309   5.223   2.824   2.915 -0.3770  1.3717 -0.9680
15632TIP3   OH268310   0.290   1.462  14.360 -0.2591  0.1619 -0.1835
15632TIP3    H168311   0.279   1.472  14.455 -1.8271 -0.3155 -0.2850
15632TIP3    H268312   0.279   1.369  14.344 -0.1112  0.2552 -0.8436
15633TIP3   OH268313   3.832   0.908  12.766  0.6586  0.0510 -0.0777
15633TIP3    H168314   3.771   0.845  12.804 -0.4613  0.6931 -0.7617
15633TIP3    H268315   3.783   0.949  12.695  1.4230  1.5541  0.2226
15634TIP3   OH268316   4.220   6.304  16.549 -0.2238 -0.2981 -0.3158
15634TIP3    H168317   4.197   6.372  16.612  0.8379 -0.3356  0.1248
15634TIP3    H268318   4.227   6.224  16.601 -4.0075 -1.4211 -1.1450
15635TIP3   OH268319   3.653   5.245  15.405 -0.2043 -0.1269  0.1172
15635TIP3    H168320   3.635   5.152  15.417 -1.4266 -0.1015 -1.2287
15635TIP3    H268321   3.702   5.250  15.323 -0.8957  0.4465 -0.2850
15636TIP3   OH268322   3.250   4.526  11.796 -0.2342 -0.4143  0.1772
15636TIP3    H168323   3.213   4.446  11.759  1.7222 -0.6757 -1.3497
15636TIP3    H268324   3.344   4.511  11.798  0.1162  1.5521  0.6164
15637TIP3   OH268325   2.083   0.025  13.543  0.3417 -0.4435  0.2839
15637TIP3    H168326   2.174   0.025  13.516 -0.5789 -0.7896 -3.3353
15637TIP3    H268327   2.049   0.110  13.516 -1.1013 -1.5255 -1.6652
15638TIP3   OH268328   5.398   5.850  13.747 -0.2049  0.2592  0.0685
15638TIP3    H168329   5.345   5.820  13.673  0.3369 -0.5296 -0.0111
15638TIP3    H268330   5.379   5.789  13.818 -0.7428  1.0304  0.5976
15639TIP3   OH268331   1.096   0.583   5.332  0.1932 -0.2177 -0.4278
15639TIP3    H168332   1.143   0.531   5.398  3.4061 -0.1784 -2.4792
15639TIP3    H268333   1.098   0.529   5.253  0.8951  1.6988 -1.7951
15640TIP3   OH268334   4.779   1.923  12.094 -0.2770 -0.1680  0.3602
15640TIP3    H168335   4.687   1.927  12.119 -0.5318 -1.2489 -0.3412
15640TIP3    H268336   4.814   2.009  12.118 -1.6254  0.5158 -0.0266
15641TIP3   OH268337   5.063   6.844  13.062  0.0143 -0.0596  0.5495
15641TIP3    H168338   5.066   6.778  12.993 -3.2996 -0.2712  0.4345
15641TIP3    H268339   5.146   6.890  13.055  1.2918 -2.4351 -1.1580
15642TIP3   OH268340   3.210   0.240   3.974 -0.3879 -0.0722 -0.1725
15642TIP3    H168341   3.305   0.252   3.976 -0.4514  0.4697 -0.1538
15642TIP3    H268342   3.193   0.191   3.894 -0.1418  0.3425 -0.4809
15643TIP3   OH268343   3.621   0.046  15.881 -0.2161  0.0141  0.0665
15643TIP3    H168344   3.693  -0.015  15.895 -0.3996 -0.7683 -1.9967
15643TIP3    H268345   3.662   0.125  15.847 -0.3448 -0.8335 -2.2194
15644TIP3   OH268346   0.536   2.751  12.806  0.5397 -0.5840 -0.1961
15644TIP3    H168347   0.560   2.700  12.729  0.6116 -0.5037 -0.2267
15644TIP3    H268348   0.595   2.719  12.875 -0.3918 -1.5842  0.1680
15645TIP3   OH268349   4.095   5.119  10.820  0.1059  0.4561 -0.2225
15645TIP3    H168350   4.183   5.137  10.789 -0.1314  1.2205 -0.4700
15645TIP3    H268351   4.045   5.097  10.741  0.0744  0.0062 -0.0821
15646TIP3   OH268352   5.642   0.148   1.512 -0.8933  0.4401  0.7450
15646TIP3    H168353   5.605   0.207   1.446  1.4288 -0.0112 -1.0953
15646TIP3    H268354   5.617   0.060   1.483  2.1413  0.0518 -1.0748
15647TIP3   OH268355   1.178   2.385   5.069 -0.3428  0.0437 -0.3090
15647TIP3    H168356   1.240   2.419   5.004  0.6692 -0.2431  0.4806
15647TIP3    H268357   1.100   2.363   5.018  0.0559  0.7731 -1.2692
15648TIP3   OH268358   2.723   1.259  14.391  0.6419  0.4564 -0.1055
15648TIP3    H168359   2.717   1.238  14.298  0.4592  0.8472 -0.1859
15648TIP3    H268360   2.807   1.221  14.419  0.5228  0.0139 -0.3390
15649TIP3   OH268361   1.916   1.008  16.638  0.2794  0.3320  0.6715
15649TIP3    H168362   1.823   0.987  16.639  0.3026  0.2244  0.5378
15649TIP3    H268363   1.929   1.057  16.557  0.4430 -0.1193  0.4240
15650TIP3   OH268364   2.414   2.991  14.209  0.4669 -0.6789  0.1075
15650TIP3    H168365   2.347   3.007  14.142 -0.3095 -0.7676  0.8379
15650TIP3    H268366   2.369   3.007  14.292  1.3598 -0.7481  0.6180
15651TIP3   OH268367   3.766   1.688  14.985 -0.0471 -0.4734  0.1548
15651TIP3    H168368   3.780   1.779  14.958 -1.1691  0.2748  1.9004
15651TIP3    H268369   3.795   1.686  15.076  1.7444 -2.3851 -0.3673
15652TIP3   OH268370   1.525   0.889   5.072  0.3165 -0.1993 -0.0141
15652TIP3    H168371   1.542   0.982   5.062 -1.1918  0.1441  0.3017
15652TIP3    H268372   1.430   0.882   5.070  0.3251 -1.5075  1.7030
15653TIP3   OH268373   2.241   3.707   5.578  0.6839  0.0157 -0.1752
15653TIP3    H168374   2.163   3.761   5.588 -0.0520 -1.1701  0.8113
15653TIP3    H268375   2.208   3.617   5.574  1.9705 -0.4842 -0.1360
15654TIP3   OH268376   0.250   5.696   5.354 -0.3058 -0.4506  0.0248
15654TIP3    H168377   0.226   5.676   5.264 -0.0697  0.6327 -0.2925
15654TIP3    H268378   0.328   5.642   5.370 -0.4425 -0.7692 -0.3540
15655TIP3   OH268379   4.040   4.685   2.027 -0.5124  0.0854 -0.0420
15655TIP3    H168380   3.946   4.704   2.019  0.0432  2.8027 -1.3571
15655TIP3    H268381   4.058   4.695   2.120 -1.2761  1.1030  0.0226
15656TIP3   OH268382   5.147   4.638   3.061 -0.2680 -0.0830  0.6320
15656TIP3    H168383   5.206   4.711   3.079  1.2649 -1.3812  1.1348
15656TIP3    H268384   5.118   4.608   3.148 -3.0753  1.5276  0.3879
15657TIP3   OH268385   1.663   2.636   3.290 -0.1045 -0.1306  0.1924
15657TIP3    H168386   1.686   2.704   3.354 -0.9754 -1.1256  1.5978
15657TIP3    H268387   1.747   2.595   3.269  0.5122  1.5980 -1.0101
15658TIP3   OH268388   3.379   2.084   2.583  0.0395  0.0623  0.9280
15658TIP3    H168389   3.468   2.055   2.605 -0.5998 -0.5510  2.9985
15658TIP3    H268390   3.322   2.023   2.630 -1.5111  0.1715 -0.7017
15659TIP3   OH268391   3.842   1.001  15.148 -0.2939  0.2879  0.2301
15659TIP3    H168392   3.754   1.020  15.115 -1.3194 -0.3210  2.4367
15659TIP3    H268393   3.827   0.965  15.235  2.0477 -1.6012 -0.0543
15660TIP3   OH268394   3.045   4.276   1.568  0.5482 -0.3180 -0.4534
15660TIP3    H168395   3.013   4.188   1.547  1.8665 -0.7062 -0.8997
15660TIP3    H268396   3.132   4.281   1.528  1.4885  0.3463  1.5301
15661TIP3   OH268397   3.498   2.786   2.846 -0.1053  0.3838  0.2126
15661TIP3    H168398   3.531   2.723   2.783  1.3130 -0.6533  1.9266
15661TIP3    H268399   3.425   2.741   2.889 -0.1015  0.5214  0.3634
15662TIP3   OH268400   5.815   3.165   3.624 -0.5804  0.5186  0.1612
15662TIP3    H168401   5.784   3.100   3.687 -1.9036  0.5281 -0.4402
15662TIP3    H268402   5.847   3.238   3.678  0.5182 -0.4300  0.8294
15663TIP3   OH268403   6.893   6.666   3.640  0.8533 -0.1878 -0.1480
15663TIP3    H168404   6.960   6.718   3.685  1.2658 -0.7044 -0.1589
15663TIP3    H268405   6.936   6.635   3.560  0.8100 -1.0320  0.1428
15664TIP3   OH268406   0.946   1.340   4.028 -0.0610 -0.2710 -0.3560
15664TIP3    H168407   0.880   1.323   3.960  0.0015  1.8807 -1.0045
15664TIP3    H268408   0.993   1.417   3.998  1.4056 -0.5266  1.1297
15665TIP3   OH268409   2.022   2.642  13.218 -0.9765 -0.1300  0.1678
15665TIP3    H168410   1.985   2.565  13.175  1.6347  0.2247 -3.0769
15665TIP3    H268411   1.995   2.716  13.163  0.7568  0.6251  0.2679
15666TIP3   OH268412   0.820   6.817   4.611  0.5202 -0.4113 -0.0276
15666TIP3    H168413   0.798   6.897   4.564 -0.1296 -0.5694 -0.0158
15666TIP3    H268414   0.915   6.812   4.610  0.6007  0.7526  0.6279
15667TIP3   OH268415   2.647   5.063  14.009  0.4903 -0.3100  0.2720
15667TIP3    H168416   2.610   5.148  14.034  0.8667 -0.5944  1.8695
15667TIP3    H268417   2.598   4.999  14.061  2.0419 -0.8324  1.1359
15668TIP3   OH268418   3.715   2.646  15.511  0.1043 -1.0124 -0.2390
15668TIP3    H168419   3.736   2.554  15.527  0.9813 -0.4845  2.1910
15668TIP3    H268420   3.670   2.674  15.591 -1.2963  0.3800 -1.4465
15669TIP3   OH268421   6.019   2.920   1.488 -0.4187 -0.5494  0.0897
15669TIP3    H168422   6.061   2.996   1.447 -2.7594  1.2868  0.8783
15669TIP3    H268423   5.938   2.907   1.439 -1.8413 -0.1528  2.1971
15670TIP3   OH268424   3.933   1.293  16.692  0.6185 -0.3835  0.1502
15670TIP3    H168425   4.000   1.252  16.637  0.5735  0.1454 -0.3060
15670TIP3    H268426   3.950   1.258  16.780  1.6471 -0.0846  0.0843
15671TIP3   OH268427   5.225   6.128   2.463 -0.6858 -0.2126  0.6490
15671TIP3    H168428   5.316   6.158   2.461 -1.0301  0.9179 -1.8167
15671TIP3    H268429   5.226   6.046   2.413 -1.0192 -0.1894  0.6035
15672TIP3   OH268430   1.657   1.046   0.785 -0.5767  0.0151  0.1802
15672TIP3    H168431   1.709   1.015   0.859 -1.6762 -1.0491  0.5407
15672TIP3    H268432   1.720   1.055   0.713  0.6119  1.5999  1.3495
15673TIP3   OH268433   4.061   0.819  13.604  0.4980 -0.4571  0.1584
15673TIP3    H168434   3.971   0.800  13.581  0.7810  0.2864 -1.7055
15673TIP3    H268435   4.056   0.864  13.688 -1.1443  2.2922 -1.3071
15674TIP3   OH268436   2.388   2.014   5.734  0.4863  0.1284 -0.3009
15674TIP3    H168437   2.480   1.994   5.753  0.6178  1.8546  1.0859
15674TIP3    H268438   2.339   1.966   5.800  0.3760 -0.5076 -0.8247
15675TIP3   OH268439   5.111   4.463   2.215  0.5973  0.4037 -0.2566
15675TIP3    H168440   5.082   4.537   2.267 -0.4154  1.1421 -1.7801
15675TIP3    H268441   5.206   4.476   2.206  0.3582  1.8774 -0.9865
15676TIP3   OH268442   0.641   6.243  13.540 -0.0420  0.0669 -0.0269
15676TIP3    H168443   0.725   6.277  13.572  0.6618 -1.5447 -0.0942
15676TIP3    H268444   0.619   6.172  13.601 -1.3952  0.4832  0.0135
15677TIP3   OH268445   2.802   3.130  14.386 -0.1373  0.4506 -1.1606
15677TIP3    H168446   2.872   3.068  14.367  0.5034  0.8817 -0.2674
15677TIP3    H268447   2.765   3.151  14.300  0.1160 -0.5855 -1.5467
15678TIP3   OH268448   4.297   0.787  12.908  0.9518  0.1045  0.0476
15678TIP3    H168449   4.367   0.773  12.845  2.4877  0.7319  1.5397
15678TIP3    H268450   4.298   0.708  12.962 -0.0939 -0.2582 -0.4276
15679TIP3   OH268451   0.780   4.853  10.853 -0.2657  0.3118  0.0633
15679TIP3    H168452   0.836   4.909  10.907 -1.9328  0.2402  1.9591
15679TIP3    H268453   0.823   4.852  10.768  3.4928 -0.9382  1.7361
15680TIP3   OH268454   4.604   6.588  13.552  0.2317 -0.3648 -0.3287
15680TIP3    H168455   4.539   6.625  13.492 -1.9335 -0.1513  1.9595
15680TIP3    H268456   4.680   6.645  13.544 -1.4141  2.0101 -0.1139
15681TIP3   OH268457   0.406   0.583   0.951 -0.5059  0.2102  0.1926
15681TIP3    H168458   0.453   0.581   1.035  1.0693  0.1766 -0.6669
15681TIP3    H268459   0.419   0.496   0.914 -1.1859  0.2310 -0.1108
15682TIP3   OH268460   4.877   4.049   1.872 -0.7139  0.0619 -0.7462
15682TIP3    H168461   4.916   3.986   1.931 -0.7809  1.0090  0.3380
15682TIP3    H268462   4.901   4.134   1.907 -0.9793  0.6570 -1.9358
15683TIP3   OH268463   3.450   0.993   2.398  0.4132 -0.0463  0.4381
15683TIP3    H168464   3.519   1.059   2.388  0.9111 -0.6454 -0.1997
15683TIP3    H268465   3.405   1.017   2.479  1.2273  0.4912  0.7440
15684TIP3   OH268466   0.927   1.535  10.933  0.4378  0.4346  0.6669
15684TIP3    H168467   0.919   1.471  10.862  0.0461  1.5282 -0.3320
15684TIP3    H268468   0.863   1.507  10.999 -0.6745  0.4830 -0.3398
15685TIP3   OH268469   5.411   6.497   2.672 -0.2092 -0.2029 -0.2923
15685TIP3    H168470   5.491   6.549   2.660 -0.6383  0.2949 -1.1468
15685TIP3    H268471   5.357   6.549   2.731 -1.1422  0.9870 -2.0703
15686TIP3   OH268472   3.321   3.559  15.653 -0.3101 -0.7257  0.9006
15686TIP3    H168473   3.409   3.556  15.690  0.4706 -0.3370 -0.8500
15686TIP3    H268474   3.329   3.517  15.568 -2.4975 -3.5389  1.9161
15687TIP3   OH268475   4.476   2.347  13.863 -0.0799 -0.5897  0.2076
15687TIP3    H168476   4.568   2.369  13.876 -0.8360  1.8830  1.9729
15687TIP3    H268477   4.457   2.282  13.931  0.2477 -0.7998  0.0992
15688TIP3   OH268478   1.518   4.368   5.847  0.9097  0.1250  0.1358
15688TIP3    H168479   1.451   4.433   5.865 -0.3890 -1.4024  1.0613
15688TIP3    H268480   1.594   4.419   5.818 -0.0940  2.0094  0.6652
15689TIP3   OH268481   5.748   5.337  11.561  0.5016  0.3122  0.0290
15689TIP3    H168482   5.753   5.247  11.528  1.4789  0.6023 -0.6362
15689TIP3    H268483   5.748   5.327  11.657 -2.8060 -0.5621  0.0691
15690TIP3   OH268484   3.951   5.700   4.126 -0.1667  0.1354 -0.7997
15690TIP3    H168485   3.903   5.617   4.130  0.3825 -0.1509  0.5789
15690TIP3    H268486   4.021   5.685   4.063  1.0609 -1.1246  0.7751
15691TIP3   OH268487   6.599   1.178  11.589  0.1370 -0.5237  0.0644
15691TIP3    H168488   6.640   1.119  11.652 -0.9823  1.2137  2.6119
15691TIP3    H268489   6.611   1.266  11.627 -0.3210  0.6816 -2.3551
15692TIP3   OH268490   0.355   4.922  13.904 -0.0719 -0.5845  0.0390
15692TIP3    H168491   0.449   4.901  13.908  0.1444  0.5076  2.8760
15692TIP3    H268492   0.349   4.993  13.840  1.3550  0.5306  1.0756
15693TIP3   OH268493   6.776   4.071  16.247 -0.5663  0.0274  0.2942
15693TIP3    H168494   6.788   4.052  16.154  0.6234 -1.8538  0.7727
15693TIP3    H268495   6.712   4.006  16.277 -0.7125  0.4246  0.8624
15694TIP3   OH268496   4.544   1.686   2.310  0.1391 -0.1124  0.1923
15694TIP3    H168497   4.581   1.685   2.222  0.9238  0.1768  0.5014
15694TIP3    H268498   4.596   1.621   2.359 -0.1178 -0.0891  0.5036
15695TIP3   OH268499   2.223   3.088  14.909  0.2957 -0.6243 -0.3978
15695TIP3    H168500   2.237   3.009  14.961  3.0978  0.9772  1.5560
15695TIP3    H268501   2.171   3.145  14.965  1.0060  0.0849 -0.4388
15696TIP3   OH268502   1.171   2.234  15.746  0.0902 -0.4796  0.2427
15696TIP3    H168503   1.213   2.318  15.760 -1.3936  0.3541 -0.0591
15696TIP3    H268504   1.172   2.221  15.651 -0.6083 -0.2763  0.1978
15697TIP3   OH268505   6.650   4.862  10.381 -0.4727 -0.2123  0.2830
15697TIP3    H168506   6.726   4.901  10.423  0.7315 -0.0107 -1.9111
15697TIP3    H268507   6.673   4.860  10.288 -2.2975 -2.1170 -0.2000
15698TIP3   OH268508   6.044   3.334  15.063  0.0479  0.4274 -0.1085
15698TIP3    H168509   6.033   3.430  15.064 -2.3740  0.1928  0.1338
15698TIP3    H268510   6.067   3.312  15.153  0.8075  0.7829 -0.2061
15699TIP3   OH268511   6.408   3.645  12.453 -0.0933  0.2960 -0.5623
15699TIP3    H168512   6.412   3.739  12.438 -1.2608  0.2489 -1.3064
15699TIP3    H268513   6.500   3.616  12.449  0.3865  1.5388  0.7919
15700TIP3   OH268514   4.736   2.882   3.120  0.7287 -0.2428  0.4894
15700TIP3    H168515   4.828   2.874   3.147  0.7846 -0.6190  0.1871
15700TIP3    H268516   4.731   2.834   3.038  0.1353 -0.6820  0.7806
15701TIP3   OH268517   6.196   0.337  11.087 -0.2840 -0.1787 -0.3127
15701TIP3    H168518   6.250   0.331  11.165  0.4498 -0.8969 -0.8701
15701TIP3    H268519   6.257   0.359  11.016 -0.8110 -0.3749 -0.8375
15702TIP3   OH268520   0.246   0.444   4.217  0.8643 -0.2891  0.6458
15702TIP3    H168521   0.157   0.442   4.181  0.9771  1.0886  0.2345
15702TIP3    H268522   0.273   0.352   4.221  0.1058 -0.6012 -0.9254
15703TIP3   OH268523   3.316   3.776  14.360  0.3079 -0.1364  0.0645
15703TIP3    H168524   3.220   3.778  14.358  0.2104  2.2232  2.2370
15703TIP3    H268525   3.338   3.688  14.329 -2.5902 -1.1807  0.5870
15704TIP3   OH268526   1.719   4.697  13.971  0.3120  0.3657 -0.3066
15704TIP3    H168527   1.741   4.623  14.028  0.0788  1.6460  1.5348
15704TIP3    H268528   1.633   4.677  13.936  0.0184 -0.0213  0.6078
15705TIP3   OH268529   3.206   6.505   4.942  0.3331 -0.3317 -0.0176
15705TIP3    H168530   3.153   6.428   4.921  1.3164 -0.8854 -0.5379
15705TIP3    H268531   3.273   6.472   5.003  0.8176  0.0879 -0.3188
15706TIP3   OH268532   3.520   3.578  14.553 -0.5636  0.6385 -1.2146
15706TIP3    H168533   3.458   3.523  14.601  1.5294 -0.9157 -0.0865
15706TIP3    H268534   3.548   3.524  14.479  0.1480  0.9037 -1.1482
15707TIP3   OH268535   1.903   1.085  15.958 -0.7042 -0.2024 -0.4865
15707TIP3    H168536   1.888   1.033  16.037  0.4617 -0.9089 -0.6995
15707TIP3    H268537   1.924   1.173  15.990  1.4268 -0.8804  0.1084
15708TIP3   OH268538   2.780   5.871  13.226  0.4977  0.2559  0.5727
15708TIP3    H168539   2.825   5.955  13.217 -0.0207  0.4176 -0.5579
15708TIP3    H268540   2.845   5.806  13.198  0.5305  0.3655  0.3956
15709TIP3   OH268541   1.033   1.071   3.728 -0.0587 -0.2366  0.1931
15709TIP3    H168542   1.103   1.120   3.769  0.5906 -1.4261  0.5680
15709TIP3    H268543   0.958   1.130   3.729  0.2522  0.1813  2.0332
15710TIP3   OH268544   5.897   1.294  14.339  0.1454 -0.5419 -1.0037
15710TIP3    H168545   5.836   1.336  14.278 -1.1773 -0.5245  0.2942
15710TIP3    H268546   5.895   1.201  14.314 -1.3662 -0.7414 -0.2076
15711TIP3   OH268547   4.909   6.674  13.829 -0.2503 -0.0842  0.3095
15711TIP3    H168548   4.989   6.713  13.794 -1.0205  2.5922  1.2488
15711TIP3    H268549   4.937   6.626  13.907  0.4216  1.4928  1.0847
15712TIP3   OH268550   1.676   3.524  15.879  0.2037 -0.1633  0.5692
15712TIP3    H168551   1.708   3.608  15.846  0.3058 -0.8639 -1.1808
15712TIP3    H268552   1.626   3.547  15.958 -0.4366  1.6204 -0.3115
15713TIP3   OH268553   5.134   3.761   2.325 -0.0536  0.1187 -0.1356
15713TIP3    H168554   5.205   3.775   2.262  0.4463 -0.3770  0.3052
15713TIP3    H268555   5.127   3.843   2.372  2.2625 -0.7137  1.8390
15714TIP3   OH268556   2.347   3.126  13.158 -0.3813 -0.0695  0.2605
15714TIP3    H168557   2.394   3.151  13.079  0.1320  1.3154  0.9655
15714TIP3    H268558   2.257   3.112  13.130 -0.7633  2.7702 -0.2430
15715TIP3   OH268559   4.450   0.847  12.468 -0.0285 -0.5016  0.7057
15715TIP3    H168560   4.527   0.819  12.420 -1.1550 -2.2649 -0.1601
15715TIP3    H268561   4.378   0.793  12.434 -1.7543  1.3369  1.1804
15716TIP3   OH268562   0.707   4.895   0.802 -0.1377  0.4144  0.2030
15716TIP3    H168563   0.625   4.934   0.833  0.7299  1.6633  1.0590
15716TIP3    H268564   0.728   4.945   0.724 -0.1552  0.1491  0.0302
15717TIP3   OH268565   1.388   1.424   3.121 -0.4155  0.7063  0.0860
15717TIP3    H168566   1.469   1.473   3.113 -0.6048  1.1079  0.6126
15717TIP3    H268567   1.328   1.483   3.167 -0.8655  0.2499  0.0959
15718TIP3   OH268568   3.053   3.043  16.585  1.0617 -0.1277  0.4273
15718TIP3    H168569   3.067   2.966  16.530  0.2155 -0.1473  0.2270
15718TIP3    H268570   3.137   3.057  16.628  1.1963 -1.2169  0.5443
15719TIP3   OH268571   4.078   6.577  14.449 -0.0404 -0.6270  0.1898
15719TIP3    H168572   4.087   6.488  14.417  0.3272 -1.1109  1.5710
15719TIP3    H268573   4.135   6.629  14.393  1.2237 -1.5719  0.5606
15720TIP3   OH268574   4.693   4.879   0.814 -0.0378  0.0902 -0.1453
15720TIP3    H168575   4.692   4.945   0.745  0.6763  1.2014  0.8556
15720TIP3    H268576   4.786   4.860   0.828 -0.2369 -1.3174 -0.5669
15721TIP3   OH268577   4.735   5.726   4.877  0.3082 -0.0807 -0.1711
15721TIP3    H168578   4.706   5.646   4.834  1.1064  0.3878 -1.6504
15721TIP3    H268579   4.663   5.788   4.867  0.0908 -0.2883  0.0883
15722TIP3   OH268580   2.785   4.377   1.731 -0.0188 -0.1296 -0.7417
15722TIP3    H168581   2.859   4.362   1.672 -0.1438  0.1659 -0.9799
15722TIP3    H268582   2.821   4.367   1.819  0.4609  0.6804 -0.8349
15723TIP3   OH268583   1.410   5.480   2.727  0.3100  0.2293 -0.2467
15723TIP3    H168584   1.323   5.441   2.721 -0.5156  1.9658 -0.1383
15723TIP3    H268585   1.462   5.416   2.776 -0.8803 -0.8461 -0.3414
15724TIP3   OH268586   5.807   1.591   3.796 -0.4510 -0.3787 -0.5610
15724TIP3    H168587   5.883   1.574   3.852 -0.2884  2.1574  0.1053
15724TIP3    H268588   5.796   1.510   3.747  1.4733 -1.5228  0.7224
15725TIP3   OH268589   5.845   2.307  10.827  0.0021  0.1950  0.1023
15725TIP3    H168590   5.905   2.340  10.760  0.9284  0.3828  0.9973
15725TIP3    H268591   5.861   2.212  10.828 -0.5604  0.0870 -0.4519
15726TIP3   OH268592   4.465   2.248  15.590 -0.0990 -0.5601 -0.5656
15726TIP3    H168593   4.491   2.244  15.498 -0.1233  0.2214 -0.6094
15726TIP3    H268594   4.421   2.164  15.606 -1.1988 -0.2112 -1.6123
15727TIP3   OH268595   6.478   1.657  11.544  0.5304  0.0897  0.0862
15727TIP3    H168596   6.403   1.604  11.519  1.9384 -1.8182 -0.3008
15727TIP3    H268597   6.440   1.740  11.573 -1.6907 -0.7401 -0.2573
15728TIP3   OH268598   1.529   3.645  15.520  0.4822 -0.8931 -0.3929
15728TIP3    H168599   1.594   3.623  15.453 -0.1265 -2.2083 -0.5908
15728TIP3    H268600   1.483   3.563  15.536  0.8003 -0.6748  1.8847
15729TIP3   OH268601   0.119   5.495   2.155 -0.2531  0.3868 -0.0574
15729TIP3    H168602   0.210   5.471   2.136 -0.4420 -1.1517  0.7621
15729TIP3    H268603   0.125   5.571   2.212  0.4919  0.7838 -0.6521
15730TIP3   OH268604   5.431   3.301  16.403  0.6012 -0.1481  0.7744
15730TIP3    H168605   5.452   3.208  16.394 -0.5194 -0.3754  0.3635
15730TIP3    H268606   5.491   3.345  16.342 -1.5537 -0.9838 -2.1814
15731TIP3   OH268607   2.589   2.898  10.983 -0.3690  0.1205 -0.6025
15731TIP3    H168608   2.675   2.862  11.005 -0.4387  0.0295 -0.4782
15731TIP3    H268609   2.597   2.992  11.002 -0.6979 -0.0893  0.6700
15732TIP3   OH268610   3.722   5.822   2.129 -0.5157  0.3886 -0.3463
15732TIP3    H168611   3.756   5.912   2.128 -0.1586  0.2556 -1.3425
15732TIP3    H268612   3.721   5.796   2.037 -3.0950  0.2905 -0.3694
15733TIP3   OH268613   0.731   3.154  16.033  0.1037 -0.2014  0.9025
15733TIP3    H168614   0.654   3.205  16.006  0.6753  0.3964  0.3600
15733TIP3    H268615   0.738   3.084  15.969 -0.1763 -0.4547  1.1442
15734TIP3   OH268616   0.833   3.019   1.188  0.2460  0.3248 -0.2955
15734TIP3    H168617   0.813   3.111   1.206 -2.7094 -0.4202  0.8419
15734TIP3    H268618   0.806   2.973   1.268  2.3765 -1.4821 -0.5443
15735TIP3   OH268619   0.479   5.788   3.963  0.1262  0.1456  0.0487
15735TIP3    H168620   0.570   5.760   3.967 -0.1861 -0.8296  3.0550
15735TIP3    H268621   0.482   5.883   3.977  0.6813  0.1139  0.1330
15736TIP3   OH268622   5.987   0.695   4.382 -0.1233 -0.8910 -0.1438
15736TIP3    H168623   6.082   0.696   4.396 -0.1603  1.8175  0.5555
15736TIP3    H268624   5.965   0.603   4.372  2.8613 -1.4774 -2.5542
15737TIP3   OH268625   1.770   6.149   4.300  0.1872  0.3971 -0.0360
15737TIP3    H168626   1.827   6.180   4.230  0.6095  0.6758  0.4236
15737TIP3    H268627   1.711   6.086   4.258  1.9656 -1.2603 -0.1937
15738TIP3   OH268628   0.291   5.634   2.354 -0.1912  0.0998  0.3628
15738TIP3    H168629   0.351   5.559   2.357 -0.4139 -0.1710 -1.1097
15738TIP3    H268630   0.293   5.670   2.443  2.1385  0.0823  0.3945
15739TIP3   OH268631   0.705   1.094   0.574 -0.4836  0.1953  0.9344
15739TIP3    H168632   0.800   1.095   0.573 -0.3960 -1.5078 -1.2575
15739TIP3    H268633   0.679   1.178   0.535  0.2593 -0.6555 -1.5331
15740TIP3   OH268634   5.660   1.963   0.006  0.3475 -0.2588  0.0546
15740TIP3    H168635   5.671   2.054  -0.023 -1.1780  0.1640  0.7021
15740TIP3    H268636   5.619   1.919  -0.069 -0.7441  0.0882  0.4272
15741TIP3   OH268637   4.721   4.238  11.902  0.0542  0.0776  0.0615
15741TIP3    H168638   4.730   4.145  11.924  1.2596  0.6398  2.2817
15741TIP3    H268639   4.794   4.256  11.843 -0.5779 -0.4908 -0.9295
15742TIP3   OH268640   5.406   6.822  12.354 -0.6951  0.1156 -0.3380
15742TIP3    H168641   5.490   6.864  12.333 -0.4242 -0.3270 -0.1623
15742TIP3    H268642   5.365   6.880  12.418 -0.0402 -0.1967  0.3796
15743TIP3   OH268643   6.586   4.030   5.695  0.4871 -0.2888 -0.9168
15743TIP3    H168644   6.651   3.999   5.758  1.6401  1.3553 -1.2256
15743TIP3    H268645   6.503   3.990   5.723  1.6667 -2.8603 -0.8042
15744TIP3   OH268646   5.587   2.069   1.549 -0.7709 -0.1578  0.3046
15744TIP3    H168647   5.589   2.135   1.618  2.4867 -0.8159  0.9722
15744TIP3    H268648   5.565   2.119   1.469  0.6622  1.6115  0.9388
15745TIP3   OH268649   4.415   6.148  14.068  0.0128 -0.6934 -0.0638
15745TIP3    H168650   4.328   6.142  14.109  0.2887 -1.1757  0.4723
15745TIP3    H268651   4.409   6.223  14.009  0.4333  1.8638  2.8765
15746TIP3   OH268652   2.905   4.467   5.150  0.5762  0.3018 -0.1650
15746TIP3    H168653   2.902   4.444   5.242  2.5594 -1.5020 -0.4826
15746TIP3    H268654   2.814   4.460   5.120 -0.3331  2.3016  1.8963
15747TIP3   OH268655   1.067   0.228   3.512  0.0803 -0.1956  0.1587
15747TIP3    H168656   1.116   0.159   3.557  0.5889 -0.2260 -0.4283
15747TIP3    H268657   1.134   0.282   3.470 -0.2670  1.0893  1.1948
15748TIP3   OH268658   2.817   1.052   0.106 -0.0879  0.1069  0.1861
15748TIP3    H168659   2.754   1.072   0.175  1.1757 -1.3963  1.8640
15748TIP3    H268660   2.902   1.072   0.144  0.6082 -0.1195 -1.1793
15749TIP3   OH268661   5.479   4.415  15.835  0.6302 -0.3665  0.2693
15749TIP3    H168662   5.518   4.502  15.819  0.2618 -0.2691 -0.1055
15749TIP3    H268663   5.449   4.387  15.749 -0.4263 -0.3019  0.6096
15750TIP3   OH268664   0.357   0.437   0.105 -0.8121 -0.2290  0.0599
15750TIP3    H168665   0.381   0.451   0.197  0.5949  1.4313 -0.4958
15750TIP3    H268666   0.423   0.376   0.072 -1.2305 -0.7108  0.1042
15751TIP3   OH268667   3.255   1.611   1.140 -0.5402 -0.0290  0.1613
15751TIP3    H168668   3.338   1.651   1.112 -0.2560 -0.9058 -0.2835
15751TIP3    H268669   3.255   1.619   1.235  0.8594 -1.5242  0.3266
15752TIP3   OH268670   1.405   3.431  11.882 -0.0859 -0.1642 -0.7620
15752TIP3    H168671   1.400   3.428  11.977 -3.1653 -1.8414 -0.8543
15752TIP3    H268672   1.469   3.364  11.859  1.7020  1.1708  0.0839
15753TIP3   OH268673   1.024   6.745  14.692 -0.4995 -0.4585 -0.2322
15753TIP3    H168674   1.064   6.662  14.665  0.2575 -0.2267  0.1503
15753TIP3    H268675   1.015   6.795  14.611 -1.4302 -1.1073 -0.5386
15754TIP3   OH268676   3.067   1.718  10.261  0.1389  0.1301  0.2545
15754TIP3    H168677   3.121   1.673  10.196  0.2920  0.1595  0.3611
15754TIP3    H268678   3.092   1.810  10.253  0.0117  0.1604  0.2147
15755TIP3   OH268679   3.368   5.012   3.020 -0.0146 -0.1761  0.0485
15755TIP3    H168680   3.418   4.956   3.079  0.8563  2.1591  1.6674
15755TIP3    H268681   3.429   5.033   2.949 -0.1247 -0.7468 -0.2151
15756TIP3   OH268682   1.999   2.314  14.844 -0.1757 -0.0266 -0.0208
15756TIP3    H168683   1.915   2.333  14.884  0.0267  0.2422  0.2847
15756TIP3    H268684   2.028   2.398  14.808 -1.1621 -0.5808 -2.3147
15757TIP3   OH268685   2.627   4.544   3.346  0.1145 -0.2965 -0.7006
15757TIP3    H168686   2.639   4.604   3.420 -0.2954 -0.9748 -0.0672
15757TIP3    H268687   2.593   4.599   3.276  0.2260  0.3062 -0.2888
15758TIP3   OH268688   2.808   2.030  11.182  0.2994 -0.4844 -0.7353
15758TIP3    H168689   2.808   2.083  11.102  1.0069 -0.4936 -0.7482
15758TIP3    H268690   2.877   2.068  11.237 -0.6809 -0.0130  0.2007
15759TIP3   OH268691   4.986   0.885   5.179 -0.2741 -0.1235 -0.3814
15759TIP3    H168692   4.902   0.901   5.221 -1.3178 -0.5685 -2.2039
15759TIP3    H268693   5.051   0.908   5.245 -1.8153  0.5193  0.9602
15760TIP3   OH268694   3.015   1.795   5.990  0.3397  0.0241  0.7260
15760TIP3    H168695   2.931   1.813   6.032 -0.8206 -1.0828 -1.0006
15760TIP3    H268696   3.001   1.815   5.898  2.0525  0.0045  0.4193
15761TIP3   OH268697   4.764   3.337  12.810  0.0013 -0.2988  0.2090
15761TIP3    H168698   4.790   3.250  12.780 -1.6177 -0.5063 -0.7129
15761TIP3    H268699   4.817   3.397  12.757 -0.6828 -0.7114 -0.9929
15762TIP3   OH268700   1.501   5.011   3.784  0.3336 -0.1833  0.1018
15762TIP3    H168701   1.531   5.096   3.817  0.2200 -0.1412  0.0947
15762TIP3    H268702   1.568   4.987   3.720  0.9489 -0.6052  0.8775
15763TIP3   OH268703   5.114   0.175   1.873 -0.0569 -0.0302  0.0974
15763TIP3    H168704   5.179   0.110   1.901 -0.6720 -0.6852  0.0262
15763TIP3    H268705   5.046   0.172   1.940 -0.5194 -0.0981 -0.3672
15764TIP3   OH268706   6.600   2.813   4.511  0.2554 -0.1086 -0.4972
15764TIP3    H168707   6.525   2.872   4.500  1.0060  1.2030  0.9569
15764TIP3    H268708   6.580   2.764   4.590  0.3211 -0.7319 -0.8661
15765TIP3   OH268709   5.591   1.521   4.540 -0.0458  0.0594 -0.7557
15765TIP3    H168710   5.681   1.489   4.537  0.2449  0.9082 -1.5107
15765TIP3    H268711   5.589   1.593   4.477 -0.8756  1.0285  0.3515
15766TIP3   OH268712   3.673   5.746   0.294  0.9901 -0.0715  0.0876
15766TIP3    H168713   3.670   5.816   0.229  1.6217  0.0429  0.1760
15766TIP3    H268714   3.762   5.712   0.289  0.8001 -0.6173  0.3145
15767TIP3   OH268715   2.927   0.050  13.089  0.4231 -0.3999 -0.5234
15767TIP3    H168716   2.987   0.085  13.155  0.3329 -0.5311 -0.3720
15767TIP3    H268717   2.916  -0.042  13.113  0.8405 -0.5911 -1.0594
15768TIP3   OH268718   4.057   5.288  11.077 -0.0826 -1.2608  0.3428
15768TIP3    H168719   4.017   5.326  11.155 -2.7452 -1.7423 -0.6925
15768TIP3    H268720   4.095   5.205  11.108  1.6592 -0.0455  1.6737
15769TIP3   OH268721   4.176   0.793  13.936 -0.2528  0.5220 -0.0520
15769TIP3    H168722   4.133   0.769  14.018 -0.0555  0.5952  0.0740
15769TIP3    H268723   4.269   0.780  13.954 -0.2861 -0.7612 -0.6865
15770TIP3   OH268724   4.312   2.736  13.174 -0.3150  0.1899 -0.2010
15770TIP3    H168725   4.322   2.701  13.085 -0.2571 -2.8371  0.9036
15770TIP3    H268726   4.401   2.765  13.198 -0.0106 -0.4361 -0.5612
15771TIP3   OH268727   6.190   0.365   3.938  0.0955  0.4067  0.5296
15771TIP3    H168728   6.199   0.271   3.920  0.1547  0.5200 -0.0503
15771TIP3    H268729   6.279   0.398   3.944  0.0801  0.5729 -0.0806
15772TIP3   OH268730   5.363   0.789  11.795 -0.5133 -0.0943 -0.2061
15772TIP3    H168731   5.384   0.873  11.837  0.5841 -0.2637 -0.3780
15772TIP3    H268732   5.308   0.814  11.720 -0.5693  0.4268 -0.0002
15773TIP3   OH268733   0.701   4.022  13.591 -0.3969 -0.2749 -0.0859
15773TIP3    H168734   0.652   4.056  13.516 -0.0317  0.3962 -0.0215
15773TIP3    H268735   0.733   3.936  13.562  1.1339  0.6603 -1.3058
15774TIP3   OH268736   2.522   5.498   0.131  0.0679 -0.1049 -0.1779
15774TIP3    H168737   2.551   5.409   0.155  2.5558  0.5723 -0.3319
15774TIP3    H268738   2.544   5.552   0.207 -0.9250  0.4738 -0.2966
15775TIP3   OH268739   6.264   2.116   4.146  0.8252  0.6300  0.2019
15775TIP3    H168740   6.188   2.058   4.154  1.1325  0.2408  0.3303
15775TIP3    H268741   6.258   2.153   4.058 -0.5990  2.1287  0.8799
15776TIP3   OH268742   3.059   2.777  13.606 -0.1579  0.1102 -0.2857
15776TIP3    H168743   3.135   2.835  13.599  0.4562 -0.4848  1.1486
15776TIP3    H268744   3.093   2.698  13.648 -0.6706 -1.8620 -3.2500
15777TIP3   OH268745   5.171   0.545   2.343 -0.1641 -0.3315 -0.2011
15777TIP3    H168746   5.226   0.470   2.368 -0.5677 -1.7343 -3.1136
15777TIP3    H268747   5.233   0.613   2.319  0.2170 -0.2708  0.8862
15778TIP3   OH268748   5.397   3.763  11.013  0.2753 -0.9837  0.3825
15778TIP3    H168749   5.416   3.681  11.058  0.0826 -1.9148 -1.1589
15778TIP3    H268750   5.340   3.811  11.073 -2.3258 -3.3790  0.0437
15779TIP3   OH268751   3.993   3.140  15.935 -0.2195 -0.4665  0.1750
15779TIP3    H168752   3.968   3.066  15.990  1.3608 -0.9870  0.2532
15779TIP3    H268753   4.072   3.175  15.978  0.3879 -0.1776 -1.1278
15780TIP3   OH268754   1.302   1.679  16.426 -0.2085 -0.5519 -0.0535
15780TIP3    H168755   1.360   1.669  16.501 -1.2674 -0.0837  0.8431
15780TIP3    H268756   1.358   1.715  16.357  0.5375  0.0133  0.8256
15781TIP3   OH268757   2.908   4.588  10.703 -0.6347  0.7426 -0.0885
15781TIP3    H168758   2.918   4.493  10.714 -0.9046  0.8581  1.3634
15781TIP3    H268759   2.970   4.626  10.764 -2.0023  1.4821  0.9076
15782TIP3   OH268760   2.779   1.329   3.463 -0.3026 -0.1130  0.1677
15782TIP3    H168761   2.795   1.235   3.477 -0.2235  0.0432  1.1909
15782TIP3    H268762   2.818   1.371   3.540  0.2123  0.8146 -0.5826
15783TIP3   OH268763   5.228   2.645   1.114  0.0585  0.7497  0.0619
15783TIP3    H168764   5.206   2.723   1.166 -0.2946  1.2596 -0.8261
15783TIP3    H268765   5.311   2.667   1.072 -0.1924  0.7793 -0.4283
15784TIP3   OH268766   3.342   6.408  13.651 -0.3847 -0.0210 -0.3992
15784TIP3    H168767   3.412   6.374  13.595 -0.0112  0.2015 -0.0706
15784TIP3    H268768   3.305   6.331  13.693  1.0762  0.0339  1.0680
15785TIP3   OH268769   0.988   5.029   0.302 -0.6213  0.4918  0.0644
15785TIP3    H168770   0.935   4.988   0.370  0.2705 -1.0792 -0.1522
15785TIP3    H268771   1.020   4.957   0.249 -0.3270  1.6068 -1.3356
15786TIP3   OH268772   1.451   5.952  14.488 -0.4954  0.0295 -0.3440
15786TIP3    H168773   1.518   5.931  14.553 -1.3546  0.6014  0.7552
15786TIP3    H268774   1.458   6.046  14.476 -0.6211 -0.0163 -0.7775
15787TIP3   OH268775   6.244   1.473  11.526  0.1787 -0.5563 -0.4796
15787TIP3    H168776   6.163   1.507  11.489  1.0581  0.5889 -1.4407
15787TIP3    H268777   6.236   1.378  11.519 -1.1824 -0.4807 -0.2851
15788TIP3   OH268778   4.550   6.104  16.360 -0.3550 -0.4685  0.0392
15788TIP3    H168779   4.564   6.044  16.434 -1.1350 -0.1962  0.4094
15788TIP3    H268780   4.579   6.054  16.284  1.4738 -0.3824  0.6192
15789TIP3   OH268781   5.086   2.966   4.625 -0.2899 -0.0144 -0.1737
15789TIP3    H168782   5.058   3.005   4.708 -0.4891  1.8057 -1.0403
15789TIP3    H268783   5.181   2.963   4.631 -0.3640 -1.9806  0.9622
15790TIP3   OH268784   1.162   5.244  11.165  0.5416  0.3765 -0.6805
15790TIP3    H168785   1.108   5.263  11.242  0.3456 -0.4539 -0.5967
15790TIP3    H268786   1.247   5.282  11.186  1.3815 -2.2521  1.2637
15791TIP3   OH268787   6.747   5.059  11.445  0.6441  0.0044 -0.2032
15791TIP3    H168788   6.681   5.120  11.411 -0.1364 -0.9713 -0.4819
15791TIP3    H268789   6.703   4.974  11.444  1.7454 -0.5773  0.1022
15792TIP3   OH268790   3.196   0.065   4.441 -0.9392 -0.0815 -0.8511
15792TIP3    H168791   3.186   0.018   4.524 -2.0478  0.7886 -0.4735
15792TIP3    H268792   3.107   0.088   4.415 -0.5645  0.1223 -2.0285
15793TIP3   OH268793   5.819   0.718   1.134 -0.6853 -0.6185 -0.7135
15793TIP3    H168794   5.769   0.738   1.055 -1.3416 -0.3437 -0.2411
15793TIP3    H268795   5.908   0.746   1.114 -0.1599 -3.2144 -2.4111
15794TIP3   OH268796   6.073   2.929   3.386  0.0787  0.1236  0.0775
15794TIP3    H168797   5.991   2.932   3.338  1.3181  1.2865 -2.1071
15794TIP3    H268798   6.091   3.020   3.409  0.3997 -0.2098  1.2628
15795TIP3   OH268799   4.497   5.776  12.583  0.3036  0.1624 -0.2458
15795TIP3    H168800   4.402   5.785  12.586  0.0682 -1.8006 -0.8082
15795TIP3    H268801   4.525   5.800  12.672 -0.6309  1.3725 -0.2535
15796TIP3   OH268802   0.943   0.582  11.268  0.0412 -0.7010  0.0240
15796TIP3    H168803   0.925   0.497  11.308 -0.0661 -0.8847 -0.4201
15796TIP3    H268804   0.967   0.562  11.178  2.3816 -0.4875  0.5224
15797TIP3   OH268805   4.238   5.449  15.387  0.4274 -0.0886 -0.7589
15797TIP3    H168806   4.238   5.357  15.361  1.1166 -0.2895 -0.0647
15797TIP3    H268807   4.328   5.477  15.373  0.4582  0.2012  0.0124
15798TIP3   OH268808   3.998   5.609  13.689  0.0058 -0.2681  0.2019
15798TIP3    H168809   3.957   5.640  13.770  0.6727 -0.7721  0.7470
15798TIP3    H268810   3.973   5.674  13.624 -0.7282  0.0315  0.7585
15799TIP3   OH268811   0.421   5.141  13.679 -0.0682  0.0914  0.6187
15799TIP3    H168812   0.508   5.102  13.689 -0.0413  0.2321  0.9546
15799TIP3    H268813   0.416   5.206  13.749 -0.5658 -0.1339  0.7976
15800TIP3   OH268814   5.240   5.303   1.559 -1.1037 -0.0079 -0.3146
15800TIP3    H168815   5.306   5.249   1.603 -0.3308  1.2142  0.0478
15800TIP3    H268816   5.277   5.390   1.556 -1.8526  0.2940 -1.9374
15801TIP3   OH268817   6.656   0.986  10.409  0.2354  1.2548 -0.2980
15801TIP3    H168818   6.637   0.892  10.415  1.1023  1.0636 -0.4670
15801TIP3    H268819   6.571   1.026  10.388  0.1961  0.2810 -2.2614
15802TIP3   OH268820   4.028   6.887   2.019 -0.4355 -0.4935 -0.0328
15802TIP3    H168821   3.942   6.869   2.056 -0.8436  0.4999 -0.4646
15802TIP3    H268822   4.082   6.911   2.094 -0.6201 -0.8000  0.2012
15803TIP3   OH268823   4.845   1.051  16.527  0.5699  0.4392 -0.3844
15803TIP3    H168824   4.795   1.010  16.456 -1.2814 -0.8773  1.5753
15803TIP3    H268825   4.928   1.003  16.529  1.0197  1.0626 -2.1450
15804TIP3   OH268826   4.274   2.680  13.500 -0.2574  0.2095  0.4145
15804TIP3    H168827   4.185   2.704  13.523 -0.3916  0.2172 -0.1070
15804TIP3    H268828   4.274   2.675  13.405  0.2333 -0.0470  0.4246
15805TIP3   OH268829   2.239   2.513  15.005 -0.0785  0.1800 -0.3598
15805TIP3    H168830   2.168   2.568  14.972 -1.7336 -0.8968  1.2155
15805TIP3    H268831   2.281   2.478  14.927 -1.4789  0.6086 -1.3411
15806TIP3   OH268832   6.728   6.625  15.459 -0.1793 -0.3285  0.0568
15806TIP3    H168833   6.737   6.602  15.552  1.1080  1.6998  0.4964
15806TIP3    H268834   6.806   6.677  15.439  0.3244 -1.9044 -2.5944
15807TIP3   OH268835   1.121   0.101   2.413 -0.5090 -0.2061  0.0815
15807TIP3    H168836   1.034   0.073   2.385  0.1382 -2.8287  0.4910
15807TIP3    H268837   1.171   0.111   2.332 -1.0523  0.9618 -0.1320
15808TIP3   OH268838   4.902   0.690  16.696  0.5516  0.0838  0.1025
15808TIP3    H168839   4.972   0.686  16.762  1.4788  0.8552 -0.7906
15808TIP3    H268840   4.948   0.686  16.612 -0.4704  0.7378 -0.5092
15809TIP3   OH268841   4.699   5.191  11.675 -0.0656 -0.0908 -0.2470
15809TIP3    H168842   4.662   5.118  11.626  0.1069 -0.1967 -0.2201
15809TIP3    H268843   4.719   5.154  11.761 -2.4837  0.6256  0.7160
15810TIP3   OH268844   3.257   6.569  16.167  0.2799 -0.6119 -0.1150
15810TIP3    H168845   3.352   6.582  16.166  0.0667  1.1162 -0.9774
15810TIP3    H268846   3.242   6.513  16.243  1.8507  0.2738  0.9083
15811TIP3   OH268847   3.914   3.081  13.282 -0.5770  0.3568  0.0766
15811TIP3    H168848   3.953   3.080  13.195 -2.4399  3.4945 -0.9680
15811TIP3    H268849   3.903   3.174  13.303 -1.3480 -0.2931  3.1551
15812TIP3   OH268850   3.062   4.671  13.904 -0.5685  0.4963  0.8778
15812TIP3    H168851   2.982   4.654  13.953  0.3558 -0.8804  1.9746
15812TIP3    H268852   3.127   4.614  13.943  0.4965  0.1349 -1.2559
15813TIP3   OH268853   6.712   2.578  15.881  0.3792  0.0421  0.2982
15813TIP3    H168854   6.672   2.491  15.874  2.1492 -0.6952 -2.6962
15813TIP3    H268855   6.806   2.560  15.888  1.0003  1.5852 -2.4716
15814TIP3   OH268856   5.651   3.537  13.903  0.4423  0.4125  0.1991
15814TIP3    H168857   5.711   3.494  13.964  1.1405 -2.8092 -2.4400
15814TIP3    H268858   5.643   3.475  13.830 -0.5862  3.7669 -2.8408
15815TIP3   OH268859   3.900   6.204  14.171 -0.0892  0.4308  0.1703
15815TIP3    H168860   3.859   6.151  14.103 -1.0480  0.2736  0.8424
15815TIP3    H268861   3.994   6.188  14.161 -0.1913  0.5917 -1.2462
15816TIP3   OH268862   4.239   4.692  15.634  0.0327  0.0340  0.0938
15816TIP3    H168863   4.321   4.727  15.668 -0.5583  3.0689 -1.3442
15816TIP3    H268864   4.179   4.695  15.708  0.2816  1.1875  0.2629
15817TIP3   OH268865   3.687   4.015   2.100  0.5575  0.0459 -0.1861
15817TIP3    H168866   3.718   4.012   2.190  0.1162  0.0953 -0.0258
15817TIP3    H268867   3.609   3.959   2.101  1.0435 -0.6611 -0.7414
15818TIP3   OH268868   1.885   1.370   2.268  0.3953 -0.3644 -0.1562
15818TIP3    H168869   1.964   1.374   2.322  1.8074  3.7375 -2.0808
15818TIP3    H268870   1.914   1.334   2.185 -0.5453 -1.7160  0.0702
15819TIP3   OH268871   4.877   2.291   0.952  0.3828 -0.3556 -0.0215
15819TIP3    H168872   4.898   2.240   0.874 -0.6781  0.8911 -1.1517
15819TIP3    H268873   4.939   2.260   1.018  2.1566 -0.5383 -1.7080
15820TIP3   OH268874   0.486   6.662   0.461  0.0642  0.2307 -0.1109
15820TIP3    H168875   0.486   6.735   0.523  1.0196 -0.2786  0.5238
15820TIP3    H268876   0.573   6.623   0.471 -0.1514 -0.5057 -1.0196
15821TIP3   OH268877   3.065   6.434  10.983  0.8806  0.4452  0.5652
15821TIP3    H168878   3.114   6.366  10.938  1.0287  0.2858  0.9648
15821TIP3    H268879   2.976   6.400  10.990  1.2540 -0.3251  1.9989
15822TIP3   OH268880   2.602   5.457   3.591 -0.1124  0.4714  0.2479
15822TIP3    H168881   2.598   5.366   3.620 -0.2633 -0.1755 -1.6817
15822TIP3    H268882   2.532   5.500   3.640 -0.7651 -0.6928  0.3788
15823TIP3   OH268883   6.378   1.076   6.130  0.3651  0.0235 -0.1331
15823TIP3    H168884   6.379   1.158   6.079 -1.7442  0.3992  0.3343
15823TIP3    H268885   6.396   1.104   6.220  0.4472 -0.1567 -0.0936
15824TIP3   OH268886   2.003   3.651   2.445 -0.0821  0.1228 -0.0798
15824TIP3    H168887   2.057   3.583   2.405  1.0907  0.7536  0.4160
15824TIP3    H268888   1.994   3.718   2.378  0.8284  0.6026  0.2722
15825TIP3   OH268889   3.848   0.426   4.524 -0.2461  0.4926 -0.5448
15825TIP3    H168890   3.758   0.419   4.553 -0.3693 -0.2975 -1.0771
15825TIP3    H268891   3.890   0.483   4.588 -1.2874  1.4593 -0.6950
15826TIP3   OH268892   6.695   1.235   1.500 -0.5061 -0.3331  0.3634
15826TIP3    H168893   6.703   1.281   1.583  2.5764 -0.4962  0.2722
15826TIP3    H268894   6.783   1.201   1.483 -1.5618 -2.2196 -1.8874
15827TIP3   OH268895   1.373   1.850   0.414  0.2961 -0.4169 -0.1630
15827TIP3    H168896   1.401   1.789   0.483  1.6725 -0.1718 -0.4580
15827TIP3    H268897   1.310   1.908   0.456  0.8379 -0.5074  0.8026
15828TIP3   OH268898   0.993   1.515  13.233 -0.0770  0.4980 -1.1884
15828TIP3    H168899   0.955   1.500  13.319  1.6544 -0.7475 -0.5925
15828TIP3    H268900   0.922   1.495  13.171 -0.8800 -0.1186 -0.0949
15829TIP3   OH268901   6.474   3.100  14.326 -0.1513 -0.6211  0.6194
15829TIP3    H168902   6.562   3.092  14.362  0.1228  0.6506  0.2766
15829TIP3    H268903   6.454   3.193  14.331 -0.3585 -0.4663 -1.8882
15830TIP3   OH268904   2.356   2.149   0.479  0.4619 -0.6404 -0.1264
15830TIP3    H168905   2.337   2.063   0.441  2.0136 -0.9765 -0.2403
15830TIP3    H268906   2.348   2.210   0.406 -1.6390 -0.5067  0.1701
15831TIP3   OH268907   0.053   0.068   5.293 -0.3203 -0.2789 -0.0886
15831TIP3    H168908   0.016   0.136   5.237  0.1091  0.4660  0.5245
15831TIP3    H268909  -0.011  -0.004   5.288 -0.3990 -0.1493 -1.3518
15832TIP3   OH268910   2.478   2.606   2.639  0.5978 -0.2033  0.1360
15832TIP3    H168911   2.402   2.660   2.658  0.2591 -0.4608 -0.4493
15832TIP3    H268912   2.460   2.521   2.679  1.2713  0.1976  1.3316
15833TIP3   OH268913   0.124   3.532   4.128 -0.1587  0.0677 -0.3321
15833TIP3    H168914   0.051   3.593   4.128 -1.3037 -1.2519 -1.2606
15833TIP3    H268915   0.100   3.466   4.193 -0.7439 -1.4131 -1.9926
15834TIP3   OH268916   1.150   1.394  12.870  0.4372 -0.7028  0.3296
15834TIP3    H168917   1.125   1.484  12.847  1.5046 -0.2107  0.9961
15834TIP3    H268918   1.239   1.403  12.905  2.4346 -2.5588 -3.6333
15835TIP3   OH268919   1.957   1.517  13.569 -0.4637 -0.0548 -0.2827
15835TIP3    H168920   1.908   1.598  13.558 -0.4783 -0.1070 -0.6113
15835TIP3    H268921   1.920   1.477  13.649 -1.0252 -0.1393 -0.5782
15836TIP3   OH268922   6.538   0.037   2.042  0.2633 -0.0062  0.1885
15836TIP3    H168923   6.459   0.056   2.092  0.3010 -1.9487  1.0645
15836TIP3    H268924   6.522  -0.048   2.002  1.0269  0.6068 -1.5559
15837TIP3   OH268925   3.039   4.488  14.272 -0.5738 -0.3045 -0.5897
15837TIP3    H168926   3.068   4.572  14.238  2.1209 -1.3318 -1.0817
15837TIP3    H268927   3.092   4.474  14.351 -1.0454 -1.4700 -0.4551
15838TIP3   OH268928   5.715   5.871  15.985 -0.2835  0.2529  0.3648
15838TIP3    H168929   5.788   5.874  16.046 -1.4106  1.6133  1.7243
15838TIP3    H268930   5.743   5.925  15.911 -0.0859  1.1623  1.0914
15839TIP3   OH268931   5.391   4.584  16.460 -0.4032  0.2906 -0.2470
15839TIP3    H168932   5.328   4.513  16.476 -2.3938  0.7310 -4.8202
15839TIP3    H268933   5.458   4.544  16.405  0.6331  1.0543  0.4390
15840TIP3   OH268934   5.571   2.002   0.799  0.2335  0.6600  0.3794
15840TIP3    H168935   5.634   2.003   0.871  1.1395  2.3523 -0.3709
15840TIP3    H268936   5.626   2.000   0.720 -0.7206 -0.1697 -0.2849
15841TIP3   OH268937   5.118   5.532  15.955  0.0318 -0.1842  0.8383
15841TIP3    H168938   5.048   5.565  16.012  0.9782 -0.7681  2.4071
15841TIP3    H268939   5.123   5.438  15.976  0.5897 -0.3546 -0.0154
15842TIP3   OH268940   4.995   6.148   5.712 -0.0514  0.0765 -0.6143
15842TIP3    H168941   5.083   6.186   5.720 -0.0489  0.4575 -2.0848
15842TIP3    H268942   4.936   6.222   5.729 -0.1276 -0.2712  0.7928
15843TIP3   OH268943   5.991   4.660   2.343  0.3195 -0.5618 -0.5067
15843TIP3    H168944   6.022   4.575   2.373 -1.9374 -1.1177  0.4216
15843TIP3    H268945   5.899   4.663   2.369  0.7352  2.8955  1.2104
15844TIP3   OH268946   0.021   6.607  14.670 -0.5309  0.1798 -0.0192
15844TIP3    H168947  -0.069   6.631  14.689 -0.2976  0.4624  0.7911
15844TIP3    H268948   0.028   6.609  14.575 -1.4511 -0.1286 -0.0988
15845TIP3   OH268949   5.067   1.119  13.136 -0.0040 -0.0541  0.1271
15845TIP3    H168950   5.079   1.137  13.043 -1.3175  0.8775  0.1001
15845TIP3    H268951   5.155   1.104  13.169  0.4858 -0.3835 -1.2592
15846TIP3   OH268952   1.092   6.132  11.985  0.3146  0.0357  0.2287
15846TIP3    H168953   1.001   6.102  11.977  0.9706 -2.0565 -0.1544
15846TIP3    H268954   1.115   6.111  12.076  0.1814  1.3477  0.5788
15847TIP3   OH268955   6.880   1.662  13.423 -0.1516  0.0466  0.2563
15847TIP3    H168956   6.834   1.637  13.503  0.4214 -0.0703  0.5538
15847TIP3    H268957   6.817   1.646  13.353 -0.3410 -0.7423  0.5934
15848TIP3   OH268958   6.753   4.872   5.885  0.2054  0.1086 -0.0372
15848TIP3    H168959   6.809   4.799   5.909 -0.0987  0.2835  1.3166
15848TIP3    H268960   6.729   4.912   5.969 -0.5169  1.0910 -0.6877
15849TIP3   OH268961   1.289   1.147   0.868  0.2046  0.3887 -0.1552
15849TIP3    H168962   1.352   1.188   0.928  0.4778 -1.7600  1.1052
15849TIP3    H268963   1.220   1.214   0.858  0.7400  1.2841  1.6048
15850TIP3   OH268964   1.132   3.608  12.155  0.0620  0.4589  0.1750
15850TIP3    H168965   1.112   3.587  12.246 -1.1061  2.2353  0.3895
15850TIP3    H268966   1.199   3.545  12.129 -0.5170 -0.9041  1.8532
15851TIP3   OH268967   6.486   5.854  10.942  0.1304 -0.2126 -0.0191
15851TIP3    H168968   6.557   5.791  10.957  1.5550  1.5040  0.7453
15851TIP3    H268969   6.500   5.884  10.852 -0.8241 -1.2591 -0.5463
15852TIP3   OH268970   2.284   0.488  14.371 -0.1169 -0.4089  0.3992
15852TIP3    H168971   2.225   0.413  14.370 -0.5250 -0.2300 -3.2046
15852TIP3    H268972   2.357   0.461  14.315  1.0180  0.9756  1.1600
15853TIP3   OH268973   4.018   1.651  10.681 -0.0811 -0.6538 -0.7258
15853TIP3    H168974   4.087   1.695  10.631  0.0887  0.9705  0.8547
15853TIP3    H268975   3.937   1.678  10.638  0.1803 -1.7829 -1.9909
15854TIP3   OH268976   5.295   1.029   5.428 -0.0815 -0.4699  0.1201
15854TIP3    H168977   5.365   0.976   5.391  2.2427  2.5358 -0.2025
15854TIP3    H268978   5.331   1.064   5.510 -1.7588  0.0109  0.6951
15855TIP3   OH268979   1.225   3.767  15.007 -0.5438 -0.5618 -0.0794
15855TIP3    H168980   1.253   3.851  15.044  2.6369 -1.0956 -0.9560
15855TIP3    H268981   1.253   3.771  14.915  0.4064 -2.8097  0.0411
15856TIP3   OH268982   6.792   2.326   5.306  0.1881  0.2421 -0.0827
15856TIP3    H168983   6.768   2.294   5.393 -0.3138 -4.0414 -1.5937
15856TIP3    H268984   6.717   2.304   5.250  2.1362 -1.0915 -2.3731
15857TIP3   OH268985   4.750   5.123  11.967  0.2193 -0.1134  0.2242
15857TIP3    H168986   4.799   5.151  12.044  0.8207  0.1592 -0.2433
15857TIP3    H268987   4.662   5.156  11.981 -0.1776 -1.6726  1.6622
15858TIP3   OH268988   5.451   5.643   0.048  0.6540 -0.6841  0.3406
15858TIP3    H168989   5.378   5.621  -0.010 -1.5653  3.8754  0.9505
15858TIP3    H268990   5.520   5.673  -0.010 -0.1819  0.3865 -0.1322
15859TIP3   OH268991   3.960   1.323   0.344  0.0038 -0.1984 -0.0105
15859TIP3    H168992   3.934   1.255   0.406 -0.3677 -0.6782 -0.6703
15859TIP3    H268993   4.051   1.302   0.321  0.2329  0.1441  0.5775
15860TIP3   OH268994   0.110   2.633  11.597 -0.1220 -0.1499  0.3245
15860TIP3    H168995   0.085   2.664  11.684 -2.2343  2.1200 -0.9649
15860TIP3    H268996   0.076   2.543  11.594 -0.8150  0.0390  1.5500
15861TIP3   OH268997   0.413   5.197  13.960 -0.4305 -0.3116  0.2010
15861TIP3    H168998   0.335   5.142  13.958  0.6786 -1.9808 -1.8008
15861TIP3    H268999   0.485   5.135  13.976  0.5677  1.1395  1.7209
15862TIP3   OH269000   3.969   4.242  12.775 -0.2181 -0.1374  0.4085
15862TIP3    H169001   3.951   4.151  12.801  1.1563 -1.1395 -1.8752
15862TIP3    H269002   3.900   4.293  12.817  1.4177 -1.5222  5.5493
15863TIP3   OH269003   6.752   4.598  15.877 -0.1572  0.2254  0.7534
15863TIP3    H169004   6.666   4.558  15.889  1.6712 -3.3959  4.3081
15863TIP3    H269005   6.761   4.611  15.783 -3.8091 -0.9869  0.1107
15864TIP3   OH269006   5.669   0.288   0.430 -0.1261 -0.3273 -0.0491
15864TIP3    H169007   5.714   0.372   0.437  0.2818 -0.5600  0.1687
15864TIP3    H269008   5.578   0.307   0.455 -0.0447  0.0534 -0.0377
15865TIP3   OH269009   3.539   4.564   2.904 -0.2414  0.1275  0.2671
15865TIP3    H169010   3.505   4.565   2.815 -0.5565 -0.1691  0.3811
15865TIP3    H269011   3.580   4.649   2.915 -1.4503  0.7230  0.3121
15866TIP3   OH269012   2.729   3.736  12.210 -0.2262 -0.7949 -0.4811
15866TIP3    H169013   2.719   3.678  12.135 -0.2345 -0.2215 -0.9373
15866TIP3    H269014   2.790   3.804  12.180 -1.0126  0.0076 -0.3258
15867TIP3   OH269015   0.052   4.089  14.596  0.7899 -0.4478 -0.2161
15867TIP3    H169016  -0.004   4.055  14.526 -0.3643  1.0325 -0.0738
15867TIP3    H269017   0.141   4.065  14.569  0.2479 -1.2097 -1.4219
15868TIP3   OH269018   5.729   2.741  13.825 -0.1218  0.2025 -0.2447
15868TIP3    H169019   5.644   2.717  13.862  0.5537  0.8673  1.8688
15868TIP3    H269020   5.793   2.688  13.872  0.9937  2.8468  1.4715
15869TIP3   OH269021   6.541   4.082   5.046 -0.9212 -0.3327 -0.2590
15869TIP3    H169022   6.566   4.134   4.970 -1.0882 -0.0600 -0.1277
15869TIP3    H269023   6.604   4.106   5.114 -0.2477 -1.1991 -0.5574
15870TIP3   OH269024   2.573   3.453  10.470 -0.4894  0.1942 -0.2188
15870TIP3    H169025   2.666   3.434  10.484 -0.3149  0.4007 -0.9964
15870TIP3    H269026   2.527   3.379  10.508 -0.1129  0.9479  1.8160
15871TIP3   OH269027   1.140   5.653   3.157  0.7628 -0.0286 -0.2189
15871TIP3    H169028   1.049   5.682   3.169  0.8136  0.5192 -1.0885
15871TIP3    H269029   1.170   5.700   3.079  1.5096 -0.8958 -0.4662
15872TIP3   OH269030   1.666   2.815  14.084 -0.0837  0.0316 -0.0802
15872TIP3    H169031   1.739   2.781  14.136 -0.2593  0.8346  0.7056
15872TIP3    H269032   1.708   2.871  14.018 -0.0104  0.8763  0.6704
15873TIP3   OH269033   4.359   1.532   0.711 -0.1035 -0.7478  0.3984
15873TIP3    H169034   4.395   1.558   0.626  0.6087 -2.0427  0.2696
15873TIP3    H269035   4.285   1.476   0.688  0.7534 -1.9977  0.5898
15874TIP3   OH269036   6.733   4.116   1.979  0.0265 -0.4634  0.5310
15874TIP3    H169037   6.803   4.103   1.915  0.1996  3.2976 -0.2748
15874TIP3    H269038   6.778   4.145   2.058 -0.4728 -0.9186  0.9919
15875TIP3   OH269039   1.481   3.728  16.316  0.2457 -0.1176 -0.1261
15875TIP3    H169040   1.554   3.787  16.336 -0.8183  0.6987  1.5632
15875TIP3    H269041   1.457   3.691  16.401  0.2166 -2.2437 -1.0073
15876TIP3   OH269042   4.662   2.032  16.017 -0.3005 -0.0601 -0.4460
15876TIP3    H169043   4.636   2.093  15.948 -0.2335  0.1541 -0.2843
15876TIP3    H269044   4.582   2.014  16.066  0.1103  1.8992  1.0855
15877TIP3   OH269045   1.310   0.731   2.464 -0.1976 -0.9785  0.5180
15877TIP3    H169046   1.376   0.691   2.407 -1.2598 -1.0582 -0.6852
15877TIP3    H269047   1.230   0.731   2.413 -0.3641  2.4045  0.5477
15878TIP3   OH269048   2.808   1.067  11.865 -0.1149 -0.9282  0.5973
15878TIP3    H169049   2.829   1.130  11.795 -2.2448 -0.4710  0.3136
15878TIP3    H269050   2.716   1.082  11.883  0.5190 -0.4976  4.0795
15879TIP3   OH269051   6.577   3.655  11.348  0.2320  0.1570 -0.2078
15879TIP3    H169052   6.667   3.672  11.377 -0.0358 -0.5021  1.0911
15879TIP3    H269053   6.565   3.712  11.273  1.5663  0.6433 -0.0820
15880TIP3   OH269054   2.620   4.222  11.158  0.3561 -0.4385  0.3187
15880TIP3    H169055   2.577   4.141  11.183  0.5096 -0.7695 -0.4611
15880TIP3    H269056   2.600   4.232  11.065 -1.3563  1.4642  0.8315
15881TIP3   OH269057   1.159   6.482  15.791 -0.1052 -0.6512 -0.1712
15881TIP3    H169058   1.255   6.482  15.793 -0.1034 -0.1652  0.9432
15881TIP3    H269059   1.136   6.443  15.707  1.0787 -0.1354 -0.7548
15882TIP3   OH269060   0.559   3.746   3.883  0.0172  0.4601  0.3466
15882TIP3    H169061   0.636   3.759   3.938 -0.0635 -0.4318  0.6714
15882TIP3    H269062   0.494   3.706   3.941 -0.0125 -0.6531 -0.4363
15883TIP3   OH269063   0.205   5.825  13.089 -0.0286 -0.0343 -0.2656
15883TIP3    H169064   0.251   5.908  13.099 -1.2895  0.6743 -0.0434
15883TIP3    H269065   0.251   5.765  13.148  0.1622  0.8382  0.4976
15884TIP3   OH269066   6.647   2.099   5.392 -0.5358 -0.6070  0.3364
15884TIP3    H169067   6.677   2.166   5.454 -1.4092  2.2301 -2.1069
15884TIP3    H269068   6.552   2.097   5.403 -1.2782  2.7597 -3.1865
15885TIP3   OH269069   0.124   4.159  11.271 -0.3084 -0.7004 -0.5838
15885TIP3    H169070   0.077   4.159  11.354  1.8474  2.0553  0.7997
15885TIP3    H269071   0.131   4.252  11.247 -0.9490 -1.3807 -3.9845
15886TIP3   OH269072   3.301   1.632   1.402  0.4521  0.6651 -0.5233
15886TIP3    H169073   3.310   1.548   1.447  0.3422  0.6756 -0.4813
15886TIP3    H269074   3.382   1.679   1.424  0.4073  0.6634 -0.3506
15887TIP3   OH269075   6.642   4.154  12.766  0.0870 -0.7220 -0.3298
15887TIP3    H169076   6.567   4.212  12.782 -0.4280 -1.3460 -0.4463
15887TIP3    H269077   6.702   4.207  12.713 -0.5911 -0.4600 -0.8439
15888TIP3   OH269078   5.645   2.298   1.903 -0.4898 -0.7345 -0.1155
15888TIP3    H169079   5.683   2.280   1.816 -2.3178 -0.0069 -1.1175
15888TIP3    H269080   5.673   2.387   1.923 -0.5785 -0.6787 -0.2383
15889TIP3   OH269081   2.777   6.277   1.582 -0.0676  0.3542 -0.4615
15889TIP3    H169082   2.733   6.361   1.565 -0.5889  0.1891  0.0499
15889TIP3    H269083   2.793   6.277   1.676 -2.2028 -1.1318 -0.0464
15890TIP3   OH269084   3.922   0.956   4.603 -0.2411  0.0538 -0.1888
15890TIP3    H169085   3.951   0.900   4.532 -0.6576  0.0996 -0.3955
15890TIP3    H269086   3.866   1.022   4.561  2.0070  2.0247 -0.3277
15891TIP3   OH269087   4.373   3.871  15.221 -0.1733 -0.0439 -0.5167
15891TIP3    H169088   4.366   3.961  15.254 -1.3077 -0.2648 -0.1100
15891TIP3    H269089   4.402   3.820  15.297  1.7149  0.1466 -1.0607
15892TIP3   OH269090   0.036   0.435  11.134  0.2178  0.1339 -0.3398
15892TIP3    H169091   0.063   0.387  11.056  1.1897  1.4006 -0.8157
15892TIP3    H269092   0.012   0.522  11.103  1.0803  0.8167  0.8015
15893TIP3   OH269093   4.855   6.377   0.731 -0.6056  0.2727 -0.3362
15893TIP3    H169094   4.761   6.395   0.738 -0.0818  2.7889  1.4972
15893TIP3    H269095   4.896   6.464   0.728  1.7345 -0.7405  0.1319
15894TIP3   OH269096   2.484   1.394   0.572 -0.1893  0.0894 -0.7819
15894TIP3    H169097   2.532   1.432   0.498  1.5098 -0.5843 -0.0621
15894TIP3    H269098   2.434   1.468   0.608 -1.0616  0.4391 -2.5599
15895TIP3   OH269099   0.788   2.921   3.134  0.3238 -0.1619 -0.2053
15895TIP3    H169100   0.821   2.892   3.219  1.4931 -0.8767 -0.8726
15895TIP3    H269101   0.788   2.842   3.080  2.0314  0.7193 -1.5969
15896TIP3   OH269102   4.083   3.387   0.864 -0.3648  0.3661 -0.9051
15896TIP3    H169103   4.044   3.322   0.804  0.1187 -0.0938 -0.7318
15896TIP3    H269104   4.013   3.450   0.879 -1.1231 -0.5588 -0.4279
15897TIP3   OH269105   3.414   2.289  12.004  0.3512 -0.0234  0.1083
15897TIP3    H169106   3.421   2.303  12.099 -1.3302 -1.5760  0.5241
15897TIP3    H269107   3.372   2.203  11.996  1.8399 -0.6180 -2.0827
15898TIP3   OH269108   4.700   5.366   0.674  0.0725 -0.2339 -0.7161
15898TIP3    H169109   4.649   5.427   0.621  2.3439  2.5613  0.0910
15898TIP3    H269110   4.790   5.379   0.646  1.1844  0.1753  2.6415
15899TIP3   OH269111   1.354   1.235  12.669  0.1021 -0.0962 -0.0640
15899TIP3    H169112   1.382   1.210  12.581  0.7323  0.5488 -0.0594
15899TIP3    H269113   1.258   1.234  12.665  0.1219  0.3781 -0.8969
15900TIP3   OH269114   2.518   6.138  13.527 -0.6814 -0.3153  0.4402
15900TIP3    H169115   2.601   6.101  13.557 -0.3211  0.5729  0.5731
15900TIP3    H269116   2.451   6.080  13.563 -0.1035 -1.2861 -0.0228
15901TIP3   OH269117   1.697   6.450  13.942  0.2824 -0.2239  0.6088
15901TIP3    H169118   1.698   6.545  13.927  1.1431 -0.2816  0.2574
15901TIP3    H269119   1.776   6.418  13.899 -0.5689 -1.2556 -0.2509
15902TIP3   OH269120   6.020   0.630  14.251  0.0573  0.0163 -0.1912
15902TIP3    H169121   6.082   0.703  14.241 -0.8026  0.9575  1.0068
15902TIP3    H269122   5.940   0.671  14.285 -1.2659 -1.1487 -1.7358
15903TIP3   OH269123   6.809   5.605  15.983 -0.1391 -0.2911  0.4829
15903TIP3    H169124   6.816   5.632  16.074 -0.1859  0.8233  0.1610
15903TIP3    H269125   6.900   5.589  15.956 -0.1604 -1.0974  0.8493
15904TIP3   OH269126   4.121   1.355   1.365  0.0854  0.6881  0.0381
15904TIP3    H169127   4.073   1.272   1.373  1.2372 -0.0193 -0.1299
15904TIP3    H269128   4.145   1.377   1.455  0.8062  0.2015 -0.0291
15905TIP3   OH269129   6.177   4.258  12.527  1.1595 -0.3158  0.1014
15905TIP3    H169130   6.177   4.352  12.548  2.1249 -0.1286 -0.6520
15905TIP3    H269131   6.090   4.228  12.551  0.7094  0.8564  0.0064
15906TIP3   OH269132   4.448   2.242  14.996  0.2444 -0.7390  0.1755
15906TIP3    H169133   4.369   2.213  14.951  0.1531 -0.1846 -0.0212
15906TIP3    H269134   4.432   2.220  15.088  0.1736 -1.3025  0.0331
15907TIP3   OH269135   2.844   2.222   4.551 -0.0316  0.1076 -0.1444
15907TIP3    H169136   2.894   2.171   4.488 -1.1705 -3.1966  1.3852
15907TIP3    H269137   2.901   2.297   4.572  3.8902 -2.7333  0.6313
15908TIP3   OH269138   3.872   2.046   5.437  0.1941  0.2164  0.0375
15908TIP3    H169139   3.791   2.057   5.387  0.0734 -0.0751  0.1707
15908TIP3    H269140   3.844   2.038   5.528  0.3865  0.3232  0.1068
15909TIP3   OH269141   3.860   6.495   0.850 -0.5855  0.0357  0.3780
15909TIP3    H169142   3.856   6.418   0.793 -0.3491  0.7117 -0.5709
15909TIP3    H269143   3.872   6.569   0.790  1.5056  0.5940  1.3966
15910TIP3   OH269144   0.856   5.327   1.249  0.0240  0.2553  0.1392
15910TIP3    H169145   0.875   5.419   1.266  0.6230  0.1588  0.0176
15910TIP3    H269146   0.917   5.302   1.180 -0.9711  0.0936 -0.7235
15911TIP3   OH269147   6.603   2.174  11.321 -0.2537  0.1026 -0.2408
15911TIP3    H169148   6.535   2.238  11.302 -0.8057 -0.3998  0.0187
15911TIP3    H269149   6.684   2.226  11.325 -0.6895  0.7822 -0.0386
15912TIP3   OH269150   5.383   0.220   9.912  0.3623 -0.4055 -0.0444
15912TIP3    H169151   5.369   0.130   9.883 -0.9641  0.3244 -1.8147
15912TIP3    H269152   5.297   0.262   9.906  1.0119  1.0789  0.4183
15913TIP3   OH269153   0.385   6.309   0.027  0.2589 -0.1467 -0.7796
15913TIP3    H169154   0.317   6.276   0.085  1.0900 -0.8654 -0.1923
15913TIP3    H269155   0.388   6.247  -0.046  0.6664 -0.4307 -0.5229
15914TIP3   OH269156   6.542   5.612   0.782 -0.1591  0.0277 -0.0607
15914TIP3    H169157   6.561   5.545   0.847 -0.0689  1.5397  1.5389
15914TIP3    H269158   6.607   5.680   0.797 -0.0681  0.3729 -1.8304
15915TIP3   OH269159   6.555   3.496   4.269  0.0632 -0.2827  0.0217
15915TIP3    H169160   6.531   3.438   4.341 -0.1729 -0.8612 -0.5145
15915TIP3    H269161   6.479   3.496   4.211  0.7513 -0.9202 -0.9184
15916TIP3   OH269162   2.619   5.553  15.072  0.3083 -0.3262  0.5407
15916TIP3    H169163   2.660   5.547  14.986 -2.9052  1.2820 -1.3021
15916TIP3    H269164   2.612   5.463  15.102  0.9929 -0.9699 -1.1331
15917TIP3   OH269165   2.071   3.320   3.481  0.5990 -0.3906 -0.1209
15917TIP3    H169166   2.079   3.381   3.407 -0.1957 -0.5284 -0.3289
15917TIP3    H269167   2.074   3.233   3.440 -2.6964 -0.5053 -0.3945
15918TIP3   OH269168   2.096   1.821   1.767  0.6189  0.3370 -0.0271
15918TIP3    H169169   2.146   1.807   1.848 -1.3445 -1.5066  0.9558
15918TIP3    H269170   2.068   1.733   1.741  0.2987  1.0169 -2.1469
15919TIP3   OH269171   5.460   1.304  15.291 -0.4743  0.5271 -0.2253
15919TIP3    H169172   5.531   1.364  15.267  0.6477  0.1164  1.8390
15919TIP3    H269173   5.393   1.359  15.331 -1.3560  0.9090 -2.1278
15920TIP3   OH269174   3.238   2.837   3.762 -0.5196 -0.0106  0.7662
15920TIP3    H169175   3.235   2.924   3.722 -0.7775 -0.7263 -0.8411
15920TIP3    H269176   3.206   2.850   3.851 -0.9301  1.4675  0.4222
15921TIP3   OH269177   5.129   1.905   0.853 -0.2328  0.1055 -0.0842
15921TIP3    H169178   5.053   1.958   0.830 -1.3126  0.0283  2.8902
15921TIP3    H269179   5.204   1.960   0.832 -1.2897  2.6469  2.1829
15922TIP3   OH269180   4.838   0.004  16.625  0.2731 -0.5584 -0.5795
15922TIP3    H169181   4.821  -0.072  16.570  0.9527 -0.5040 -0.8745
15922TIP3    H269182   4.934   0.006  16.636  0.1797 -0.4036  0.3583
15923TIP3   OH269183   1.500   2.245  10.439  0.2935 -0.2838 -0.0581
15923TIP3    H169184   1.516   2.257  10.532 -0.8138  0.4787  0.0610
15923TIP3    H269185   1.446   2.166  10.433 -2.9515  1.6863  0.3986
15924TIP3   OH269186   3.257   6.670   2.794 -0.1781  0.2553 -0.3311
15924TIP3    H169187   3.216   6.591   2.830  3.2052 -0.7344  1.8132
15924TIP3    H269188   3.186   6.735   2.792 -2.3554 -1.9286  0.8344
15925TIP3   OH269189   1.021   1.544  14.878  0.1726  0.2523  0.1727
15925TIP3    H169190   0.969   1.578  14.806 -0.4746  1.0654  0.9873
15925TIP3    H269191   1.040   1.453  14.855  0.0219  0.5163 -1.0213
15926TIP3   OH269192   6.894   5.935  10.892  0.2938  0.0541  0.0451
15926TIP3    H169193   6.892   6.029  10.911 -2.7985  0.9320 -3.4069
15926TIP3    H269194   6.956   5.927  10.819  0.0333 -0.4592 -0.1242
15927TIP3   OH269195   0.265   3.622  13.900  0.3770  0.1415 -0.1165
15927TIP3    H169196   0.210   3.684  13.947 -0.4148  0.4237 -1.3621
15927TIP3    H269197   0.324   3.677  13.848  1.0915 -0.1626  0.3576
15928TIP3   OH269198   2.603   5.580   2.242  0.8006  0.3294 -0.4953
15928TIP3    H169199   2.520   5.603   2.284  0.5741 -1.5176  0.1656
15928TIP3    H269200   2.661   5.652   2.264 -0.5120  1.4738 -0.6428
15929TIP3   OH269201   5.900   0.439  15.393 -0.2756 -0.1250 -0.2002
15929TIP3    H169202   5.990   0.416  15.372 -0.0698  0.0590  0.4533
15929TIP3    H269203   5.858   0.452  15.308  0.1448 -0.8391 -0.5235
15930TIP3   OH269204   4.570   5.057   5.257  0.2864  0.4435 -0.5202
15930TIP3    H169205   4.518   4.989   5.299 -0.9346  0.7592 -1.4763
15930TIP3    H269206   4.534   5.139   5.290  2.3651  0.7013  1.3736
15931TIP3   OH269207   4.091   2.605  15.060 -0.0680  0.3369  0.4342
15931TIP3    H169208   4.103   2.619  15.154  0.0259 -2.7959  1.0178
15931TIP3    H269209   4.042   2.523  15.054  0.6253  0.0010 -2.2542
15932TIP3   OH269210   0.553   3.474   6.522  0.3245  0.0258  0.7565
15932TIP3    H169211   0.540   3.425   6.442  1.0044 -0.1235  0.7314
15932TIP3    H269212   0.499   3.429   6.587 -0.1027  0.0538  0.4248
15933TIP3   OH269213   6.198   0.487  14.552  0.0416  0.1338  0.2879
15933TIP3    H169214   6.255   0.432  14.605 -0.3896  1.0160  1.7245
15933TIP3    H269215   6.130   0.427  14.521 -1.2210  0.0254  2.9903
15934TIP3   OH269216   5.788   2.124   3.665  0.3504  0.2375  0.2446
15934TIP3    H169217   5.823   2.144   3.752 -0.3937 -1.0516  0.8652
15934TIP3    H269218   5.787   2.029   3.660  0.6779  0.2857 -1.3186
15935TIP3   OH269219   2.172   5.471  15.692 -0.2568  0.5332  0.0243
15935TIP3    H169220   2.126   5.503  15.769  0.9445  0.9605  0.5817
15935TIP3    H269221   2.182   5.548  15.636  1.1460  0.8188  0.6176
15936TIP3   OH269222   6.340   3.264  15.910  0.2198  0.0926 -0.6232
15936TIP3    H169223   6.365   3.224  15.993  1.8423 -2.5124 -2.2273
15936TIP3    H269224   6.414   3.321  15.888 -0.6628  1.5890  0.1260
15937TIP3   OH269225   0.003   2.148   1.698  0.9636  0.0307  0.1945
15937TIP3    H169226   0.086   2.167   1.656  1.1247  0.0237  0.5062
15937TIP3    H269227   0.026   2.129   1.789  0.7192 -0.7978  0.0952
15938TIP3   OH269228   2.332   4.300   2.791 -0.3728  0.0996  0.3915
15938TIP3    H169229   2.242   4.332   2.795  0.0745  1.3947  0.3912
15938TIP3    H269230   2.365   4.329   2.706  0.2350  0.1475  0.6352
15939TIP3   OH269231   4.983   1.849   2.270  0.2941  0.0755  0.0939
15939TIP3    H169232   4.890   1.865   2.288  0.1422 -0.8680  0.1992
15939TIP3    H269233   4.995   1.874   2.178 -0.3337 -0.8516 -0.2586
15940TIP3   OH269234   6.497   3.886   3.970  0.1304  0.3092  0.1942
15940TIP3    H169235   6.564   3.845   4.025 -2.3162 -0.2209  3.0798
15940TIP3    H269236   6.442   3.934   4.032 -2.5970  0.0601 -1.8388
15941TIP3   OH269237   2.097   5.627   5.097  0.3627 -0.0814  0.0054
15941TIP3    H169238   2.159   5.555   5.099  1.2466  0.5516 -1.7178
15941TIP3    H269239   2.151   5.705   5.084 -0.6436  0.7654  0.7259
15942TIP3   OH269240   2.237   5.795  10.570 -0.4901  0.0323 -0.7118
15942TIP3    H169241   2.322   5.839  10.574 -0.9014  0.7991 -0.0665
15942TIP3    H269242   2.247   5.729  10.502  0.9000 -0.4840 -0.0327
15943TIP3   OH269243   1.768   2.217   5.091 -0.0457 -0.2296  0.1459
15943TIP3    H169244   1.808   2.131   5.101 -0.9828 -0.9084 -1.5448
15943TIP3    H269245   1.695   2.203   5.030  0.0200  1.8325 -0.4943
15944TIP3   OH269246   4.292   2.986   0.317  0.4262  0.0046  0.3572
15944TIP3    H169247   4.328   3.074   0.306 -0.7897  0.8595  2.6444
15944TIP3    H269248   4.364   2.935   0.355  0.6772  0.4177  0.4441
15945TIP3   OH269249   3.397   1.781   0.725 -0.1295 -0.2504  0.6891
15945TIP3    H169250   3.453   1.829   0.786  0.1130  0.8030 -0.3010
15945TIP3    H269251   3.311   1.779   0.766  0.5221 -1.5443  2.0547
15946TIP3   OH269252   6.863   3.891  14.957  0.0555  0.4494 -0.1200
15946TIP3    H169253   6.889   3.801  14.939 -0.0132  0.3570  0.2429
15946TIP3    H269254   6.785   3.884  15.013  0.2493  0.7325  0.1922
15947TIP3   OH269255   1.797   5.180   6.250 -0.2357  1.0396  0.7331
15947TIP3    H169256   1.875   5.187   6.305 -0.5569  0.3630  1.2923
15947TIP3    H269257   1.746   5.259   6.269 -0.2851  0.8737  1.3313
15948TIP3   OH269258   3.875   3.584   4.570 -0.1835  0.1725 -0.1900
15948TIP3    H169259   3.787   3.611   4.596 -0.8817 -2.5347  0.6838
15948TIP3    H269260   3.896   3.512   4.630  1.5353 -0.9652 -2.0169
15949TIP3   OH269261   3.718   2.214  10.208 -0.6047 -0.0082 -0.5302
15949TIP3    H169262   3.642   2.233  10.262 -0.4659 -1.0193  0.0358
15949TIP3    H269263   3.748   2.299  10.178 -0.3900  0.6254  1.3789
15950TIP3   OH269264   4.611   2.533   5.317 -0.2429 -0.1374 -0.3321
15950TIP3    H169265   4.517   2.518   5.317 -0.1138 -1.0114 -0.2234
15950TIP3    H269266   4.644   2.480   5.390  0.1904  1.1411  0.4327
15951TIP3   OH269267   2.734   2.231   1.862  0.1005  0.4112 -0.4361
15951TIP3    H169268   2.649   2.227   1.905  0.4691 -1.1915  0.1958
15951TIP3    H269269   2.716   2.203   1.772 -0.2212  1.2178 -0.6327
15952TIP3   OH269270   1.401   6.278  15.424  0.1984 -0.3345  0.0007
15952TIP3    H169271   1.491   6.292  15.453 -0.4168  0.5422  1.6278
15952TIP3    H269272   1.374   6.197  15.466 -0.1834  0.0987  0.6071
15953TIP3   OH269273   6.717   0.277  12.284 -0.3995  0.3840 -0.7029
15953TIP3    H169274   6.810   0.283  12.261 -0.6538 -0.8670 -2.2257
15953TIP3    H269275   6.674   0.250  12.203 -1.8688 -0.7027  0.3906
15954TIP3   OH269276   3.904   2.848  11.031  0.5421  0.0804  0.3606
15954TIP3    H169277   3.837   2.860  10.964  0.9687 -0.7230 -0.2360
15954TIP3    H269278   3.969   2.916  11.012 -0.4773  1.4137  1.4648
15955TIP3   OH269279   4.664   2.437  10.471 -0.0095  0.1420 -0.4816
15955TIP3    H169280   4.737   2.406  10.418 -0.3426  0.0164 -0.8680
15955TIP3    H269281   4.624   2.506  10.419 -1.3929 -1.1454 -1.1817
15956TIP3   OH269282   1.730   0.242   5.098 -0.0497 -0.0889  0.3809
15956TIP3    H169283   1.658   0.261   5.159 -1.7088 -1.0679 -1.1737
15956TIP3    H269284   1.768   0.327   5.078 -1.3424  0.5554  0.5845
15957TIP3   OH269285   6.585   6.512   1.408 -0.2891 -0.4026  0.1224
15957TIP3    H169286   6.568   6.604   1.391  0.7546 -0.0800  0.7355
15957TIP3    H269287   6.612   6.476   1.324 -0.1508 -0.0234  0.0063
15958TIP3   OH269288   5.948   6.591  16.475 -0.0840  0.3439  0.3940
15958TIP3    H169289   5.947   6.516  16.415 -0.8868  0.9639 -0.3976
15958TIP3    H269290   5.886   6.566  16.544  0.8126 -0.3546  0.9622
15959TIP3   OH269291   1.804   5.581  16.053  0.5897 -0.1776 -0.3742
15959TIP3    H169292   1.727   5.637  16.058 -0.5411 -1.0923 -4.0898
15959TIP3    H269293   1.776   5.507  16.000  3.3641 -1.8639  0.3091
15960TIP3   OH269294   2.016   1.663   5.305 -0.0460 -0.6442 -0.2133
15960TIP3    H169295   2.112   1.667   5.296 -0.1258  0.5240 -0.5971
15960TIP3    H269296   1.989   1.753   5.322 -1.0900 -0.9588 -0.1402
15961TIP3   OH269297   0.029   3.126  15.666 -0.2557 -0.0530  0.7301
15961TIP3    H169298   0.020   3.035  15.639  2.3730 -1.6747  4.3947
15961TIP3    H269299   0.096   3.162  15.607 -1.9528 -0.0927 -1.3267
15962TIP3   OH269300   2.370   0.367  16.235 -0.1843 -0.0161 -0.0631
15962TIP3    H169301   2.386   0.336  16.324  0.6500 -0.8545 -0.4926
15962TIP3    H269302   2.406   0.299  16.179 -0.1778  0.7794 -1.0473
15963TIP3   OH269303   1.547   2.441  16.187 -0.6298  0.5328 -0.4559
15963TIP3    H169304   1.586   2.354  16.184 -4.1792 -1.2335 -0.3716
15963TIP3    H269305   1.615   2.499  16.154  1.2488 -2.5187 -2.4236
15964TIP3   OH269306   3.606   2.726   4.988 -0.5421 -0.0730  0.1450
15964TIP3    H169307   3.645   2.800   5.034  0.3787  1.0883 -2.2881
15964TIP3    H269308   3.520   2.757   4.960 -0.2508  0.0124 -0.6769
15965TIP3   OH269309   5.496   1.267   2.852 -0.1371 -0.2936 -0.1700
15965TIP3    H169310   5.463   1.334   2.792 -1.8124  0.4386  1.4555
15965TIP3    H269311   5.583   1.298   2.878 -0.7687  1.1561  0.3306
15966TIP3   OH269312   3.370   6.002   0.739  0.0364 -0.4371  0.3536
15966TIP3    H169313   3.463   6.018   0.755 -0.0353 -0.4306  0.7589
15966TIP3    H269314   3.354   6.039   0.652  0.7634 -1.8208 -0.4005
15967TIP3   OH269315   3.004   3.732   5.244  0.7123  0.2245  0.2418
15967TIP3    H169316   3.070   3.771   5.301  0.6641 -1.6907  1.6971
15967TIP3    H269317   2.922   3.741   5.292  0.5163 -0.5976  0.0790
15968TIP3   OH269318   1.904   0.340   2.588 -0.2591  0.3564 -0.0565
15968TIP3    H169319   1.986   0.352   2.636 -0.7935  0.4288  0.8452
15968TIP3    H269320   1.926   0.277   2.519  0.4615  0.0927  0.4038
15969TIP3   OH269321   4.499   3.693   2.389 -0.5480 -0.0989 -0.5499
15969TIP3    H169322   4.528   3.741   2.467 -0.6316  1.3692 -1.3847
15969TIP3    H269323   4.575   3.695   2.331 -0.8328 -0.2667 -0.9301
15970TIP3   OH269324   6.622   4.218   4.835 -0.5171 -0.2902  0.0213
15970TIP3    H169325   6.556   4.225   4.766  0.3868 -0.5071 -0.8925
15970TIP3    H269326   6.702   4.191   4.789  1.2501  3.5438  0.4363
15971TIP3   OH269327   5.758   0.953  13.509  0.8013 -0.2616  0.0507
15971TIP3    H169328   5.802   0.887  13.563  1.6291 -0.1311 -0.4497
15971TIP3    H269329   5.808   1.033  13.522 -0.6423  0.4930  1.2439
15972TIP3   OH269330   0.394   0.162   1.730 -0.1091 -0.2663 -0.2047
15972TIP3    H169331   0.449   0.124   1.662  1.4866  0.1551  0.7901
15972TIP3    H269332   0.438   0.243   1.754 -1.2342  0.1447  0.5607
15973TIP3   OH269333   4.246   2.764  14.502 -0.0347 -0.1476  0.5861
15973TIP3    H169334   4.314   2.706  14.536  1.0775  0.8245  0.0810
15973TIP3    H269335   4.293   2.837  14.464 -1.3604  0.3842 -0.1135
15974TIP3   OH269336   2.465   4.285   0.299 -0.1714  0.2384 -0.0788
15974TIP3    H169337   2.393   4.222   0.287 -0.8852  0.9677  0.3011
15974TIP3    H269338   2.453   4.349   0.230 -0.8848  1.2743  0.9696
15975TIP3   OH269339   3.178   5.370   4.649  0.4997  0.5782 -0.7249
15975TIP3    H169340   3.088   5.385   4.620  0.3202  0.3365 -0.3015
15975TIP3    H269341   3.172   5.363   4.744  0.9089  0.1599 -0.7251
15976TIP3   OH269342   4.205   5.158  16.617  0.4122  0.3482  0.0635
15976TIP3    H169343   4.209   5.249  16.587 -0.5518  0.3176 -0.2148
15976TIP3    H269344   4.121   5.126  16.583  1.3938 -1.1038 -1.1394
15977TIP3   OH269345   5.419   5.710  13.242 -0.3340 -0.1965 -0.3235
15977TIP3    H169346   5.417   5.764  13.321 -1.0910 -1.5268  0.6134
15977TIP3    H269347   5.436   5.621  13.274  2.8403 -0.3398 -1.9492
15978TIP3   OH269348   1.040   6.179  12.946  0.1299  0.2660  0.5047
15978TIP3    H169349   1.058   6.175  12.852 -0.2115  0.3895  0.4317
15978TIP3    H269350   0.955   6.221  12.952 -0.7856 -1.4994  0.7615
15979TIP3   OH269351   4.071   3.357  11.263 -0.0564  0.0687 -0.2796
15979TIP3    H169352   4.071   3.380  11.170  0.0216  0.8892 -0.0887
15979TIP3    H269353   4.069   3.261  11.265  0.4036  0.0332 -1.1267
15980TIP3   OH269354   1.136   5.695   0.799  0.4261  1.1681 -0.9302
15980TIP3    H169355   1.205   5.761   0.806 -0.1631  1.8384 -1.3733
15980TIP3    H269356   1.059   5.743   0.768 -0.3216  0.4887 -0.1843
15981TIP3   OH269357   5.652   1.189   3.447  0.2932 -0.3601  0.1210
15981TIP3    H169358   5.714   1.212   3.377  1.0442  0.5611  1.0518
15981TIP3    H269359   5.689   1.110   3.487  0.9510  0.2527  0.7476
15982TIP3   OH269360   3.428   2.333   3.142  0.8936 -0.0304 -0.6724
15982TIP3    H169361   3.497   2.283   3.185 -0.2212 -3.2498 -2.2646
15982TIP3    H269362   3.406   2.403   3.204  3.8895 -0.3295  0.8930
15983TIP3   OH269363   6.199   4.129   2.591  0.1551  0.1865 -0.1385
15983TIP3    H169364   6.169   4.145   2.502  0.8430 -1.3984 -0.6859
15983TIP3    H269365   6.124   4.151   2.646 -0.3428  0.9837 -1.0973
15984TIP3   OH269366   2.210   3.054  12.710 -0.0540 -0.2138  0.0398
15984TIP3    H169367   2.230   2.963  12.689 -1.8869 -0.6589  0.0630
15984TIP3    H269368   2.215   3.100  12.627  0.9340 -0.3097  0.0356
15985TIP3   OH269369   6.726   4.364   0.104 -0.5088  0.3012  0.2905
15985TIP3    H169370   6.680   4.443   0.075 -0.9189 -0.3181 -0.7904
15985TIP3    H269371   6.745   4.380   0.197 -2.0985  0.9480  0.5333
15986TIP3   OH269372   1.628   2.021   5.460 -0.2206 -0.0551  0.5422
15986TIP3    H169373   1.702   2.048   5.515  0.8561  0.8782 -1.2691
15986TIP3    H269374   1.586   2.103   5.436 -1.0493 -0.5012  0.4495
15987TIP3   OH269375   2.446   2.261  14.095  0.4566 -0.2685 -0.3607
15987TIP3    H169376   2.517   2.198  14.109 -0.4868 -1.8055 -2.0716
15987TIP3    H269377   2.450   2.319  14.171  2.8026 -0.9950  0.1561
15988TIP3   OH269378   1.420   3.008   2.309 -0.4737 -0.2443 -0.3906
15988TIP3    H169379   1.486   3.071   2.339 -3.6519  3.8996 -1.1920
15988TIP3    H269380   1.449   2.981   2.222  1.3559 -0.6060  0.2903
15989TIP3   OH269381   0.954   4.143  13.654  0.2955 -0.2459  0.6549
15989TIP3    H169382   0.868   4.103  13.640  0.5389 -0.4463 -0.3227
15989TIP3    H269383   0.947   4.230  13.614  0.8784 -0.6752 -0.4099
15990TIP3   OH269384   5.805   1.424  12.054 -0.0949  0.0596  0.4932
15990TIP3    H169385   5.866   1.488  12.091  1.5842 -0.1848 -1.6569
15990TIP3    H269386   5.857   1.377  11.989 -1.9232 -1.9376  0.3943
15991TIP3   OH269387   0.953   6.608   5.518  0.2947 -0.0306 -0.1478
15991TIP3    H169388   0.860   6.597   5.498 -0.0642  2.8855 -0.4295
15991TIP3    H269389   0.970   6.544   5.587 -2.0973 -0.1212  0.4337
15992TIP3   OH269390   5.194   6.406   2.523  0.3653 -0.0732  0.7042
15992TIP3    H169391   5.163   6.495   2.543 -1.0058 -0.2650 -0.4200
15992TIP3    H269392   5.284   6.404   2.555  0.5506  1.8562  0.4095
15993TIP3   OH269393   2.925   5.973  11.657  0.1984  0.0730 -0.2896
15993TIP3    H169394   2.839   5.939  11.681  0.6601 -2.2734 -1.6334
15993TIP3    H269395   2.928   5.966  11.561  1.2758  1.7148 -0.4184
15994TIP3   OH269396   3.676   0.244   1.222  0.1020 -0.6260  0.3821
15994TIP3    H169397   3.741   0.278   1.159  0.9202 -0.8978  1.0544
15994TIP3    H269398   3.615   0.316   1.235  0.3653 -0.3009 -0.1455
15995TIP3   OH269399   5.196   3.158  14.764 -0.4426 -0.4544 -0.3308
15995TIP3    H169400   5.170   3.249  14.771 -1.9627 -0.8042 -0.9872
15995TIP3    H269401   5.147   3.113  14.833  0.4766 -0.7626  0.1509
15996TIP3   OH269402   6.045   2.205  14.714  0.4269 -0.4526 -0.6412
15996TIP3    H169403   6.052   2.250  14.630  3.3747 -0.3781 -0.4405
15996TIP3    H269404   6.104   2.252  14.772  0.6510 -2.2253  0.6658
15997TIP3   OH269405   4.965   6.841  11.510  0.2526 -0.2343 -0.5150
15997TIP3    H169406   4.920   6.757  11.509 -0.1428 -0.0237 -0.8276
15997TIP3    H269407   5.057   6.819  11.499  0.2814 -0.6932  0.5178
15998TIP3   OH269408   1.433   0.324   3.693  0.3695  0.6732 -0.0216
15998TIP3    H169409   1.370   0.377   3.741  0.2233  2.6122 -2.1872
15998TIP3    H269410   1.509   0.318   3.752 -0.3947  1.5310  1.0974
15999TIP3   OH269411   0.097   4.556   2.187 -0.2784 -0.2232  0.1008
15999TIP3    H169412   0.135   4.482   2.234 -2.3274 -1.8042 -0.5955
15999TIP3    H269413   0.029   4.589   2.245  1.4188  2.0494  0.9727
16000TIP3   OH269414   6.309   3.335   0.903 -0.5277  0.1871  0.4420
16000TIP3    H169415   6.384   3.392   0.919 -0.6336  0.8016 -1.1143
16000TIP3    H269416   6.342   3.269   0.842 -0.2898 -1.7345  2.4998
16001TIP3   OH269417   3.355   5.566   1.616 -0.0978  0.4420 -0.0279
16001TIP3    H169418   3.347   5.512   1.694  1.1257 -2.0757 -1.5083
16001TIP3    H269419   3.434   5.618   1.629  0.8477 -0.9395 -0.0968
16002TIP3   OH269420   0.145   1.504  11.602  0.3759 -0.7093 -0.4885
16002TIP3    H169421   0.058   1.523  11.637  0.0297 -0.9874 -1.1933
16002TIP3    H269422   0.168   1.420  11.641  0.0224 -0.9804 -0.8544
16003TIP3   OH269423   3.653   2.817   0.089 -0.0089  0.2126  0.2703
16003TIP3    H169424   3.592   2.849   0.155  0.7577  1.6512  0.3290
16003TIP3    H269425   3.710   2.757   0.137 -1.3174 -1.1274  0.2177
16004TIP3   OH269426   5.133   4.941   2.413  0.0524 -0.3159 -0.6673
16004TIP3    H169427   5.143   4.943   2.508  0.6458  1.2089 -0.7274
16004TIP3    H269428   5.222   4.953   2.379 -0.2057 -0.4246 -1.4055
16005TIP3   OH269429   0.510   4.676   0.813  0.1529  0.1543  0.2609
16005TIP3    H169430   0.527   4.624   0.734  0.0672  0.1115  0.2698
16005TIP3    H269431   0.576   4.745   0.812  2.0223 -1.4904  1.6365
16006TIP3   OH269432   6.821   5.033   2.313  0.4407 -0.3255 -0.1837
16006TIP3    H169433   6.755   4.990   2.259  0.2614  1.7340 -1.6907
16006TIP3    H269434   6.775   5.103   2.358  1.5546  1.2201 -1.3409
16007TIP3   OH269435   5.055   4.954  15.595 -0.1352 -0.0662 -0.3883
16007TIP3    H169436   5.096   4.886  15.543 -0.8498  0.5328 -1.7769
16007TIP3    H269437   5.064   4.924  15.686 -0.9119 -2.2457 -0.9844
16008TIP3   OH269438   0.991   0.803  13.163 -0.4727  0.0892  0.5147
16008TIP3    H169439   0.947   0.742  13.104  0.0793  0.1663  0.0084
16008TIP3    H269440   0.920   0.852  13.204 -0.8908 -0.3982  0.3873
16009TIP3   OH269441   6.091   0.884   5.611 -0.0923 -0.3554  0.1953
16009TIP3    H169442   6.121   0.803   5.653 -0.0951 -0.9084 -0.8412
16009TIP3    H269443   6.033   0.924   5.676 -1.9504 -2.3419 -0.0885
16010TIP3   OH269444   0.927   1.054   0.772 -0.3508  0.2220  0.2863
16010TIP3    H169445   0.892   1.142   0.787 -0.1029  0.3667  0.0323
16010TIP3    H269446   0.976   1.062   0.691 -2.0320 -0.6386 -0.8755
16011TIP3   OH269447   1.621   0.308   2.339 -0.0625  0.3759  0.2622
16011TIP3    H169448   1.534   0.314   2.299  0.5684  1.1777 -1.0581
16011TIP3    H269449   1.604   0.305   2.433 -1.5991 -1.5730 -0.0247
16012TIP3   OH269450   1.693   1.194   4.645  0.0261 -0.2251  0.2815
16012TIP3    H169451   1.599   1.196   4.662 -0.3046 -1.9569 -0.9884
16012TIP3    H269452   1.733   1.172   4.729 -0.6938  0.5788  0.8429
16013TIP3   OH269453   2.931   0.009  15.860 -0.5961  0.1816 -0.3904
16013TIP3    H169454   2.921   0.016  15.955 -0.1275  0.5068 -0.3620
16013TIP3    H269455   2.929   0.100  15.829 -1.4778  0.0412 -0.7722
16014TIP3   OH269456   1.764   4.922   6.119 -0.0950 -0.3454 -0.0022
16014TIP3    H169457   1.692   4.864   6.144  0.1595 -0.6215  0.1043
16014TIP3    H269458   1.762   4.992   6.184 -1.4427  0.6784 -1.0959
16015TIP3   OH269459   1.000   0.395  15.283  0.3704 -0.5845 -0.3755
16015TIP3    H169460   0.989   0.312  15.331  1.4793  0.0789  1.1258
16015TIP3    H269461   1.017   0.369  15.193  0.8167 -2.0050  0.0961
16016TIP3   OH269462   3.491   3.513   5.681  0.0256  0.3013 -0.1161
16016TIP3    H169463   3.539   3.536   5.602  1.1083 -0.6173  0.2658
16016TIP3    H269464   3.556   3.475   5.739 -1.0035 -0.2267  0.7237
16017TIP3   OH269465   5.196   6.103  14.997  0.0196 -0.3243 -0.2216
16017TIP3    H169466   5.174   6.127  15.087 -0.4998  1.1000 -0.7004
16017TIP3    H269467   5.117   6.125  14.947  0.6557 -0.1555 -1.1678
16018TIP3   OH269468   3.676   4.160  15.762  0.0708  0.1512  0.0890
16018TIP3    H169469   3.613   4.104  15.807  0.2365  0.8036  1.1670
16018TIP3    H269470   3.683   4.237  15.817  0.1895  1.0492 -1.1465
16019TIP3   OH269471   0.886   4.318  12.191 -0.5370  0.5019 -0.3966
16019TIP3    H169472   0.862   4.365  12.111 -1.5003  1.3297  0.3468
16019TIP3    H269473   0.938   4.381  12.240  0.4885 -0.1807 -0.5806
16020TIP3   OH269474   3.566   2.755   3.130  0.1165 -0.2583  0.2285
16020TIP3    H169475   3.576   2.779   3.038 -1.5645  1.6976  0.4697
16020TIP3    H269476   3.629   2.684   3.144  1.1890  0.1378 -2.1268
16021TIP3   OH269477   0.672   4.084   2.457  0.0412  0.0611 -0.0182
16021TIP3    H169478   0.664   4.176   2.482  0.2926 -0.0402  0.4565
16021TIP3    H269479   0.746   4.083   2.396  0.4976  0.0794  0.5226
16022TIP3   OH269480   2.510   4.288   6.477  0.8537  0.0933  0.0427
16022TIP3    H169481   2.416   4.272   6.465  0.5274  0.1393  2.1105
16022TIP3    H269482   2.551   4.204   6.458  0.3289 -0.1139 -0.2046
16023TIP3   OH269483   5.486   4.842  13.615  0.0643  0.3104  0.0666
16023TIP3    H169484   5.416   4.864  13.553 -0.1555  1.2923  0.6411
16023TIP3    H269485   5.451   4.869  13.700  0.6573 -0.3382  0.5241
16024TIP3   OH269486   4.759   2.728   0.320 -0.4694 -0.0527 -0.3215
16024TIP3    H169487   4.736   2.816   0.291 -0.7302  0.2044  0.6093
16024TIP3    H269488   4.692   2.671   0.280 -0.6777  0.2535 -0.4096
16025TIP3   OH269489   3.162   6.357  15.079  0.2432 -0.5111  0.2402
16025TIP3    H169490   3.123   6.270  15.089 -0.4997 -0.0433  1.6046
16025TIP3    H269491   3.166   6.392  15.167  1.5379  0.4325 -0.1738
16026TIP3   OH269492   5.537   5.795   1.438 -0.3414  0.0745  0.5377
16026TIP3    H169493   5.534   5.870   1.378  2.8188  0.3243  0.5300
16026TIP3    H269494   5.599   5.820   1.506 -1.1477 -1.5918  1.9856
16027TIP3   OH269495   5.525   6.511   1.008 -0.2901  0.2613 -0.5520
16027TIP3    H169496   5.583   6.451   1.055  0.0142  0.8057 -0.2106
16027TIP3    H269497   5.450   6.458   0.983 -1.3283  0.3394  2.1307
16028TIP3   OH269498   2.746   4.655  13.566 -0.2455 -0.2975 -0.1161
16028TIP3    H169499   2.730   4.565  13.537  0.8185 -0.7705  0.6959
16028TIP3    H269500   2.833   4.652  13.606 -0.1845  1.1064 -0.0931
16029TIP3   OH269501   0.396   3.430  11.364 -0.0406 -0.2067 -0.6387
16029TIP3    H169502   0.324   3.464  11.416 -0.7731 -3.7342  0.9240
16029TIP3    H269503   0.374   3.455  11.274 -2.4782  0.0776 -0.0375
16030TIP3   OH269504   4.394   5.181  12.307  0.1500 -0.4775 -0.5423
16030TIP3    H169505   4.339   5.217  12.376  0.0072 -0.8177 -0.4787
16030TIP3    H269506   4.470   5.146  12.353  0.4172 -0.0201 -0.6280
16031TIP3   OH269507   0.845   6.305   4.045  0.1957 -0.1353  0.4004
16031TIP3    H169508   0.812   6.314   3.956  0.2692  1.2483  0.4950
16031TIP3    H269509   0.838   6.211   4.064 -1.5092 -0.2135 -0.4130
16032TIP3   OH269510   2.549   6.453  12.454 -0.3918  0.0897  0.8135
16032TIP3    H169511   2.480   6.509  12.487 -0.8073  0.7175 -0.9878
16032TIP3    H269512   2.503   6.383  12.407  0.0660  1.5987 -2.1615
16033TIP3   OH269513   6.017   2.725  15.225  0.0609  0.4350 -0.3243
16033TIP3    H169514   6.071   2.733  15.303 -0.4251 -2.6668  0.4436
16033TIP3    H269515   6.079   2.704  15.155  0.0542 -1.9842  0.3291
16034TIP3   OH269516   6.556   4.231   0.366  0.4285  0.0613 -0.2676
16034TIP3    H169517   6.577   4.151   0.319  1.3619  0.4701 -0.5739
16034TIP3    H269518   6.639   4.256   0.408  0.2053  0.9679 -0.3473
16035TIP3   OH269519   5.472   6.806  15.085 -0.1573  0.1545  0.2631
16035TIP3    H169520   5.379   6.794  15.103 -0.0726 -0.5883  0.2142
16035TIP3    H269521   5.484   6.901  15.081 -0.9212  0.2485  0.2160
16036TIP3   OH269522   6.710   4.487  15.540 -0.3460 -0.1147 -0.2592
16036TIP3    H169523   6.674   4.574  15.555  0.5443  0.2494 -0.1549
16036TIP3    H269524   6.768   4.498  15.464 -1.5470 -1.0038 -1.3672
16037TIP3   OH269525   2.880   1.624  14.429 -0.3834  0.1877  0.4015
16037TIP3    H169526   2.819   1.613  14.357 -0.6509  1.9992  0.3088
16037TIP3    H269527   2.959   1.660  14.389  0.3315 -1.0033  0.6971
16038TIP3   OH269528   4.421   0.899   0.689  0.0493  0.0929  0.3962
16038TIP3    H169529   4.353   0.869   0.628 -0.0211 -1.9544  1.4002
16038TIP3    H269530   4.402   0.992   0.701 -1.5848 -0.0685 -0.5972
16039TIP3   OH269531   1.783   6.528  13.330  0.6196 -0.1896 -0.0863
16039TIP3    H169532   1.745   6.597  13.385  1.3162 -0.4293  0.7250
16039TIP3    H269533   1.868   6.564  13.303  1.1873 -0.8770  0.7087
16040TIP3   OH269534   3.810   6.701   0.460  0.2013 -0.3693 -0.2749
16040TIP3    H169535   3.805   6.614   0.421  0.2709 -1.3997  1.8445
16040TIP3    H269536   3.780   6.760   0.392 -2.6797 -2.3327 -0.8861
16041TIP3   OH269537   5.434   3.207   5.144  0.2968 -0.3414  0.6759
16041TIP3    H169538   5.471   3.229   5.229 -0.2553  1.2293  0.5486
16041TIP3    H269539   5.353   3.258   5.139  1.3788  1.3319 -1.6170
16042TIP3   OH269540   0.881   5.773   4.962  0.5220  0.6119  0.1144
16042TIP3    H169541   0.932   5.853   4.952  1.0636  0.2162 -0.3348
16042TIP3    H269542   0.801   5.790   4.912  1.1585  0.4353 -1.0044
16043TIP3   OH269543   6.195   4.532  15.098 -0.6000  0.3342 -0.1528
16043TIP3    H169544   6.233   4.608  15.142 -1.1486 -0.2687  1.4204
16043TIP3    H269545   6.105   4.558  15.078 -0.1550  0.8581 -1.6163
16044TIP3   OH269546   0.462   1.437   5.376  0.4106 -0.0404  0.0718
16044TIP3    H169547   0.416   1.489   5.442  0.7040 -0.5831  0.7153
16044TIP3    H269548   0.473   1.351   5.416 -1.7633 -1.2404 -1.6790
16045TIP3   OH269549   4.251   0.454   5.063  1.0138 -0.3337  0.2317
16045TIP3    H169550   4.301   0.506   5.125 -1.2630 -0.0322  1.9186
16045TIP3    H269551   4.178   0.419   5.113  0.2569 -1.8908 -1.7963
16046TIP3   OH269552   3.319   4.557   5.501  0.0955 -0.3791 -0.6932
16046TIP3    H169553   3.311   4.652   5.514 -1.8131 -0.3736 -1.5140
16046TIP3    H269554   3.406   4.536   5.532 -0.1354  1.3349  1.3688
16047TIP3   OH269555   5.071   5.612   0.394  0.5364 -0.0602 -0.0480
16047TIP3    H169556   5.057   5.598   0.301  0.5607 -0.1364 -0.0404
16047TIP3    H269557   5.162   5.640   0.401  0.7607 -0.7907  0.0276
16048TIP3   OH269558   4.816   3.473  12.052 -0.6105 -0.1836  0.1881
16048TIP3    H169559   4.783   3.557  12.020  0.1728  0.5860  1.3500
16048TIP3    H269560   4.820   3.418  11.973 -0.2838  1.1416 -0.7600
16049TIP3   OH269561   1.739   2.873  13.157  0.1143  0.5758 -0.4118
16049TIP3    H169562   1.720   2.803  13.219  0.4522  0.8318 -0.0159
16049TIP3    H269563   1.719   2.835  13.071  3.6092 -1.3014 -0.5864
16050TIP3   OH269564   1.446   4.009  15.818 -0.1317 -0.0702  0.1733
16050TIP3    H169565   1.468   4.102  15.827  0.2702 -0.1977  0.5834
16050TIP3    H269566   1.521   3.964  15.856  0.7259 -0.6291 -2.0074
16051TIP3   OH269567   6.101   2.540  11.763  0.2085 -0.0247 -0.3142
16051TIP3    H169568   6.076   2.448  11.760  3.9967 -1.2276 -0.0723
16051TIP3    H269569   6.172   2.544  11.827 -0.4467  3.3042  0.4278
16052TIP3   OH269570   2.936   4.891   2.106 -0.2253 -0.3080  0.1468
16052TIP3    H169571   2.914   4.860   2.193 -0.0284 -0.8265  0.0140
16052TIP3    H269572   2.851   4.914   2.066 -0.1938  1.5516  1.0639
16053TIP3   OH269573   0.243   5.587  15.545 -0.6594 -0.0877 -0.3394
16053TIP3    H169574   0.251   5.498  15.510 -1.2351 -0.5293  0.5994
16053TIP3    H269575   0.203   5.575  15.631  0.0330  1.0132  0.1598
16054TIP3   OH269576   5.655   3.920  11.922  0.0059  0.4003 -0.0024
16054TIP3    H169577   5.667   3.994  11.863  1.3523 -0.4798 -0.8965
16054TIP3    H269578   5.574   3.878  11.893 -0.5837  1.2996  0.2995
16055TIP3   OH269579   2.522   3.413   0.901 -1.1629  0.0274 -0.2610
16055TIP3    H169580   2.580   3.465   0.958 -0.0003 -0.8878 -0.5680
16055TIP3    H269581   2.567   3.329   0.893 -1.8484 -0.2174 -1.6716
16056TIP3   OH269582   2.182   6.724   0.945  0.4033 -0.0732 -0.4408
16056TIP3    H169583   2.152   6.753   1.032  2.8416  2.4261 -0.3024
16056TIP3    H269584   2.155   6.795   0.886  0.1619 -0.9992 -1.4682
16057TIP3   OH269585   1.433   4.470  11.220 -0.6650 -0.1006  0.8204
16057TIP3    H169586   1.479   4.450  11.301 -1.0124 -0.5671  0.9087
16057TIP3    H269587   1.459   4.401  11.160  0.0012  0.5321  0.3578
16058TIP3   OH269588   5.772   2.618   0.771 -0.2370 -0.3701  0.1264
16058TIP3    H169589   5.705   2.680   0.740 -0.6829 -0.7698  0.2881
16058TIP3    H269590   5.753   2.607   0.864 -0.9074 -1.6788 -0.1495
16059TIP3   OH269591   1.044   0.840  12.637 -0.2966 -0.1098 -0.4334
16059TIP3    H169592   1.128   0.864  12.598 -0.3570 -0.0349 -0.5196
16059TIP3    H269593   1.021   0.915  12.693 -0.8989  0.4246 -1.3713
16060TIP3   OH269594   2.065   2.800  10.498 -0.3645 -0.4788  0.1375
16060TIP3    H169595   2.009   2.873  10.527 -0.3333 -0.0797 -0.7867
16060TIP3    H269596   2.072   2.811  10.403  0.7570 -0.8952  0.1536
16061TIP3   OH269597   4.355   5.667   1.548 -0.2882  0.3528 -0.3480
16061TIP3    H169598   4.415   5.742   1.540  0.1989  0.4324  2.6563
16061TIP3    H269599   4.413   5.592   1.562 -0.8109  0.0329  0.1652
16062TIP3   OH269600   2.579   3.376   3.104 -0.3189 -0.5383 -0.1046
16062TIP3    H169601   2.560   3.470   3.104  0.6111 -0.3166  1.7057
16062TIP3    H269602   2.599   3.356   3.012 -0.4080  1.0601 -0.5023
16063TIP3   OH269603   0.532   0.906  14.705 -0.7352 -0.1724 -0.1127
16063TIP3    H169604   0.454   0.855  14.683  0.2909 -0.9814 -2.1714
16063TIP3    H269605   0.603   0.842  14.706  0.5090  1.0264 -2.2769
16064TIP3   OH269606   5.724   1.192   0.778 -0.2024 -0.0106 -0.2075
16064TIP3    H169607   5.693   1.108   0.746  0.8618 -0.0126 -1.2907
16064TIP3    H269608   5.695   1.255   0.713  1.2136  0.1023 -0.7730
16065TIP3   OH269609   1.356   4.151   5.912  0.0351 -0.2260  0.4269
16065TIP3    H169610   1.348   4.123   5.821  1.5561 -0.2550  0.2869
16065TIP3    H269611   1.427   4.214   5.912 -0.7508  0.7024  1.4092
16066TIP3   OH269612   6.626   3.140  14.616  0.2746  0.3642 -0.1126
16066TIP3    H169613   6.552   3.079  14.623  0.8180 -0.2312  0.5550
16066TIP3    H269614   6.700   3.093  14.653  0.9790  0.9958 -0.6796
16067TIP3   OH269615   6.583   0.431   6.459  0.5536  0.2546 -0.2331
16067TIP3    H169616   6.507   0.470   6.415  0.4517 -1.5238 -1.7766
16067TIP3    H269617   6.653   0.438   6.394  1.5602  1.2792  0.9290
16068TIP3   OH269618   4.249   2.563   0.740  0.1419  0.1807  0.0533
16068TIP3    H169619   4.333   2.597   0.771  0.6476  0.2926 -1.3490
16068TIP3    H269620   4.269   2.473   0.713  0.5038  0.9889 -2.7286
16069TIP3   OH269621   3.591   1.638   2.512  0.4499 -0.1644  0.6731
16069TIP3    H169622   3.669   1.661   2.461  0.8351 -1.3453  0.6998
16069TIP3    H269623   3.622   1.575   2.576 -0.8072 -1.9356 -0.3744
16070TIP3   OH269624   4.957   0.619   0.861 -0.3616  0.2546  0.0469
16070TIP3    H169625   4.946   0.539   0.912  0.5769  0.4994  0.6561
16070TIP3    H269626   4.879   0.671   0.881 -2.1853 -1.4215 -2.1559
16071TIP3   OH269627   3.640   0.890   3.885  0.0536 -0.3439 -0.1886
16071TIP3    H169628   3.656   0.985   3.889 -0.1179 -0.2872 -0.6743
16071TIP3    H269629   3.545   0.882   3.878  0.1291 -0.4791 -1.4474
16072TIP3   OH269630   6.480   4.223  15.075  0.2718 -0.4537  0.4268
16072TIP3    H169631   6.426   4.183  15.143  0.7555  0.9756  1.7138
16072TIP3    H269632   6.527   4.150  15.035 -0.1429 -1.3545  1.5352
16073TIP3   OH269633   2.598   4.123  15.495  0.0690 -0.2972 -1.1035
16073TIP3    H169634   2.677   4.168  15.464 -0.3277  2.3879  1.3273
16073TIP3    H269635   2.527   4.165  15.448 -0.1679  0.3647 -0.1888
16074TIP3   OH269636   1.250   0.957   0.648  0.3992 -0.1981 -0.0826
16074TIP3    H169637   1.331   0.908   0.666  1.2903  1.5871  0.9728
16074TIP3    H269638   1.239   1.014   0.724 -2.2451 -0.8398  0.0974
16075TIP3   OH269639   3.177   4.571  11.227 -0.0840  0.6547 -0.0764
16075TIP3    H169640   3.166   4.664  11.207 -0.5229  0.1581 -2.3574
16075TIP3    H269641   3.095   4.530  11.200  1.8347 -1.0751 -3.9747
16076TIP3   OH269642   1.216   4.227   2.304 -0.0894  0.1717  0.0166
16076TIP3    H169643   1.134   4.184   2.328  0.2329 -0.3919  0.1239
16076TIP3    H269644   1.195   4.276   2.224 -0.0760 -1.4800 -1.0394
16077TIP3   OH269645   6.517   2.846  14.165  0.0262 -0.0608 -0.0072
16077TIP3    H169646   6.555   2.841  14.077  0.8039  0.0695  0.3170
16077TIP3    H269647   6.555   2.924  14.204 -0.7752  0.2207  0.2445
16078TIP3   OH269648   6.153   0.177  13.457  1.0562  0.0641 -0.5617
16078TIP3    H169649   6.234   0.181  13.405  0.1340 -2.6147 -2.4303
16078TIP3    H269650   6.131   0.084  13.460 -1.5645  0.6297  0.5558
16079TIP3   OH269651   2.207   3.480   4.045  0.4187 -0.3212  0.2344
16079TIP3    H169652   2.270   3.550   4.067  1.9524 -1.1768 -1.1855
16079TIP3    H269653   2.243   3.402   4.087 -0.9422 -0.4219  1.2713
16080TIP3   OH269654   0.591   4.224   3.896  0.3655 -0.2915  0.2893
16080TIP3    H169655   0.503   4.193   3.874  0.1006  1.3385 -1.1892
16080TIP3    H269656   0.634   4.148   3.935 -1.5666 -1.2411  0.7484
16081TIP3   OH269657   0.702   3.325   5.067 -0.3835  0.0083  0.5369
16081TIP3    H169658   0.693   3.257   5.133  1.0264 -2.6176 -1.8004
16081TIP3    H269659   0.773   3.296   5.010 -2.8620  0.8935 -3.4592
16082TIP3   OH269660   4.829   5.828   0.125 -0.3960  0.4834 -0.0985
16082TIP3    H169661   4.802   5.917   0.151 -0.9166  0.5830 -0.9217
16082TIP3    H269662   4.922   5.836   0.105 -0.6820  1.1440 -1.3016
16083TIP3   OH269663   6.063   2.305   0.708  0.5677  0.1369 -0.3488
16083TIP3    H169664   6.091   2.394   0.726 -0.6564  0.6509 -0.8306
16083TIP3    H269665   6.063   2.261   0.794  1.3537  0.5351 -0.1409
16084TIP3   OH269666   0.669   1.242  15.683  0.1025  0.2451 -0.4556
16084TIP3    H169667   0.745   1.297  15.698 -0.1579  1.4096 -2.8827
16084TIP3    H269668   0.697   1.182  15.614 -1.0308  0.4527 -1.1185
16085TIP3   OH269669   3.458   1.141   1.494 -0.1997 -0.1996  0.5624
16085TIP3    H169670   3.504   1.153   1.577  1.1811 -0.0474 -0.1831
16085TIP3    H269671   3.527   1.117   1.432 -1.2675 -0.7960 -0.4430
16086TIP3   OH269672   6.251   0.905  11.582 -0.2979 -0.2066 -0.0853
16086TIP3    H169673   6.311   0.970  11.544 -1.1659  1.9548  2.0454
16086TIP3    H269674   6.255   0.831  11.520  3.8311  0.1422 -0.5447
16087TIP3   OH269675   6.180   6.545  12.988 -1.0851 -0.5409 -0.1942
16087TIP3    H169676   6.226   6.546  12.904 -0.7322  1.5942 -0.0483
16087TIP3    H269677   6.137   6.460  12.992 -0.5678 -0.9366 -2.2342
16088TIP3   OH269678   2.123   4.936  10.838 -0.8033  0.3466 -0.5162
16088TIP3    H169679   2.118   4.989  10.758 -1.2862 -0.8574 -1.3130
16088TIP3    H269680   2.152   4.850  10.808 -3.1929 -0.8218  0.2436
16089TIP3   OH269681   4.863   3.540   3.474 -0.0215 -0.2280 -0.1377
16089TIP3    H169682   4.868   3.584   3.389 -3.3251  1.3702  0.3271
16089TIP3    H269683   4.886   3.608   3.538 -2.1206  0.0616  0.4064
16090TIP3   OH269684   5.002   5.791   4.806 -0.3935 -0.5692 -0.2982
16090TIP3    H169685   5.033   5.749   4.886  0.7075  0.0488 -0.3732
16090TIP3    H269686   4.908   5.807   4.822 -0.2907 -0.8708  0.6795
16091TIP3   OH269687   3.042   3.187   0.115  0.0319 -1.0127  0.2134
16091TIP3    H169688   3.137   3.195   0.104 -0.1334  0.4100 -0.3841
16091TIP3    H269689   3.012   3.143   0.035  0.0331 -0.1119 -0.2957
16092TIP3   OH269690   3.596   5.497   3.840  0.1793 -0.5029 -0.0872
16092TIP3    H169691   3.504   5.498   3.815  0.1411  0.5461  0.0580
16092TIP3    H269692   3.640   5.551   3.774  0.4587  0.1944  0.6504
16093TIP3   OH269693   0.967   2.111  12.471  0.5453 -0.5991 -0.1026
16093TIP3    H169694   0.939   2.202  12.473  0.7011 -0.5606  2.1935
16093TIP3    H269695   1.062   2.115  12.459  0.5355 -0.4689 -0.1321
16094TIP3   OH269696   1.091   5.564   2.510  0.0107  0.1507  0.4153
16094TIP3    H169697   1.061   5.655   2.501 -0.3147  0.0105  0.0207
16094TIP3    H269698   1.138   5.547   2.428 -1.3108 -0.5350 -0.2392
16095TIP3   OH269699   0.795   4.700   3.115 -0.0521  0.3530  0.3094
16095TIP3    H169700   0.783   4.611   3.082  1.0963  0.2333  0.1745
16095TIP3    H269701   0.708   4.727   3.142 -0.4124 -0.8321  0.3971
16096TIP3   OH269702   0.536   5.853  14.461  0.6480 -0.2880 -0.1477
16096TIP3    H169703   0.442   5.844  14.473  0.3553 -1.2785 -2.6261
16096TIP3    H269704   0.550   5.948  14.452 -0.1001 -0.1274  0.3381
16097TIP3   OH269705   0.795   4.794   1.775 -0.1754 -0.1762 -0.5208
16097TIP3    H169706   0.852   4.862   1.739  1.9884 -1.5997  0.0947
16097TIP3    H269707   0.826   4.780   1.864 -2.2871 -0.1824  0.2864
16098TIP3   OH269708   4.770   0.786  11.460  0.1060  0.1288  0.7899
16098TIP3    H169709   4.735   0.823  11.379  2.1831  1.7014  0.5132
16098TIP3    H269710   4.793   0.696  11.437 -1.2331 -0.0889  0.2460
16099TIP3   OH269711   2.766   5.710   3.053  0.3962 -0.0669 -0.3950
16099TIP3    H169712   2.785   5.681   2.964  0.2575 -0.1002 -0.4144
16099TIP3    H269713   2.836   5.673   3.106  0.4339 -0.1152 -0.4788
16100TIP3   OH269714   5.453   3.740  10.424 -0.2761 -0.2916 -0.4664
16100TIP3    H169715   5.432   3.829  10.395 -0.0861  0.0996  0.5562
16100TIP3    H269716   5.372   3.690  10.412 -1.4458  0.8297  2.0461
16101TIP3   OH269717   4.275   5.704  11.497 -0.5057 -0.3955  0.2065
16101TIP3    H169718   4.303   5.792  11.472 -0.2107  0.7325  3.8232
16101TIP3    H269719   4.355   5.651  11.493 -0.3064 -0.0523 -0.3480
16102TIP3   OH269720   0.803   6.500  10.752 -0.0214 -0.5941 -0.4868
16102TIP3    H169721   0.886   6.490  10.800 -0.4742 -1.8492  0.0548
16102TIP3    H269722   0.748   6.551  10.811 -0.0281 -0.7347 -0.3724
16103TIP3   OH269723   0.495   3.938   3.196  0.4766 -0.0125 -0.5384
16103TIP3    H169724   0.574   3.987   3.172  0.6299 -0.3680 -0.7867
16103TIP3    H269725   0.429   3.966   3.133  0.4351  0.2047 -0.3993
16104TIP3   OH269726   4.671   6.333   1.624  0.0923  0.1684  0.1908
16104TIP3    H169727   4.642   6.253   1.580  0.6542 -0.5793  1.1133
16104TIP3    H269728   4.591   6.380   1.645 -0.2358 -0.0480 -0.5611
16105TIP3   OH269729   2.203   6.653  15.270 -0.2095  0.0126 -0.0381
16105TIP3    H169730   2.271   6.675  15.334 -0.0706  1.6426 -0.6786
16105TIP3    H269731   2.124   6.698  15.302  0.0697  1.5621 -1.3947
16106TIP3   OH269732   6.490   0.784   4.836  0.0565  0.7395  0.2662
16106TIP3    H169733   6.440   0.759   4.758  0.8941  0.8964 -0.3353
16106TIP3    H269734   6.566   0.726   4.836 -0.6775 -0.3088  1.8293
16107TIP3   OH269735   6.612   5.173   9.842  0.2542  0.3155 -0.1539
16107TIP3    H169736   6.540   5.207   9.789  1.3799  1.1150 -1.2336
16107TIP3    H269737   6.624   5.238   9.911 -0.2832 -0.0060  0.2497
16108TIP3   OH269738   5.170   1.012   3.348  0.0943 -0.0248 -0.0920
16108TIP3    H169739   5.186   1.107   3.345  0.4024 -0.0944 -1.8104
16108TIP3    H269740   5.105   1.001   3.417 -1.3083  1.6625 -1.0548
16109TIP3   OH269741   2.374   4.107  15.103 -0.2043  0.6091 -0.0711
16109TIP3    H169742   2.451   4.161  15.090 -0.5271  0.7832 -1.3576
16109TIP3    H269743   2.338   4.094  15.015 -2.1257  1.2740  0.5536
16110TIP3   OH269744   5.089   2.096   4.943 -0.2771  0.5119  0.0781
16110TIP3    H169745   5.115   2.004   4.937  1.4888  0.9564  0.3375
16110TIP3    H269746   5.130   2.138   4.867 -1.7420  0.9544 -0.4903
16111TIP3   OH269747   0.695   5.792   4.718 -0.3118 -0.5840 -0.4058
16111TIP3    H169748   0.717   5.809   4.627  0.6662 -0.2837 -0.1239
16111TIP3    H269749   0.655   5.705   4.717  0.4295 -0.9370 -1.0185
16112TIP3   OH269750   6.692   3.452   5.230 -0.2209  0.0059  0.3133
16112TIP3    H169751   6.692   3.371   5.180  0.2137  0.8814 -1.1705
16112TIP3    H269752   6.752   3.435   5.303 -0.4824 -1.1418  0.2769
16113TIP3   OH269753   0.351   5.312   3.173 -0.5632 -0.4557  0.0856
16113TIP3    H169754   0.313   5.246   3.117  1.2150 -1.7111  0.2682
16113TIP3    H269755   0.286   5.326   3.242 -2.3711  0.4428 -1.7078
16114TIP3   OH269756   2.293   2.373   3.358  0.1069  0.0522  0.6294
16114TIP3    H169757   2.388   2.389   3.361  0.1474  2.2271 -3.8895
16114TIP3    H269758   2.282   2.310   3.287 -1.8987  0.9872  0.0545
16115TIP3   OH269759   0.704   0.838   3.594 -0.0634  0.4111 -0.5312
16115TIP3    H169760   0.794   0.850   3.563  0.2548 -0.1883  0.1457
16115TIP3    H269761   0.702   0.750   3.631 -0.8169  0.5775 -0.1443
16116TIP3   OH269762   3.196   2.932   3.432  0.3976  0.3242 -0.3550
16116TIP3    H169763   3.217   2.979   3.513 -0.0723 -0.5286  0.2718
16116TIP3    H269764   3.270   2.951   3.374  0.1990  1.8886 -0.1573
16117TIP3   OH269765   1.812   5.021   2.856 -0.3164 -0.3014  0.3771
16117TIP3    H169766   1.727   5.032   2.898  0.1930  0.9927  1.1330
16117TIP3    H269767   1.801   4.946   2.797 -1.9527 -0.1756  0.4960
16118TIP3   OH269768   3.467   1.776  15.097 -0.0753 -0.1343 -0.0990
16118TIP3    H169769   3.457   1.778  15.002 -0.0232  0.1235 -0.0987
16118TIP3    H269770   3.470   1.683  15.118 -0.6755 -0.2014 -0.2885
16119TIP3   OH269771   3.013   6.490  10.185  0.3105  0.2419  0.1260
16119TIP3    H169772   2.946   6.431  10.218  0.6448 -0.2184 -0.0067
16119TIP3    H269773   3.006   6.568  10.239  0.0414 -0.0253  0.4760
16120TIP3   OH269774   6.545   0.633   0.429 -0.1712 -0.3661 -0.4974
16120TIP3    H169775   6.520   0.564   0.491  0.2019 -0.1247 -0.0768
16120TIP3    H269776   6.630   0.664   0.460  1.3612 -2.0852 -2.6526
16121TIP3   OH269777   6.660   5.573  12.591 -0.0770 -0.3151 -0.4704
16121TIP3    H169778   6.637   5.622  12.512 -0.6740  1.1562  0.5569
16121TIP3    H269779   6.754   5.586  12.600 -0.1801  0.4610 -0.3674
16122TIP3   OH269780   0.061   5.252  14.275  0.5789 -1.0496  0.3490
16122TIP3    H169781   0.104   5.235  14.192 -0.1607 -0.9365 -0.0697
16122TIP3    H269782  -0.003   5.181  14.284 -0.1166 -0.4412  0.2774
16123TIP3   OH269783   1.647   5.475  14.034  0.4621  0.0655 -0.0930
16123TIP3    H169784   1.688   5.561  14.028  1.4303 -0.4215 -0.8382
16123TIP3    H269785   1.707   5.417  13.986 -0.1187 -1.0363  0.4772
16124TIP3   OH269786   3.668   1.705  13.219  0.1086 -0.0397 -0.3105
16124TIP3    H169787   3.669   1.764  13.295  0.2044  0.5850 -0.7884
16124TIP3    H269788   3.760   1.684  13.204  0.1160  0.0908 -0.4481
16125TIP3   OH269789   2.748   2.028   0.545 -0.0561  0.3737  0.4928
16125TIP3    H169790   2.729   2.043   0.638  0.3929  0.4813  0.5686
16125TIP3    H269791   2.702   1.947   0.524  1.7271 -0.9398  1.4160
16126TIP3   OH269792   4.136   2.069   5.393 -0.3596 -0.2138 -0.5205
16126TIP3    H169793   4.042   2.073   5.410 -0.0247 -0.9409  1.8598
16126TIP3    H269794   4.156   1.975   5.394  0.4395 -0.0515 -0.7500
16127TIP3   OH269795   6.367   3.337   5.166  0.6100 -0.0788 -0.0187
16127TIP3    H169796   6.387   3.344   5.073 -0.4534 -1.3472 -0.3716
16127TIP3    H269797   6.397   3.250   5.191  0.8497  0.2303  0.8337
16128TIP3   OH269798   1.413   3.709   3.549 -0.2232 -0.1053 -0.3740
16128TIP3    H169799   1.433   3.644   3.481 -1.5507 -0.3971 -0.5169
16128TIP3    H269800   1.339   3.671   3.597 -0.0256  0.6183  0.5246
16129TIP3   OH269801   6.631   3.734  10.775 -0.1294 -0.6163 -0.6234
16129TIP3    H169802   6.576   3.658  10.754  1.8901 -1.8197 -2.0168
16129TIP3    H269803   6.661   3.766  10.689  0.3524  0.7464  0.0265
16130TIP3   OH269804   4.591   3.534   3.785  0.0003  0.2393 -0.4230
16130TIP3    H169805   4.573   3.609   3.728 -1.1838 -0.3299 -0.8256
16130TIP3    H269806   4.561   3.561   3.871  0.2008  0.4729 -0.4250
16131TIP3   OH269807   3.970   1.792   3.068  0.5572 -0.4578  0.0820
16131TIP3    H169808   3.987   1.878   3.107  1.1668 -0.8655  0.7484
16131TIP3    H269809   4.052   1.744   3.081  0.0099 -1.3558  0.2982
16132TIP3   OH269810   2.130   3.996   6.138 -0.1455  0.1468  0.3707
16132TIP3    H169811   2.093   3.968   6.222  1.1474 -1.0385  0.5881
16132TIP3    H269812   2.059   3.986   6.076 -1.4725  2.0962  1.4676
16133TIP3   OH269813   1.658   4.663  12.636 -0.2752  0.1771  0.2060
16133TIP3    H169814   1.567   4.647  12.609 -0.6277  0.3329  1.2530
16133TIP3    H269815   1.688   4.733  12.578 -0.9839  0.4578  0.1618
16134TIP3   OH269816   1.015   6.854   0.806 -0.3386  0.0873 -0.1906
16134TIP3    H169817   1.065   6.850   0.724  0.5139  1.0617  0.2555
16134TIP3    H269818   1.082   6.863   0.874 -1.0985  0.8236  0.4740
16135TIP3   OH269819   3.613   1.295   5.475  0.1043 -0.3865 -0.2047
16135TIP3    H169820   3.545   1.324   5.414  1.5176 -1.3174 -2.3399
16135TIP3    H269821   3.565   1.249   5.544 -1.4404 -1.2051 -1.7511
16136TIP3   OH269822   0.445   6.842  14.069 -0.1044  0.4729 -0.2272
16136TIP3    H169823   0.430   6.920  14.123 -1.6502 -0.9283  1.5348
16136TIP3    H269824   0.359   6.800  14.064  1.0912 -2.3286  0.9253
16137TIP3   OH269825   5.507   0.346  14.713  0.7288 -0.1555 -0.0693
16137TIP3    H169826   5.431   0.382  14.667 -1.3410 -2.7889  1.0181
16137TIP3    H269827   5.511   0.255  14.685  2.7842 -0.3971  0.8262
16138TIP3   OH269828   3.702   1.765  14.096 -0.4957 -0.5802  0.3625
16138TIP3    H169829   3.743   1.789  14.013 -2.8212 -1.3241 -1.1325
16138TIP3    H269830   3.740   1.680  14.118  2.0767  0.7671  1.5738
16139TIP3   OH269831   3.137   1.186   2.398 -0.0239  0.5423  0.0384
16139TIP3    H169832   3.113   1.235   2.477 -0.1527  0.3850  0.0976
16139TIP3    H269833   3.203   1.124   2.428  0.4961  1.0047 -0.1329
16140TIP3   OH269834   2.388   4.377  12.084 -0.0892 -0.0079  0.4925
16140TIP3    H169835   2.313   4.329  12.120  0.9659 -1.6552  0.5856
16140TIP3    H269836   2.351   4.460  12.052 -2.0658 -1.0829 -0.1307
16141TIP3   OH269837   0.369   2.908   0.224  0.2258  0.4039  0.0781
16141TIP3    H169838   0.330   2.826   0.192 -1.7061  1.5572 -0.6916
16141TIP3    H269839   0.452   2.881   0.263 -0.1159 -1.8554 -0.5946
16142TIP3   OH269840   2.616   5.797   4.031  0.4141  0.4199  0.6607
16142TIP3    H169841   2.638   5.870   3.973  1.9634 -0.2441  0.3751
16142TIP3    H269842   2.603   5.722   3.972 -0.8882  0.3816  0.9714
16143TIP3   OH269843   6.869   6.384  15.082  0.5621 -0.3100 -0.1924
16143TIP3    H169844   6.934   6.430  15.029  1.3120  0.1691  1.0779
16143TIP3    H269845   6.860   6.298  15.041 -0.2293  0.6303 -2.1229
16144TIP3   OH269846   3.253   6.414  15.940 -0.0676 -0.3381  0.4459
16144TIP3    H169847   3.317   6.462  15.887  0.4906 -0.8522  0.6368
16144TIP3    H269848   3.242   6.468  16.018  1.3244 -0.9794  1.1257
16145TIP3   OH269849   4.234   5.779   1.314 -0.2278 -0.2580 -0.1818
16145TIP3    H169850   4.216   5.718   1.243  0.3352 -1.8252  0.9819
16145TIP3    H269851   4.281   5.728   1.379  1.3915  1.7247  0.3104
16146TIP3   OH269852   6.776   0.293   2.810  0.0094 -0.2327 -0.0184
16146TIP3    H169853   6.687   0.287   2.845  0.4759  1.0776  1.5502
16146TIP3    H269854   6.784   0.219   2.750 -1.9311 -0.7175  0.2543
16147TIP3   OH269855   0.861   4.041  11.182  0.0389  0.2890  0.2996
16147TIP3    H169856   0.902   3.963  11.219 -0.4527 -0.5270 -0.8240
16147TIP3    H269857   0.773   4.013  11.157 -0.2997  1.3219  0.2568
16148TIP3   OH269858   1.322   6.056   3.904  0.2404 -0.5289 -0.3961
16148TIP3    H169859   1.365   6.112   3.967  0.3157  1.5345 -2.1779
16148TIP3    H269860   1.386   6.045   3.833 -1.6037  1.6388 -2.5468
16149TIP3   OH269861   0.302   3.570   1.070  0.0535 -0.3412 -0.7377
16149TIP3    H169862   0.245   3.559   0.994 -0.7440 -1.7014  0.0320
16149TIP3    H269863   0.242   3.576   1.145  0.7596  2.0296 -0.2732
16150TIP3   OH269864   5.378   0.974   5.112  0.5613  0.3294 -0.1291
16150TIP3    H169865   5.431   0.913   5.164  0.6120  0.9936  0.6105
16150TIP3    H269866   5.426   1.057   5.116  0.0008  0.6672 -0.3279
16151TIP3   OH269867   6.277   4.186  14.031 -0.2083 -0.0782 -0.1114
16151TIP3    H169868   6.240   4.232  14.106  1.3698  1.4464 -0.2018
16151TIP3    H269869   6.356   4.145  14.064 -0.2040 -0.5146 -0.6413
16152TIP3   OH269870   2.246   6.021   1.514 -0.0392 -0.4772  0.1156
16152TIP3    H169871   2.181   5.955   1.540  0.3107 -0.6579  0.5495
16152TIP3    H269872   2.201   6.074   1.448 -0.3444 -1.1125 -0.1989
16153TIP3   OH269873   3.763   6.178   1.346  0.3588 -0.0848  0.0190
16153TIP3    H169874   3.692   6.167   1.283 -0.4062 -0.2781  0.8927
16153TIP3    H269875   3.819   6.245   1.307  0.4055 -0.8320 -1.2836
16154TIP3   OH269876   6.528   4.512   2.822  0.5465 -0.1350  0.1834
16154TIP3    H169877   6.614   4.470   2.822  0.6155 -0.0137  1.1657
16154TIP3    H269878   6.510   4.529   2.730  0.6228 -2.0973 -0.2504
16155TIP3   OH269879   3.635   0.064   5.181 -0.0364  0.0266 -0.2062
16155TIP3    H169880   3.659   0.021   5.263 -0.0051 -0.8780 -0.6705
16155TIP3    H269881   3.539   0.071   5.184 -0.0882 -0.5764 -0.3604
16156TIP3   OH269882   1.851   3.526  11.835  0.1653  0.3575  0.4584
16156TIP3    H169883   1.789   3.597  11.821  0.3800  0.3250 -0.7321
16156TIP3    H269884   1.910   3.530  11.760  0.7753 -0.4654  0.8767
16157TIP3   OH269885   1.693   0.393  16.375 -0.3019  0.5671  0.2169
16157TIP3    H169886   1.697   0.489  16.372 -0.5775  0.5685 -2.5127
16157TIP3    H269887   1.691   0.366  16.284  0.4475 -2.1115  0.8898
16158TIP3   OH269888   2.961   3.919  12.231 -0.2575 -0.4426  0.9959
16158TIP3    H169889   2.922   4.004  12.210 -2.1762 -1.3780  0.5391
16158TIP3    H269890   2.987   3.926  12.323 -0.4381  0.5973  0.9812
16159TIP3   OH269891   2.098   6.621   3.692  0.1849 -0.4914 -0.2500
16159TIP3    H169892   2.156   6.603   3.766 -1.1952 -3.3281  0.2672
16159TIP3    H269893   2.147   6.683   3.638  2.5211 -0.6785  1.4912
16160TIP3   OH269894   6.842   3.880   4.717  0.5645  0.9506 -0.1150
16160TIP3    H169895   6.855   3.845   4.628  0.3787  1.4169 -0.3257
16160TIP3    H269896   6.825   3.802   4.770  1.2640  0.6054 -0.3730
16161TIP3   OH269897   5.346   5.458  12.918 -0.1485 -0.0827  0.5283
16161TIP3    H169898   5.370   5.542  12.880  1.2883  0.4979  2.5763
16161TIP3    H269899   5.258   5.472  12.952 -0.8010 -0.1266 -1.0371
16162TIP3   OH269900   3.106   4.277  12.102 -0.1738 -0.2247  0.5177
16162TIP3    H169901   3.174   4.212  12.120  1.0646  0.1400 -2.2577
16162TIP3    H269902   3.029   4.246  12.149  1.0854 -2.2734  1.3635
16163TIP3   OH269903   2.001   6.369  15.259  0.0153  0.5731  0.4481
16163TIP3    H169904   1.940   6.296  15.271 -0.6908  1.3753  2.0329
16163TIP3    H269905   1.978   6.405  15.173 -0.3741 -0.3775  0.1360
16164TIP3   OH269906   5.908   2.224  10.213  0.1344  0.1151  0.7754
16164TIP3    H169907   5.983   2.247  10.268  0.6959 -0.9766  0.4987
16164TIP3    H269908   5.892   2.132  10.232 -1.1985  0.3575  0.8832
16165TIP3   OH269909   4.610   3.336   4.532 -0.2024 -0.0693  0.5668
16165TIP3    H169910   4.609   3.242   4.550 -0.8625  0.0394  1.1625
16165TIP3    H269911   4.691   3.351   4.485 -0.0768 -0.9365  0.4927
16166TIP3   OH269912   5.204   6.834  15.617 -0.3759  0.7340  0.2376
16166TIP3    H169913   5.298   6.819  15.629 -0.2947  0.4664 -0.6972
16166TIP3    H269914   5.194   6.929  15.624  0.4393  1.1222 -2.5968
16167TIP3   OH269915   6.473   6.537  11.029 -0.2304  0.5085 -0.0104
16167TIP3    H169916   6.496   6.626  11.004  1.2221  0.4912  1.0683
16167TIP3    H269917   6.409   6.508  10.964 -1.1547  2.5195 -0.0494
16168TIP3   OH269918   3.748   3.695   1.688 -0.3968 -0.2781  0.1253
16168TIP3    H169919   3.779   3.695   1.778  0.2555 -1.1760 -0.0928
16168TIP3    H269920   3.734   3.603   1.666  0.9318 -0.2086 -1.1711
16169TIP3   OH269921   4.908   1.474   5.250 -0.1591  0.3184 -0.2906
16169TIP3    H169922   4.927   1.469   5.157 -2.6091  0.4609 -0.8789
16169TIP3    H269923   4.835   1.412   5.263 -0.2308  0.6974  1.4067
16170TIP3   OH269924   4.055   3.434   5.023 -0.5864 -0.7305 -0.3604
16170TIP3    H169925   4.074   3.513   5.073 -0.0417 -1.0044 -0.1282
16170TIP3    H269926   4.116   3.369   5.057 -0.2046 -0.9290 -1.3847
16171TIP3   OH269927   5.005   3.209   1.120  0.0834  0.6207  0.3566
16171TIP3    H169928   4.994   3.120   1.154  0.6891 -0.1100 -1.2613
16171TIP3    H269929   4.918   3.234   1.089 -0.1182  0.6422  0.9414
16172TIP3   OH269930   2.453   3.736  14.981 -0.0538  0.5067  0.1656
16172TIP3    H169931   2.490   3.793  14.914 -0.7449  0.5049 -0.2257
16172TIP3    H269932   2.492   3.767  15.063  0.5116  0.7427 -0.1918
16173TIP3   OH269933   0.921   6.261   1.438 -0.6035 -0.0718  0.5970
16173TIP3    H169934   1.000   6.207   1.437 -0.5060  0.0745 -0.0438
16173TIP3    H269935   0.889   6.259   1.348 -0.8941  0.4986  0.6814
16174TIP3   OH269936   6.271   0.155   4.861  0.0596  0.3611  0.2254
16174TIP3    H169937   6.202   0.221   4.857 -0.6191 -0.3742 -0.8254
16174TIP3    H269938   6.294   0.150   4.953  0.1146  2.0407  0.3268
16175TIP3   OH269939   6.679   5.666  11.617 -0.3623  0.2697 -0.3374
16175TIP3    H169940   6.610   5.626  11.671 -0.0607 -0.9095 -0.7881
16175TIP3    H269941   6.635   5.687  11.534  0.0940 -1.8112 -1.1662
16176TIP3   OH269942   0.417   5.580  12.533  0.6654  0.0615  0.2701
16176TIP3    H169943   0.338   5.634  12.531  0.0547 -0.8102  0.1740
16176TIP3    H269944   0.472   5.621  12.600  0.7277  1.4735 -0.5994
16177TIP3   OH269945   1.933   3.670   2.742  0.3044  0.1151  0.4417
16177TIP3    H169946   1.861   3.712   2.695 -0.0548  1.3783  2.0375
16177TIP3    H269947   2.010   3.683   2.686 -0.5016 -0.3346 -0.7850
16178TIP3   OH269948   1.681   6.045  13.803 -0.1488 -0.0188  0.3311
16178TIP3    H169949   1.655   5.960  13.768 -1.1455  0.3514  0.1246
16178TIP3    H269950   1.774   6.036  13.823 -0.3288 -1.2815  0.6822
16179TIP3   OH269951   4.077   2.749  13.015  0.3243  0.2047 -0.1579
16179TIP3    H169952   4.130   2.737  13.094 -2.3396 -1.3074  1.5729
16179TIP3    H269953   4.071   2.844  13.003  1.5871  0.4287  0.8539
16180TIP3   OH269954   0.996   6.250   1.781 -0.3905 -0.1316 -0.2511
16180TIP3    H169955   0.985   6.322   1.844 -0.4978 -0.0259 -0.3908
16180TIP3    H269956   1.046   6.289   1.709 -2.4824  0.4777 -1.4520
16181TIP3   OH269957   0.605   5.305   2.660 -0.1487 -0.0248  0.5014
16181TIP3    H169958   0.666   5.257   2.716 -0.6620 -0.5302  0.6459
16181TIP3    H269959   0.536   5.241   2.641 -0.2694  0.3244 -0.2330
16182TIP3   OH269960   3.248   2.678  12.367  0.3872 -0.1957 -0.9389
16182TIP3    H169961   3.264   2.663  12.460  1.9886  0.5649 -1.0663
16182TIP3    H269962   3.153   2.688  12.360  0.3122  0.4686  0.7163
16183TIP3   OH269963   2.168   2.286  14.592  0.3556  0.8850  0.1905
16183TIP3    H169964   2.171   2.206  14.644  2.3175  0.7891  0.0147
16183TIP3    H269965   2.075   2.298  14.572 -0.0389 -1.0876  0.5972
16184TIP3   OH269966   5.299   5.114  10.253  0.2789  0.3128  0.0804
16184TIP3    H169967   5.370   5.134  10.314  0.5076  0.4762 -0.2340
16184TIP3    H269968   5.341   5.061  10.185  0.1316  0.5321 -0.1826
16185TIP3   OH269969   0.994   0.629  16.196  0.1671 -0.5250  0.3685
16185TIP3    H169970   1.015   0.721  16.215  1.3611 -0.9667  1.2640
16185TIP3    H269971   0.929   0.605  16.262  0.5543 -0.5863  0.7323
16186TIP3   OH269972   1.819   0.051   3.934 -0.2965 -0.4501  0.1095
16186TIP3    H169973   1.870   0.082   4.008  2.2408  0.0575 -1.7140
16186TIP3    H269974   1.858  -0.034   3.912 -0.7745 -0.4401 -0.8467
16187TIP3   OH269975   0.566   4.541  11.630 -0.6442 -0.2354 -0.0551
16187TIP3    H169976   0.621   4.552  11.552  0.0124  0.6456  0.5052
16187TIP3    H269977   0.605   4.467  11.676 -1.4046 -1.1495 -0.8534
16188TIP3   OH269978   3.915   3.586  11.928  0.4436  0.0739 -0.4324
16188TIP3    H169979   3.884   3.633  11.850 -0.4879 -0.6654 -0.5214
16188TIP3    H269980   3.901   3.648  12.000  1.1437  0.6942 -0.8094
16189TIP3   OH269981   0.494   5.013   0.888 -0.5336 -0.2930 -0.7052
16189TIP3    H169982   0.455   5.101   0.882 -0.0637 -0.0234  0.0109
16189TIP3    H269983   0.475   4.985   0.977 -2.3837 -1.7550 -1.5150
16190TIP3   OH269984   4.266   4.600   1.383 -0.1509  0.0267  0.2195
16190TIP3    H169985   4.348   4.579   1.337 -0.8135  1.3838 -1.7294
16190TIP3    H269986   4.291   4.604   1.475  2.2564  1.4826 -0.3879
16191TIP3   OH269987   1.587   4.145  11.747  0.0148  0.6580 -0.1994
16191TIP3    H169988   1.587   4.102  11.662  1.0182 -0.6022  0.4042
16191TIP3    H269989   1.497   4.176  11.759 -0.5486 -0.5796 -1.0147
16192TIP3   OH269990   4.767   1.045  11.855 -0.2608 -0.6877 -0.1480
16192TIP3    H169991   4.729   0.963  11.887 -0.8062 -0.0851  0.8113
16192TIP3    H269992   4.816   1.020  11.776 -3.0974 -1.4191 -1.7967
16193TIP3   OH269993   6.021   1.030   5.361 -0.1406  0.0277 -0.1023
16193TIP3    H169994   6.022   0.994   5.450  2.1358 -0.6425 -0.3391
16193TIP3    H269995   6.047   0.957   5.305 -0.5727  0.7048 -1.2102
16194TIP3   OH269996   2.805   0.619  16.174  0.4751 -0.2129  0.5238
16194TIP3    H169997   2.810   0.540  16.120 -0.4281 -0.4355  0.7567
16194TIP3    H269998   2.895   0.651  16.177  0.4588  0.3023 -1.8315
16195TIP3   OH269999   5.465   1.227   5.223  0.2731  0.5238 -0.5317
16195TIP3    H170000   5.484   1.321   5.217 -0.0471  0.5512 -1.3092
16195TIP3    H270001   5.380   1.223   5.268  0.2920  0.6080 -0.4876
16196TIP3   OH270002   3.349   4.928  16.244 -0.0156 -0.2158  0.0593
16196TIP3    H170003   3.402   4.855  16.211 -1.3382 -2.0768  1.8288
16196TIP3    H270004   3.258   4.899  16.233 -0.6094  1.4964  0.1511
16197TIP3   OH270005   3.039   6.376   0.079  0.0359  0.3720  0.1483
16197TIP3    H170006   3.057   6.454   0.026 -1.8734 -1.6742 -4.0002
16197TIP3    H270007   2.954   6.345   0.047  0.2647 -2.9203  2.2620
16198TIP3   OH270008   1.829   1.019  11.191 -0.0922 -0.8044  0.3067
16198TIP3    H170009   1.881   0.947  11.226 -0.2564 -1.4475 -0.7140
16198TIP3    H270010   1.756   0.976  11.146  0.3014 -0.0650 -1.1315
16199TIP3   OH270011   6.183   3.697   5.266  0.5135 -0.5144  0.0021
16199TIP3    H170012   6.264   3.646   5.275  0.6303 -0.5926 -1.2952
16199TIP3    H270013   6.211   3.781   5.230 -0.0541 -0.8722 -1.3393
16200TIP3   OH270014   3.401   0.011  12.851  0.5908  0.1051 -0.7911
16200TIP3    H170015   3.332   0.050  12.905  1.2914  0.0494  0.1695
16200TIP3    H270016   3.369   0.020  12.761 -0.9447 -0.4588 -0.3371
16201TIP3   OH270017   5.397   3.774   0.443 -0.1928 -0.0864 -0.0932
16201TIP3    H170018   5.489   3.747   0.442 -0.0865  0.2211 -2.0437
16201TIP3    H270019   5.394   3.850   0.501  1.0832  0.8518 -1.2130
16202TIP3   OH270020   1.471   5.911   3.614  0.0290 -0.3869  0.4943
16202TIP3    H170021   1.511   5.846   3.556  2.4314  1.0215  0.4003
16202TIP3    H270022   1.463   5.867   3.698 -2.0102 -1.9478 -0.4267
16203TIP3   OH270023   5.943   5.493  13.453 -0.2744 -0.1666  0.1060
16203TIP3    H170024   5.889   5.548  13.396  0.1945  0.2869  0.0814
16203TIP3    H270025   5.954   5.545  13.533 -0.7342 -0.7014  0.5199
16204TIP3   OH270026   1.544   4.982  15.247  0.5037 -0.6471 -0.1212
16204TIP3    H170027   1.522   4.946  15.161  1.8302 -1.0944 -0.2943
16204TIP3    H270028   1.634   4.954  15.262  0.4551 -0.1418  1.1988
16205TIP3   OH270029   6.059   1.568  11.172  0.2798  0.0170  0.5553
16205TIP3    H170030   6.154   1.578  11.180  0.1724  0.3981  1.3942
16205TIP3    H270031   6.023   1.624  11.240 -0.5276 -0.9721  0.9602
16206TIP3   OH270032   2.330   6.068   2.696  0.0246 -0.0714  0.3498
16206TIP3    H170033   2.421   6.061   2.724 -0.3729 -1.7293  1.4051
16206TIP3    H270034   2.283   6.008   2.754 -1.6341  0.2193 -0.6357
16207TIP3   OH270035   2.316   0.245  14.139 -0.0513  0.0483 -0.0881
16207TIP3    H170036   2.398   0.225  14.184 -1.5948 -0.4883  2.7371
16207TIP3    H270037   2.314   0.185  14.064  2.7226  1.1092 -1.1372
16208TIP3   OH270038   1.063   5.021  12.886  0.0057 -0.1512 -0.5269
16208TIP3    H170039   1.095   5.096  12.937 -0.8048 -0.0023 -0.2159
16208TIP3    H270040   1.131   4.955  12.896 -0.1793 -0.1677  0.8667
16209TIP3   OH270041   6.783   5.810  15.331 -0.3448  0.4627 -0.1974
16209TIP3    H170042   6.771   5.871  15.403 -0.7931  0.5333 -0.3311
16209TIP3    H270043   6.767   5.724  15.369  4.6146 -0.1606  1.1704
16210TIP3   OH270044   3.387   3.909   0.245 -0.1793  0.3305 -0.3025
16210TIP3    H170045   3.452   3.887   0.312 -1.2241  0.9157  0.9382
16210TIP3    H270046   3.337   3.829   0.233 -0.3182  0.3695  0.0037
16211TIP3   OH270047   6.260   1.352   3.208  0.4111 -0.6696  0.1431
16211TIP3    H170048   6.255   1.409   3.131  0.5162 -0.3763  0.3482
16211TIP3    H270049   6.292   1.268   3.174  0.9962 -0.3791 -0.0518
16212TIP3   OH270050   2.781   5.907   0.223  0.5272  0.4601  0.0036
16212TIP3    H170051   2.864   5.938   0.260  0.2504  1.6272 -0.3221
16212TIP3    H270052   2.767   5.962   0.146 -0.6711  0.4323  0.1890
16213TIP3   OH270053   2.850   3.857  16.647  0.2795  0.6769  0.5663
16213TIP3    H170054   2.856   3.859  16.743  4.5071  0.6791  0.4549
16213TIP3    H270055   2.809   3.772  16.628  1.8061 -0.5480  2.3892
16214TIP3   OH270056   2.464   1.440  11.030 -0.4169  0.3341  0.0754
16214TIP3    H170057   2.395   1.452  11.096  0.3029  0.2093  0.8767
16214TIP3    H270058   2.446   1.354  10.992 -1.3316  0.7662 -0.5007
16215TIP3   OH270059   5.856   4.890  15.010  0.3448 -0.2730  0.0008
16215TIP3    H170060   5.875   4.807  15.053 -0.2072  0.0640  0.9114
16215TIP3    H270061   5.841   4.952  15.081  2.1401  0.9650 -0.6293
16216TIP3   OH270062   2.677   4.430   5.400  0.1674  0.7832 -0.0644
16216TIP3    H170063   2.694   4.488   5.474  0.3212 -0.7079  1.1137
16216TIP3    H270064   2.582   4.417   5.403  0.2239  0.4165  0.1056
16217TIP3   OH270065   5.942   0.325   2.963 -0.6288  0.3299  0.1120
16217TIP3    H170066   5.892   0.331   3.044 -1.1413 -1.0772 -0.0768
16217TIP3    H270067   5.876   0.316   2.894 -0.1736  0.2771 -0.3252
16218TIP3   OH270068   6.765   3.727   2.356  0.9178 -0.3448 -0.2796
16218TIP3    H170069   6.759   3.656   2.420  0.8689  0.8853  1.1360
16218TIP3    H270070   6.680   3.771   2.361  0.9563 -0.1486 -1.1282
16219TIP3   OH270071   1.556   1.348   4.012 -0.2622 -0.4500  0.4108
16219TIP3    H170072   1.574   1.391   3.928 -0.8211 -0.3060  0.3581
16219TIP3    H270073   1.488   1.402   4.052 -1.5474 -1.6964 -0.0059
16220TIP3   OH270074   4.408   2.044   1.217  0.1190  0.2892  0.0559
16220TIP3    H170075   4.461   2.047   1.137  0.1010  0.8182  0.0634
16220TIP3    H270076   4.432   2.122   1.266  0.6542 -0.4018  0.9186
16221TIP3   OH270077   2.545   5.853  10.863 -0.3965 -0.2505 -0.2063
16221TIP3    H170078   2.515   5.886  10.778 -1.3741  0.1589  0.2786
16221TIP3    H270079   2.596   5.775  10.842 -0.3379  0.0415 -1.1940
16222TIP3   OH270080   1.777   0.610   4.857 -0.0165  0.3519 -0.4528
16222TIP3    H170081   1.801   0.693   4.814 -1.8285  1.5296  0.6586
16222TIP3    H270082   1.703   0.578   4.806  0.5985 -0.5443 -0.7979
16223TIP3   OH270083   0.741   5.606   3.365  0.4034  0.3777 -0.7663
16223TIP3    H170084   0.804   5.578   3.432  1.2378 -0.2148 -1.7710
16223TIP3    H270085   0.671   5.648   3.415 -0.2375 -2.2614  0.7468
16224TIP3   OH270086   4.173   3.492   2.758  0.0181  0.3295 -0.3134
16224TIP3    H170087   4.223   3.565   2.794  1.8396 -0.1034 -1.7683
16224TIP3    H270088   4.239   3.440   2.711 -1.6022 -1.0477 -1.1539
16225TIP3   OH270089   6.204   0.398   1.513  0.0049  0.7413  0.5645
16225TIP3    H170090   6.120   0.414   1.472  0.0987  0.8329  0.4088
16225TIP3    H270091   6.186   0.332   1.581  0.4327 -2.1974 -1.9414
16226TIP3   OH270092   1.257   0.428   2.487  0.2823  0.3961  0.3176
16226TIP3    H170093   1.277   0.363   2.554 -1.7387  1.4192  2.0366
16226TIP3    H270094   1.305   0.506   2.513  0.5376  0.4089 -0.1846
16227TIP3   OH270095   6.597   2.492   6.076 -0.1199 -0.4473  0.1761
16227TIP3    H170096   6.558   2.457   5.995  0.4040  0.6122 -0.5633
16227TIP3    H270097   6.578   2.585   6.073  2.4705  0.1607 -0.2911
16228TIP3   OH270098   0.914   5.991   5.722 -0.3783 -0.2105  0.4069
16228TIP3    H170099   0.932   5.996   5.816  0.4851 -0.3110  0.2525
16228TIP3    H270100   0.994   5.955   5.684 -1.0651 -1.0580 -0.2607
16229TIP3   OH270101   5.361   4.304  13.113  0.3559 -0.3635  0.3561
16229TIP3    H170102   5.436   4.245  13.107  0.1491 -0.5611 -0.3393
16229TIP3    H270103   5.370   4.364  13.039 -1.6557 -2.1848 -1.5243
16230TIP3   OH270104   0.589   5.632  15.339 -0.0529 -0.6699  0.2331
16230TIP3    H170105   0.506   5.639  15.292  1.1798  0.7563 -1.8874
16230TIP3    H270106   0.564   5.630  15.431 -2.4460 -0.5582 -0.3495
16231TIP3   OH270107   0.878   0.420  16.062 -0.8913 -0.0957  0.0107
16231TIP3    H170108   0.883   0.502  16.111 -0.4700 -0.5223  0.7115
16231TIP3    H270109   0.928   0.436  15.982  0.7669 -0.2190  0.9768
16232TIP3   OH270110   0.233   5.747   2.878 -0.3280  0.1965  0.3194
16232TIP3    H170111   0.182   5.690   2.936 -1.0161  0.6196  0.1435
16232TIP3    H270112   0.228   5.833   2.919 -1.1507  0.5845 -0.5588
16233TIP3   OH270113   5.207   0.452   5.767 -0.0329 -0.2470  0.4186
16233TIP3    H170114   5.115   0.470   5.790 -0.1168 -0.0543 -0.0570
16233TIP3    H270115   5.203   0.369   5.718  0.0185 -0.1238  0.2057
16234TIP3   OH270116   2.772   3.676  12.876  0.7254  0.0817 -0.2523
16234TIP3    H170117   2.824   3.756  12.885 -0.0726  0.4408  1.5213
16234TIP3    H270118   2.682   3.706  12.869  0.4380 -0.6600  0.1911
16235TIP3   OH270119   0.708   0.190   2.916  0.0935  0.0118  0.9761
16235TIP3    H170120   0.663   0.260   2.869 -0.9811  0.0175  1.9507
16235TIP3    H270121   0.791   0.178   2.869 -0.9377 -0.0277 -0.8984
16236TIP3   OH270122   5.396   3.229   5.694  0.7557 -0.2222  0.1421
16236TIP3    H170123   5.443   3.151   5.723  0.6499 -0.7122 -0.9588
16236TIP3    H270124   5.438   3.301   5.740  0.8188 -0.9224  1.2302
16237TIP3   OH270125   2.608   1.326  12.886 -0.5485 -0.0685  0.2769
16237TIP3    H170126   2.649   1.241  12.876 -1.3450 -0.2435 -1.9192
16237TIP3    H270127   2.638   1.377  12.811 -1.4554  0.9996  0.6066
16238TIP3   OH270128   3.227   4.773   2.543 -0.4196 -0.0031  0.7247
16238TIP3    H170129   3.181   4.808   2.619 -0.2012 -0.9296  1.3093
16238TIP3    H270130   3.309   4.739   2.579 -0.4200 -0.6666  0.1218
16239TIP3   OH270131   5.290   6.466   3.921  0.9514 -0.4698 -0.0584
16239TIP3    H170132   5.258   6.534   3.861  3.9922 -0.3363 -1.7317
16239TIP3    H270133   5.260   6.384   3.882 -1.2892 -0.2689  1.0585
16240TIP3   OH270134   4.436   5.548   1.301  0.5680 -0.8056  0.2534
16240TIP3    H170135   4.487   5.538   1.382 -0.7243 -1.3067  1.0425
16240TIP3    H270136   4.490   5.507   1.233  1.2925 -1.1682  1.0299
16241TIP3   OH270137   2.635   2.735  12.484  0.2132 -0.5424  0.2054
16241TIP3    H170138   2.575   2.718  12.557  0.2651 -1.0504  0.1371
16241TIP3    H270139   2.675   2.650  12.466  1.6438 -0.0462  0.8551
16242TIP3   OH270140   6.082   6.846  15.655  0.8386 -0.4074 -0.2239
16242TIP3    H170141   6.034   6.888  15.583 -0.0044 -0.0964  0.4993
16242TIP3    H270142   6.106   6.918  15.712 -0.2277 -0.8295  0.8021
16243TIP3   OH270143   2.931   0.730   2.661  0.2548 -0.1811 -0.7750
16243TIP3    H170144   2.962   0.794   2.597 -0.3008  1.2850  0.3634
16243TIP3    H270145   2.908   0.782   2.738 -3.0028 -1.3672 -0.7890
16244TIP3   OH270146   2.250   4.534   1.214  0.1977 -0.6014 -0.1710
16244TIP3    H170147   2.255   4.530   1.310 -0.8908 -1.6233 -0.1409
16244TIP3    H270148   2.230   4.445   1.187  0.1772 -0.2590 -1.3432
16245TIP3   OH270149   4.660   4.362  12.661  0.4913  0.2883  0.2036
16245TIP3    H170150   4.597   4.412  12.714  0.9246 -0.2181  1.2212
16245TIP3    H270151   4.620   4.359  12.574 -0.5898  0.5272  0.6683
16246TIP3   OH270152   5.720   4.761  12.500  0.6716 -0.5981  0.0952
16246TIP3    H170153   5.693   4.672  12.479  0.6211 -0.1901 -1.7452
16246TIP3    H270154   5.647   4.798  12.549  0.4464 -1.3782  0.3566
16247TIP3   OH270155   1.575   5.579  11.501 -0.1630 -0.5991 -0.0352
16247TIP3    H170156   1.635   5.509  11.525  1.6887  0.6065 -0.9474
16247TIP3    H270157   1.630   5.656  11.491 -2.1707  1.0833  1.1484
16248TIP3   OH270158   0.913   6.422  11.067  0.0273  0.1345 -0.8565
16248TIP3    H170159   0.852   6.360  11.027  0.4912  1.0185 -3.1165
16248TIP3    H270160   0.896   6.416  11.161 -0.4983 -2.7724 -1.0488
16249TIP3   OH270161   6.280   0.187   1.155 -0.5725  0.1075 -0.2092
16249TIP3    H170162   6.347   0.120   1.163 -0.7773 -0.0350  0.3143
16249TIP3    H270163   6.278   0.207   1.061 -2.3833 -2.5182 -0.8288
16250TIP3   OH270164   3.588   5.047  12.494 -0.3588 -0.2671  0.1563
16250TIP3    H170165   3.682   5.038  12.477 -0.3116  1.4039 -0.6462
16250TIP3    H270166   3.583   5.098  12.574 -0.5729 -0.0055 -0.0229
16251TIP3   OH270167   2.780   1.613   3.855 -0.3093 -0.4014 -0.2566
16251TIP3    H170168   2.803   1.706   3.849  2.7095 -1.0712 -1.2374
16251TIP3    H270169   2.784   1.593   3.949 -1.4146  0.5194  0.0006
16252TIP3   OH270170   0.282   3.940   0.255 -0.4588  0.3128  0.5652
16252TIP3    H170171   0.258   3.984   0.173  0.5786  1.3373  0.7826
16252TIP3    H270172   0.253   4.001   0.323  0.2532  0.2837  0.8944
16253TIP3   OH270173   2.111   6.061  15.903  0.1490  0.5718 -0.5223
16253TIP3    H170174   2.122   6.041  15.810  0.4465  0.0505 -0.3770
16253TIP3    H270175   2.039   6.124  15.906 -2.3770 -2.0890 -0.8070
16254TIP3   OH270176   1.737   1.409   0.094  0.0653  0.2660 -0.0769
16254TIP3    H170177   1.670   1.428   0.161 -0.9841 -1.5416 -0.5436
16254TIP3    H270178   1.775   1.494   0.073 -0.7863  1.0996  1.5657
16255TIP3   OH270179   0.706   5.509  13.979  0.4032 -0.2340 -0.0636
16255TIP3    H170180   0.611   5.503  13.991  0.4841  0.9366  1.6706
16255TIP3    H270181   0.725   5.451  13.906 -1.4607 -1.6093  0.4616
16256TIP3   OH270182   6.669   1.123  15.986  0.0934  0.5013 -0.0634
16256TIP3    H170183   6.591   1.080  16.021  0.4959  0.0507  0.2946
16256TIP3    H270184   6.670   1.209  16.028 -0.0744  0.4126  0.1216
16257TIP3   OH270185   5.776   2.863   1.020 -0.7312 -0.2877 -0.2120
16257TIP3    H170186   5.765   2.922   1.094 -0.7289  0.9928 -1.2017
16257TIP3    H270187   5.822   2.915   0.954  0.5316 -1.8196 -0.6105
16258TIP3   OH270188   6.683   6.340  11.545 -0.0837  0.3684 -0.0441
16258TIP3    H170189   6.685   6.390  11.463  1.2324  0.3369 -0.0572
16258TIP3    H270190   6.774   6.317  11.561 -0.3194  0.3588  1.4424
16259TIP3   OH270191   1.256   3.172  16.179  0.8131  0.4142  0.3581
16259TIP3    H170192   1.225   3.178  16.088  0.1767  0.0901  0.5486
16259TIP3    H270193   1.219   3.090  16.212  2.2223 -0.1997  0.4760
16260TIP3   OH270194   6.762   5.017   5.296  0.0930  0.2834 -0.4835
16260TIP3    H170195   6.779   5.028   5.390  1.0092 -0.5974 -0.5354
16260TIP3    H270196   6.779   4.925   5.279 -1.0507  0.2011 -1.3341
16261TIP3   OH270197   3.262   3.833  16.178  0.2993 -0.2704  0.0934
16261TIP3    H170198   3.336   3.777  16.153  0.6955  0.4651 -0.4183
16261TIP3    H270199   3.185   3.779  16.162  0.4960  0.1435 -2.8864
16262TIP3   OH270200   6.414   0.322   6.212  0.4147  0.1407  0.1918
16262TIP3    H170201   6.419   0.342   6.119  0.4750 -2.5485 -0.4696
16262TIP3    H270202   6.322   0.338   6.235  0.0219 -0.6368 -0.7426
16263TIP3   OH270203   6.711   4.187  15.386 -0.2167  0.0119  0.1553
16263TIP3    H170204   6.629   4.162  15.427  0.8368 -2.3366  1.0589
16263TIP3    H270205   6.695   4.273  15.348 -2.9383 -0.2149  0.6333
16264TIP3   OH270206   3.167   1.204  14.544 -0.4462 -0.1544 -0.2417
16264TIP3    H170207   3.135   1.226  14.457 -0.2210  0.2309 -0.2308
16264TIP3    H270208   3.095   1.227  14.603  0.2299  1.8244 -0.0970
16265TIP3   OH270209   6.106   1.799  11.801 -0.3216 -0.1853 -0.9144
16265TIP3    H170210   6.019   1.782  11.767 -1.0548  0.3552  0.6203
16265TIP3    H270211   6.102   1.774  11.893  1.3723 -0.8729 -0.9937
16266TIP3   OH270212   1.441   1.261   4.377  0.5927 -0.4169  0.7185
16266TIP3    H170213   1.465   1.236   4.288 -0.8482  0.0187  0.1904
16266TIP3    H270214   1.483   1.346   4.390  1.3996 -0.8065  0.7306
16267TIP3   OH270215   3.565   2.664  11.635  0.6264 -0.3835  0.3015
16267TIP3    H170216   3.508   2.609  11.689 -0.2200  1.4550  1.3634
16267TIP3    H270217   3.647   2.671  11.684  0.5395 -0.2590  0.4289
16268TIP3   OH270218   2.406   4.118   2.404  0.0941 -0.2060 -0.4679
16268TIP3    H170219   2.493   4.147   2.377  0.1444 -1.3458 -1.6103
16268TIP3    H270220   2.370   4.193   2.451  1.7081  0.2711  0.1076
16269TIP3   OH270221   2.284   1.404   3.483  0.1154  0.0465  0.0850
16269TIP3    H170222   2.294   1.396   3.578  0.6540 -0.2568  0.0061
16269TIP3    H270223   2.373   1.396   3.449 -0.2763 -1.9989 -0.5951
16270TIP3   OH270224   0.377   4.317   4.986  0.1346 -0.2665 -0.4014
16270TIP3    H170225   0.326   4.389   5.021  1.6723 -0.5724  2.8619
16270TIP3    H270226   0.312   4.252   4.959 -1.2687  0.3094  1.3858
16271TIP3   OH270227   3.209   6.207  11.507 -0.1139  0.4266  0.2951
16271TIP3    H170228   3.113   6.215  11.511 -0.0402  2.8854 -0.7562
16271TIP3    H270229   3.240   6.298  11.502  2.0686 -0.3385 -3.1097
16272TIP3   OH270230   1.093   5.978   2.241  0.0052 -0.1207  0.1702
16272TIP3    H170231   1.151   6.054   2.236 -0.5026  0.2618 -0.0016
16272TIP3    H270232   1.140   5.915   2.295  0.9024 -0.1058 -0.5689
16273TIP3   OH270233   0.999   4.390   3.509  0.8530  0.3188 -0.1741
16273TIP3    H170234   0.982   4.477   3.474 -0.9006 -0.8738 -2.6785
16273TIP3    H270235   1.080   4.362   3.467  1.1696  0.5619  0.2713
16274TIP3   OH270236   0.851   6.289  11.794 -0.3796  0.5549  0.1102
16274TIP3    H170237   0.855   6.306  11.888  3.3780 -0.1681  0.2208
16274TIP3    H270238   0.840   6.375  11.754 -2.6546  0.8168  1.1089
16275TIP3   OH270239   1.541   2.880   2.112 -0.5441  0.0290  0.0857
16275TIP3    H170240   1.585   2.898   2.029  0.2435 -0.5395  0.3672
16275TIP3    H270241   1.529   2.785   2.112 -1.4679  0.1443  0.1690
16276TIP3   OH270242   5.217   0.917   1.076 -0.2090  0.4637  0.0683
16276TIP3    H170243   5.300   0.959   1.100 -0.1842 -0.1915  1.2007
16276TIP3    H270244   5.153   0.957   1.135 -0.3708 -0.3159  0.4291
16277TIP3   OH270245   1.074   4.675   0.993 -0.5492  0.0770  0.0889
16277TIP3    H170246   1.119   4.596   0.960 -1.2652 -0.4679  0.3923
16277TIP3    H270247   1.132   4.709   1.061 -0.1114 -0.0438 -0.2199
16278TIP3   OH270248   2.716   5.170   2.556 -0.5720  0.0250 -0.1169
16278TIP3    H170249   2.761   5.253   2.538  0.9862 -1.1083 -1.6712
16278TIP3    H270250   2.736   5.152   2.648 -2.0236  1.9577  0.6611
16279TIP3   OH270251   2.531   6.780   3.570  0.2711  0.5720 -0.0143
16279TIP3    H170252   2.547   6.845   3.502  0.7590  1.8453  1.2405
16279TIP3    H270253   2.553   6.696   3.531  1.6130  1.3880 -1.0624
16280TIP3   OH270254   5.469   6.061  13.903  0.1930  0.3803 -0.0385
16280TIP3    H170255   5.464   5.977  13.857  0.5561 -0.0361  0.6455
16280TIP3    H270256   5.397   6.113  13.869  0.3196  0.0013 -0.8970
16281TIP3   OH270257   6.650   0.963  15.174 -0.1383 -0.3872  0.5232
16281TIP3    H170258   6.714   0.924  15.114 -0.7228  1.3687 -1.3381
16281TIP3    H270259   6.582   0.896  15.183  0.5885 -1.1738  0.2893
16282TIP3   OH270260   2.580   3.721   2.440  0.6461  0.1468 -0.0697
16282TIP3    H170261   2.639   3.791   2.469  1.0633 -1.4560  3.5742
16282TIP3    H270262   2.493   3.750   2.468  0.5796 -0.0603 -0.0612
16283TIP3   OH270263   6.625   0.420   0.756 -0.1064 -0.0361 -0.1630
16283TIP3    H170264   6.713   0.450   0.735 -0.5214  0.5047 -1.2037
16283TIP3    H270265   6.595   0.481   0.824  1.1841 -1.7040  2.0611
16284TIP3   OH270266   3.326   4.830   4.342  0.3043  0.1361 -0.5504
16284TIP3    H170267   3.343   4.879   4.261  2.1463  0.1893 -0.1908
16284TIP3    H270268   3.283   4.893   4.399 -3.8882 -0.7134 -2.3865
16285TIP3   OH270269   5.746   5.867   2.984  0.0772  0.1616  0.3160
16285TIP3    H170270   5.669   5.859   3.041 -0.4295  0.5035 -0.2986
16285TIP3    H270271   5.816   5.897   3.042 -0.2842 -0.0295  0.8631
16286TIP3   OH270272   5.959   3.097  13.010 -0.4206 -0.1165 -0.0427
16286TIP3    H170273   5.997   3.143  13.084  1.7500 -0.6634 -0.7533
16286TIP3    H270274   5.941   3.009  13.044 -0.7912  0.0548  0.2145
16287TIP3   OH270275   4.310   5.464   5.412 -0.0619  0.9306 -0.1589
16287TIP3    H170276   4.278   5.494   5.327  3.0035  1.2545 -1.3403
16287TIP3    H270277   4.323   5.544   5.462 -1.3857  0.7743  0.4635
16288TIP3   OH270278   4.234   6.133  14.467 -0.0124 -0.0432  0.7326
16288TIP3    H170279   4.147   6.172  14.468  0.0325  0.2084 -1.1528
16288TIP3    H270280   4.293   6.205  14.447  0.3682 -0.5876 -0.1735
16289TIP3   OH270281   3.898   5.984   2.827  0.4274  0.5032 -0.0054
16289TIP3    H170282   3.934   6.019   2.908  2.5375 -1.6117  0.0503
16289TIP3    H270283   3.891   6.060   2.769 -0.4046  1.9121  1.8515
16290TIP3   OH270284   3.138   6.225  15.553  0.3394  0.0129 -0.1332
16290TIP3    H170285   3.225   6.251  15.521  1.3237 -2.3658  0.3259
16290TIP3    H270286   3.099   6.177  15.480 -1.1451  2.0333 -0.7463
16291TIP3   OH270287   0.605   2.030  14.563  0.8966 -0.2793 -0.1142
16291TIP3    H170288   0.567   2.106  14.521  0.3796 -0.4298  0.0733
16291TIP3    H270289   0.545   2.010  14.635  1.0781 -0.8018 -0.1046
16292TIP3   OH270290   2.645   5.054   4.356 -0.5161  0.0119  0.4435
16292TIP3    H170291   2.727   5.072   4.404 -1.8204  1.1645  2.4077
16292TIP3    H270292   2.617   5.140   4.325 -1.2548 -0.2993  0.2459
16293TIP3   OH270293   5.399   1.647  15.261  0.3948 -0.2607  0.3451
16293TIP3    H170294   5.402   1.622  15.169 -0.1690 -1.0143  0.5259
16293TIP3    H270295   5.472   1.708  15.272  0.2253  0.1363 -0.6873
16294TIP3   OH270296   5.655   5.761   0.990  0.3159 -0.4227 -0.2666
16294TIP3    H170297   5.597   5.694   0.953 -2.1450  0.5868  1.5066
16294TIP3    H270298   5.619   5.844   0.961 -0.0096  0.2869  1.9534
16295TIP3   OH270299   6.610   1.865   0.509 -0.3740  0.0562  0.2652
16295TIP3    H170300   6.544   1.880   0.576  1.0307 -0.1540  1.7788
16295TIP3    H270301   6.581   1.787   0.462 -1.9449  0.8517 -0.1424
16296TIP3   OH270302   4.230   4.383   2.857 -0.4963  0.1151 -0.2785
16296TIP3    H170303   4.148   4.421   2.886 -0.4472  0.7909 -0.9972
16296TIP3    H270304   4.219   4.370   2.763  0.1980  0.1812 -0.3755
16297TIP3   OH270305   1.726   0.310   5.531  0.2841 -0.7322  0.2001
16297TIP3    H170306   1.741   0.240   5.595  0.5672  0.6626  1.7319
16297TIP3    H270307   1.631   0.307   5.515 -0.0955 -0.0606  2.0276
16298TIP3   OH270308   3.562   5.080   1.343 -0.4446  0.0197 -0.0765
16298TIP3    H170309   3.544   5.164   1.301 -2.0161  0.3478  1.1562
16298TIP3    H270310   3.482   5.029   1.328 -1.4304  0.4425  3.1263
16299TIP3   OH270311   6.504   0.985  11.943 -0.0873  0.1853  0.1125
16299TIP3    H170312   6.447   0.946  11.877 -1.3272 -0.2440  1.3729
16299TIP3    H270313   6.567   0.915  11.964 -0.8486 -0.3465  0.6897
16300TIP3   OH270314   2.969   1.800   2.530 -0.7327  0.0975  0.1418
16300TIP3    H170315   2.873   1.799   2.523 -0.8071  1.4629  0.6227
16300TIP3    H270316   2.999   1.769   2.445 -1.6224  1.6361 -0.7921
16301TIP3   OH270317   5.054   1.111   2.248 -0.5194  0.2766 -0.4789
16301TIP3    H170318   5.130   1.103   2.306 -0.2703 -0.5611 -0.9079
16301TIP3    H270319   4.985   1.063   2.294 -0.1812 -0.8305 -1.0954
16302TIP3   OH270320   1.717   1.011   1.806  0.8002  0.1480  0.1019
16302TIP3    H170321   1.625   1.039   1.805  1.1986  1.5506 -0.8255
16302TIP3    H270322   1.718   0.933   1.861 -1.3314 -1.2027 -1.6267
16303TIP3   OH270323   0.985   5.069   5.887 -0.1552  0.1276  0.1640
16303TIP3    H170324   1.035   5.144   5.857 -1.2940  1.6654  1.8937
16303TIP3    H270325   0.915   5.059   5.823 -0.5726  1.1809  0.4493
16304TIP3   OH270326   0.935   1.904  10.581  0.3882  0.1288 -0.0802
16304TIP3    H170327   0.853   1.947  10.558  0.6654  1.4538  1.2342
16304TIP3    H270328   1.003   1.970  10.566  1.2208 -0.9225 -1.0721
16305TIP3   OH270329   2.474   1.616   3.230 -0.0511  0.0005 -0.3087
16305TIP3    H170330   2.430   1.549   3.178  1.3524 -0.1844 -1.3059
16305TIP3    H270331   2.404   1.653   3.285 -0.8914 -2.1687  0.1913
16306TIP3   OH270332   2.247   4.802   5.629 -0.3968 -0.3773  0.7024
16306TIP3    H170333   2.317   4.864   5.648 -0.5323 -0.5221  1.7766
16306TIP3    H270334   2.189   4.808   5.705 -1.6844 -0.0810 -0.2766
16307TIP3   OH270335   0.156   6.534  14.887  0.4573  0.4529 -0.3713
16307TIP3    H170336   0.220   6.465  14.876 -1.3771 -1.5858  0.9052
16307TIP3    H270337   0.121   6.550  14.800  1.0962 -0.0122 -0.7157
16308TIP3   OH270338   0.303   6.553   1.347  0.1780 -0.2811  0.2163
16308TIP3    H170339   0.276   6.634   1.305  2.1078  1.3755  1.9206
16308TIP3    H270340   0.258   6.553   1.432 -0.5659 -1.5323 -0.1437
16309TIP3   OH270341   1.298   6.441   3.982  0.9039 -0.5978 -0.3348
16309TIP3    H170342   1.329   6.354   4.010  0.9463  0.1896  2.3745
16309TIP3    H270343   1.378   6.488   3.959  1.1697 -0.5250  0.6627
16310TIP3   OH270344   5.408   5.499  15.494 -0.4053 -0.0061  0.2122
16310TIP3    H170345   5.375   5.541  15.573  1.6756 -0.1027  1.1836
16310TIP3    H270346   5.420   5.572  15.432 -1.4287  0.1473  0.1686
16311TIP3   OH270347   2.185   4.748   4.645  0.3419  0.5901  0.4145
16311TIP3    H170348   2.169   4.705   4.729 -0.4858  0.1807  0.0584
16311TIP3    H270349   2.276   4.779   4.650  0.9573 -1.1755  0.7007
16312TIP3   OH270350   0.028   1.084  10.149  0.0140  0.9943 -0.4240
16312TIP3    H170351   0.054   1.170  10.181  1.7269 -0.2093  1.7082
16312TIP3    H270352   0.096   1.059  10.087 -0.2734  1.0122 -0.7510
16313TIP3   OH270353   5.711   4.218   3.847  0.6638 -0.2563 -0.1056
16313TIP3    H170354   5.672   4.259   3.769  0.2385  0.1253  0.2957
16313TIP3    H270355   5.769   4.151   3.813 -0.9776 -1.4245 -0.7181
16314TIP3   OH270356   6.013   6.774  16.243  0.3774 -0.4554 -0.1928
16314TIP3    H170357   6.021   6.729  16.158  0.5184  0.0338 -0.4444
16314TIP3    H270358   6.033   6.706  16.308 -1.5683 -1.3235 -0.4428
16315TIP3   OH270359   2.023   1.070  14.931 -0.6012  0.4027 -0.1340
16315TIP3    H170360   2.112   1.040  14.918 -0.7579  0.4172 -1.3080
16315TIP3    H270361   1.986   1.078  14.843 -1.6502  0.7300  0.3100
16316TIP3   OH270362   2.986   3.254   5.835 -0.0937 -0.3423  0.1636
16316TIP3    H170363   2.892   3.254   5.820 -0.1067  0.3492  0.2162
16316TIP3    H270364   3.024   3.275   5.749  0.0393 -1.1382  0.0206
16317TIP3   OH270365   1.226   2.007  10.776  0.0221  0.6731  0.3958
16317TIP3    H170366   1.155   2.028  10.714 -1.0993 -1.4388  0.8927
16317TIP3    H270367   1.288   1.955  10.725 -0.5556 -0.4752  0.8489
16318TIP3   OH270368   4.137   2.867   1.439 -0.0605  0.0053 -0.1941
16318TIP3    H170369   4.192   2.870   1.361  0.5301 -0.2077  0.2081
16318TIP3    H270370   4.079   2.942   1.430  2.3106  2.0835  0.8438
16319TIP3   OH270371   5.458   5.515  13.442 -0.5820  0.2456  0.5617
16319TIP3    H170372   5.503   5.434  13.420  0.7552  1.1887 -0.2858
16319TIP3    H270373   5.503   5.548  13.520 -3.0102 -1.2469  2.7760
16320TIP3   OH270374   0.227   1.002   4.759 -0.3081  0.4464 -0.1503
16320TIP3    H170375   0.235   0.959   4.673  3.5370  0.8745 -0.1947
16320TIP3    H270376   0.188   0.935   4.815  0.5698 -1.2159 -1.4272
16321TIP3   OH270377   4.497   0.821  10.434 -0.1877 -0.2146  0.0115
16321TIP3    H170378   4.474   0.728  10.437  3.2697 -1.2135  1.1601
16321TIP3    H270379   4.519   0.837  10.342  0.4571 -0.9503  0.0209
16322TIP3   OH270380   4.929   6.179  14.931  1.2001  0.0436 -0.4005
16322TIP3    H170381   4.885   6.220  15.005  1.3014  0.1895 -0.4197
16322TIP3    H270382   4.915   6.239  14.858  1.0459 -0.1319 -0.5166
16323TIP3   OH270383   0.996   0.850   1.809  0.7092 -0.0912  0.5814
16323TIP3    H170384   0.934   0.778   1.825  2.6230 -1.9911 -0.0131
16323TIP3    H270385   0.945   0.915   1.760 -1.1181 -0.9903  1.1813
16324TIP3   OH270386   5.422   5.909  15.552 -0.3930 -0.4854 -0.0502
16324TIP3    H170387   5.454   5.845  15.615 -1.9867 -0.4145  0.8883
16324TIP3    H270388   5.456   5.878  15.467  1.1498 -1.0001  0.7165
16325TIP3   OH270389   5.127   3.581   1.658 -0.1134 -0.3181  0.1260
16325TIP3    H170390   5.159   3.657   1.609  0.6538 -0.6091  0.1540
16325TIP3    H270391   5.156   3.597   1.748  0.6282 -0.9323  0.0156
16326TIP3   OH270392   1.999   2.442  10.977  0.4235  0.6329  0.3905
16326TIP3    H170393   1.966   2.476  10.894  0.9204  0.4869  0.1320
16326TIP3    H270394   2.068   2.503  11.002 -0.7810  1.5933  1.5107
16327TIP3   OH270395   5.327   4.509  14.193  0.3342 -0.4836  0.0377
16327TIP3    H170396   5.300   4.533  14.104  0.9911  1.6605  0.3652
16327TIP3    H270397   5.421   4.527  14.195 -0.0942  2.0968  1.8801
16328TIP3   OH270398   4.924   0.789   3.443  0.0368 -0.0563 -0.0860
16328TIP3    H170399   4.943   0.701   3.475  1.2569 -0.0362 -0.6703
16328TIP3    H270400   4.943   0.846   3.517  2.5630 -0.0328 -0.6360
16329TIP3   OH270401   0.145   1.277   4.806 -0.2718 -0.1506 -0.0697
16329TIP3    H170402   0.147   1.188   4.772 -2.5061 -0.2706 -0.0385
16329TIP3    H270403   0.058   1.285   4.847  0.3298  1.6632  0.9563
16330TIP3   OH270404   0.384   4.710  14.847 -0.3169  0.0156  0.3785
16330TIP3    H170405   0.357   4.766  14.774  0.6245 -1.7943 -1.4532
16330TIP3    H270406   0.479   4.703  14.839 -0.3612 -1.4916  0.7994
16331TIP3   OH270407   2.426   4.463   0.525  0.1413  0.1439 -0.1850
16331TIP3    H170408   2.452   4.420   0.444 -1.6876  0.4201 -0.9615
16331TIP3    H270409   2.389   4.393   0.579 -0.9337  0.3603 -0.6174
16332TIP3   OH270410   6.115   0.786  12.320 -0.0082  0.2795  0.3494
16332TIP3    H170411   6.026   0.818  12.328  0.1332  0.3732  1.9152
16332TIP3    H270412   6.114   0.731  12.242 -1.3546  0.5369  0.1640
16333TIP3   OH270413   2.389   1.856  15.683 -0.3097 -0.2269 -0.1434
16333TIP3    H170414   2.362   1.870  15.774  1.4402 -2.0118  0.7131
16333TIP3    H270415   2.389   1.761  15.672  0.4585 -0.0701 -1.7214
16334TIP3   OH270416   6.370   1.228  14.768 -0.1261 -0.3014 -0.3233
16334TIP3    H170417   6.392   1.239  14.861  0.6834  1.5807 -0.6811
16334TIP3    H270418   6.289   1.279  14.757  1.4969  2.3047 -1.2241
16335TIP3   OH270419   6.721   5.885   9.879 -0.1221  0.7080  0.2684
16335TIP3    H170420   6.663   5.886   9.955  0.9270 -1.7191  1.1949
16335TIP3    H270421   6.710   5.797   9.842  2.4311  0.3923  0.1136
16336TIP3   OH270422   6.602   4.910   3.438  0.0093 -0.2107  0.1680
16336TIP3    H170423   6.698   4.913   3.445  0.0101 -0.3087  0.2075
16336TIP3    H270424   6.571   4.973   3.502 -0.0177 -2.0426  2.0538
16337TIP3   OH270425   6.073   3.833  10.258 -0.4229  0.2499 -0.0147
16337TIP3    H170426   5.988   3.876  10.249 -0.6016  0.0730  0.7522
16337TIP3    H270427   6.136   3.904  10.261 -0.8476  0.6027  2.8872
16338TIP3   OH270428   4.677   4.215   2.067  0.4253 -0.1489  0.1661
16338TIP3    H170429   4.649   4.206   2.158  2.5484  2.2649  1.1527
16338TIP3    H270430   4.625   4.287   2.032  0.9986  0.2333  0.0895
16339TIP3   OH270431   1.103   5.206  14.964  0.1952  0.0806 -0.1225
16339TIP3    H170432   1.145   5.146  15.025  1.3791  0.2808 -0.7188
16339TIP3    H270433   1.025   5.237  15.010  0.4372 -0.6630  0.8132
16340TIP3   OH270434   3.263   2.569  14.736  0.2051 -0.1634 -0.5059
16340TIP3    H170435   3.236   2.656  14.764 -0.7299 -0.8549  0.8896
16340TIP3    H270436   3.252   2.570  14.641 -1.5934  0.6858 -0.3401
16341TIP3   OH270437   6.479   2.654   5.058  0.5012  0.1883 -0.3748
16341TIP3    H170438   6.404   2.702   5.094 -1.0067 -2.1313 -0.2288
16341TIP3    H270439   6.542   2.650   5.130  1.5726  3.4761 -0.9426
16342TIP3   OH270440   0.792   3.535   4.879 -0.1384 -0.4662 -0.6928
16342TIP3    H170441   0.762   3.462   4.933  2.5764 -0.6694  0.6965
16342TIP3    H270442   0.741   3.610   4.911 -1.2567 -1.2745 -0.5066
16343TIP3   OH270443   1.734   3.875  10.384 -0.0825  0.0038 -0.3781
16343TIP3    H170444   1.809   3.854  10.440  0.2618  0.3007 -0.7257
16343TIP3    H270445   1.756   3.837  10.299 -1.3441 -1.9344  0.0807
16344TIP3   OH270446   6.523   0.741   1.429 -0.0662  0.0876  0.1604
16344TIP3    H170447   6.517   0.828   1.470  0.2663  0.3152 -0.2678
16344TIP3    H270448   6.525   0.680   1.503 -0.1169  0.4549  0.4683
16345TIP3   OH270449   0.420   0.576  10.786 -0.2947  0.7419 -0.5984
16345TIP3    H170450   0.508   0.546  10.807 -0.9828  0.3556  2.0222
16345TIP3    H270451   0.413   0.566  10.691  2.2831  0.3128 -0.7983
16346TIP3   OH270452   1.299   4.776   4.964 -0.2768  0.2131  0.3718
16346TIP3    H170453   1.322   4.723   4.887 -0.0654  0.0782  0.5242
16346TIP3    H270454   1.213   4.812   4.944 -0.8889 -1.0285  0.6936
16347TIP3   OH270455   0.269   4.280  10.635  0.0403 -0.3226  0.0509
16347TIP3    H170456   0.245   4.340  10.565  1.2525  1.9481  1.4455
16347TIP3    H270457   0.353   4.244  10.609  0.3110  0.2328  0.1367
16348TIP3   OH270458   5.652   5.319   0.419 -0.0863  0.8634  0.8137
16348TIP3    H170459   5.737   5.277   0.410 -0.2683  0.6020  0.2553
16348TIP3    H270460   5.672   5.407   0.452  0.2953  0.3641  1.9684
16349TIP3   OH270461   5.721   5.614   1.242  0.2082 -0.1836 -0.2766
16349TIP3    H170462   5.716   5.669   1.163 -1.1034 -1.8088 -1.3833
16349TIP3    H270463   5.662   5.657   1.304  0.5046  0.5702 -0.4948
16350TIP3   OH270464   1.195   2.335   2.931  0.0534 -0.3382 -0.2530
16350TIP3    H170465   1.164   2.344   3.021  2.5586 -0.5853  0.7226
16350TIP3    H270466   1.207   2.241   2.919  1.1646 -0.2138 -0.2676
16351TIP3   OH270467   6.408   2.262   3.089 -0.0685 -0.2977 -0.2566
16351TIP3    H170468   6.467   2.259   3.164  1.2389 -1.2885 -1.2918
16351TIP3    H270469   6.424   2.180   3.042 -0.9553  0.2426 -1.5598
16352TIP3   OH270470   6.122   2.100   3.032  0.3385  0.0355  0.5936
16352TIP3    H170471   6.214   2.085   3.009  0.4470  1.3719  0.1051
16352TIP3    H270472   6.123   2.113   3.127  0.4059 -1.5909  0.8522
16353TIP3   OH270473   0.147   0.190   3.015  0.1277 -0.0393 -0.0030
16353TIP3    H170474   0.097   0.114   3.045 -0.0275 -0.4660 -1.2837
16353TIP3    H270475   0.137   0.189   2.920  0.3794  1.4196 -0.0624
16354TIP3   OH270476   0.108   2.653   0.763 -0.2904  0.5699 -0.2023
16354TIP3    H170477   0.095   2.633   0.856  1.0769  0.2759 -0.0569
16354TIP3    H270478   0.078   2.575   0.718 -0.7561  0.6286 -0.0061
16355TIP3   OH270479   5.256   4.289   2.541  0.1158 -0.1607 -0.2799
16355TIP3    H170480   5.164   4.306   2.520 -0.7426 -2.1794  1.4735
16355TIP3    H270481   5.268   4.326   2.628  0.9991  0.1276 -0.5160
16356TIP3   OH270482   6.698   4.968   0.705  0.0291  0.0606  0.1144
16356TIP3    H170483   6.635   4.915   0.656  0.3263 -0.3640  0.1933
16356TIP3    H270484   6.699   5.052   0.658  1.0927 -0.6827 -1.2589
16357TIP3   OH270485   3.109   3.889  13.533 -0.5336  0.0364  0.1085
16357TIP3    H170486   3.048   3.901  13.606 -0.2626  1.4733  0.1237
16357TIP3    H270487   3.176   3.830  13.567 -0.2814  0.8899  1.1003
16358TIP3   OH270488   3.035   1.806   4.542 -0.4665 -0.1730 -0.0801
16358TIP3    H170489   2.983   1.729   4.519 -3.7381  1.8488 -0.0738
16358TIP3    H270490   3.031   1.810   4.637  0.7877 -0.6394  0.0081
16359TIP3   OH270491   1.971   5.601   1.343 -0.3213 -0.4070 -0.8656
16359TIP3    H170492   1.959   5.512   1.309  0.1835 -0.1621 -1.7022
16359TIP3    H270493   1.882   5.637   1.348 -0.7241 -1.5628  1.2090
16360TIP3   OH270494   6.535   4.050  15.791 -0.0560 -0.4122  0.3182
16360TIP3    H170495   6.592   4.122  15.762  2.1667 -2.5567 -1.0404
16360TIP3    H270496   6.466   4.093  15.842 -0.5943  3.0108 -2.8627
16361TIP3   OH270497   5.342   6.441  11.889 -0.8009  0.0165  0.1648
16361TIP3    H170498   5.383   6.395  11.815  0.2637  1.0630  0.0566
16361TIP3    H270499   5.258   6.398  11.901  0.1314 -1.9307  0.0698
16362TIP3   OH270500   0.031   4.692  11.858 -0.4130  0.0923 -0.1555
16362TIP3    H170501   0.114   4.654  11.831 -0.5859 -1.3698  1.1803
16362TIP3    H270502   0.018   4.766  11.800  1.5478  0.0229 -0.7577
16363TIP3   OH270503   3.566   0.196   5.544 -0.5544 -0.1687  0.8711
16363TIP3    H170504   3.477   0.187   5.512 -0.3989  0.3072  0.2952
16363TIP3    H270505   3.617   0.223   5.468  0.1021 -0.5308  1.1696
16364TIP3   OH270506   3.920   5.968   0.572 -0.0854 -0.6068 -0.1089
16364TIP3    H170507   3.962   6.022   0.638 -2.4794  0.1309  0.9373
16364TIP3    H270508   3.921   5.880   0.608 -2.5571 -0.0001  1.6615
16365TIP3   OH270509   3.512   5.233  11.872 -0.7210 -0.3332 -0.6297
16365TIP3    H170510   3.521   5.328  11.861 -1.3864 -0.2891 -0.8438
16365TIP3    H270511   3.572   5.195  11.808  1.2485 -0.0796  0.9557
16366TIP3   OH270512   0.336   0.974   3.071  0.1832 -0.0478  0.1627
16366TIP3    H170513   0.255   0.930   3.046  0.7693 -0.7029 -0.6552
16366TIP3    H270514   0.313   1.024   3.150 -1.6074  1.6752 -1.3583
16367TIP3   OH270515   4.201   0.838  10.470 -0.2340 -0.4612 -0.3906
16367TIP3    H170516   4.280   0.793  10.439 -0.7091 -1.1564 -0.6167
16367TIP3    H270517   4.129   0.778  10.450 -0.6820 -0.4287  1.0153
16368TIP3   OH270518   3.265   1.989   0.000 -0.4357  0.0145 -0.2353
16368TIP3    H170519   3.250   1.905  -0.041 -1.8840 -0.0196  0.3170
16368TIP3    H270520   3.359   2.004  -0.010 -0.3789 -1.0414 -1.4884
16369TIP3   OH270521   3.933   2.225  10.673  0.3755 -0.2167  0.3799
16369TIP3    H170522   3.853   2.278  10.677  0.8318  0.7731 -2.1434
16369TIP3    H270523   3.929   2.180  10.589  2.8562  0.5750 -0.2553
16370TIP3   OH270524   4.091   1.460  15.557  0.1737 -0.0738 -0.0895
16370TIP3    H170525   4.017   1.402  15.541  1.2144 -1.5974  0.4327
16370TIP3    H270526   4.116   1.492  15.470 -1.2819  0.7469 -0.2372
16371TIP3   OH270527   5.393   4.164   4.984 -0.7744 -0.0587 -0.3393
16371TIP3    H170528   5.401   4.085   5.038  0.1202 -0.2047 -0.6657
16371TIP3    H270529   5.419   4.236   5.043  2.1241 -0.4024 -1.0328
16372TIP3   OH270530   1.848   4.526   3.362 -0.3419  0.5664 -0.2642
16372TIP3    H170531   1.842   4.620   3.344  0.2018  1.0639  1.8467
16372TIP3    H270532   1.941   4.506   3.356 -0.2387  0.5748  0.9476
16373TIP3   OH270533   4.344   0.419   0.569 -0.3421 -0.0174 -0.3632
16373TIP3    H170534   4.334   0.514   0.578 -1.1295  0.2369 -2.9435
16373TIP3    H270535   4.258   0.383   0.593 -0.1154 -0.0611  0.3891
16374TIP3   OH270536   2.290   5.888   4.258  0.5395  0.7110  0.9844
16374TIP3    H170537   2.345   5.812   4.278  0.6991  0.0609 -1.6107
16374TIP3    H270538   2.351   5.961   4.249  0.6455  0.6413  1.1475
16375TIP3   OH270539   6.502   0.467  12.146 -0.6762 -0.4707  0.7562
16375TIP3    H170540   6.571   0.401  12.132 -0.0670  0.4273 -0.6489
16375TIP3    H270541   6.441   0.454  12.074  0.0740  1.2426 -0.2331
16376TIP3   OH270542   6.553   3.428  15.367 -0.5677 -0.8199  0.5611
16376TIP3    H170543   6.493   3.501  15.356 -0.0380 -0.4103  0.3405
16376TIP3    H270544   6.513   3.356  15.319 -0.5768 -0.3715 -0.1103
16377TIP3   OH270545   6.890   2.990  14.739 -0.0704 -0.2534  0.1222
16377TIP3    H170546   6.983   2.970  14.726  0.3791  2.2948 -1.4767
16377TIP3    H270547   6.889   3.052  14.812 -0.3854  0.3377 -0.3681
16378TIP3   OH270548   6.664   4.095  13.902  0.3058 -0.8054  0.1682
16378TIP3    H170549   6.660   4.149  13.823 -1.4073 -0.2528  0.5783
16378TIP3    H270550   6.577   4.056  13.909  0.3356 -0.6654  1.8779
16379TIP3   OH270551   5.993   0.630  13.883 -0.0032  0.5330 -0.4823
16379TIP3    H170552   6.053   0.598  13.950 -0.9554  1.2875  0.7672
16379TIP3    H270553   6.016   0.722  13.872 -0.7254  0.7583 -0.1927
16380TIP3   OH270554   6.353   1.076  16.371  0.3809  0.2534 -0.0301
16380TIP3    H170555   6.348   1.098  16.278 -1.9022 -1.3223 -0.3769
16380TIP3    H270556   6.346   1.160  16.417  0.9747  0.9926 -1.2610
16381TIP3   OH270557   6.372   4.464   0.295  0.0837  0.1819 -0.2787
16381TIP3    H170558   6.395   4.373   0.273 -0.1437 -0.6114  2.3774
16381TIP3    H270559   6.372   4.510   0.211  0.1284 -2.2822 -1.7247
16382TIP3   OH270560   5.755   2.466  16.476  0.0751 -0.1985  0.2149
16382TIP3    H170561   5.751   2.489  16.569  0.1137  1.9085 -0.2593
16382TIP3    H270562   5.847   2.473  16.453  0.0041 -0.2612 -0.0893
16383TIP3   OH270563   2.457   1.094  13.004  0.1880  0.1402  0.2444
16383TIP3    H170564   2.505   1.013  12.990  0.7283  0.2659  1.2610
16383TIP3    H270565   2.492   1.128  13.087 -0.4191  1.1245  0.1064
16384TIP3   OH270566   0.771   1.637  15.203  0.2052 -0.3424  0.6995
16384TIP3    H170567   0.784   1.667  15.293 -0.8299  1.8245  0.1835
16384TIP3    H270568   0.850   1.663  15.157 -1.6402  4.3981 -0.3429
16385TIP3   OH270569   2.924   6.699   1.579 -0.6672 -0.1535  0.3002
16385TIP3    H170570   2.915   6.690   1.484  0.9252  2.5680 -0.2167
16385TIP3    H270571   3.000   6.756   1.590  0.1365 -1.6141  3.3012
16386TIP3   OH270572   5.442   6.676  14.125 -0.0371 -0.1178 -0.1240
16386TIP3    H170573   5.528   6.640  14.147  0.6051  1.6583  0.4274
16386TIP3    H270574   5.461   6.748  14.066 -1.2857 -0.6291 -1.2022
16387TIP3   OH270575   2.967   2.910  16.030 -0.6736  0.4152  0.1193
16387TIP3    H170576   2.960   2.831  16.085 -1.8857  0.2841 -0.1960
16387TIP3    H270577   2.924   2.886  15.948  1.1554  0.5954 -0.9450
16388TIP3   OH270578   0.287   0.765  16.259  0.5513  0.3462  0.8238
16388TIP3    H170579   0.197   0.792  16.240  0.5142 -0.4948 -0.3143
16388TIP3    H270580   0.277   0.686  16.314  0.6533  2.0544  3.4735
16389TIP3   OH270581   2.583   5.634  12.720 -0.0035 -0.4625 -0.3749
16389TIP3    H170582   2.627   5.569  12.665  1.5519 -0.2282  0.5329
16389TIP3    H270583   2.653   5.672  12.773 -1.2067  0.4867  0.5952
16390TIP3   OH270584   0.006   2.567   9.653 -0.5206 -0.3943 -0.1409
16390TIP3    H170585   0.079   2.524   9.608 -0.4317 -0.6794  0.2647
16390TIP3    H270586  -0.062   2.500   9.656 -1.1496  0.1678 -1.3421
16391TIP3   OH270587   6.879   0.740  13.670  0.9655  0.4464  0.4877
16391TIP3    H170588   6.924   0.752  13.753  0.0162 -0.4547  1.1555
16391TIP3    H270589   6.815   0.812  13.666 -0.8192 -0.9613  1.8309
16392TIP3   OH270590   5.849   2.636   1.390 -0.5035 -0.0770  0.2551
16392TIP3    H170591   5.902   2.642   1.470  0.0459  0.1325 -0.1183
16392TIP3    H270592   5.780   2.700   1.401  0.1733  0.6860  0.1196
16393TIP3   OH270593   1.417   4.615  12.529 -0.3993  0.2344 -0.1416
16393TIP3    H170594   1.415   4.555  12.455 -0.9718  0.2945 -0.1777
16393TIP3    H270595   1.359   4.687  12.503  2.5782  2.4296 -1.4794
16394TIP3   OH270596   4.718   6.177   3.076  0.4008  0.1737  0.0130
16394TIP3    H170597   4.712   6.172   3.171  1.4765  1.5990  0.1868
16394TIP3    H270598   4.637   6.220   3.049  0.5462  0.6953  0.3915
16395TIP3   OH270599   2.012   4.006  14.232  0.0892  0.5802  0.2775
16395TIP3    H170600   1.984   4.009  14.140 -0.9996  2.5580  0.6130
16395TIP3    H270601   1.953   3.943  14.273  0.4570 -0.1712 -0.3166
16396TIP3   OH270602   5.201   6.102   1.748  0.5960 -0.0385  0.2895
16396TIP3    H170603   5.287   6.063   1.765  0.4757 -0.8090 -0.7928
16396TIP3    H270604   5.142   6.055   1.807  0.3461 -2.0282 -1.4222
16397TIP3   OH270605   4.986   3.750  15.739 -0.4602  0.2727  0.0249
16397TIP3    H170606   4.957   3.666  15.774 -2.5000  0.1611 -1.7536
16397TIP3    H270607   4.910   3.785  15.694  1.1371  1.8108 -1.6304
16398TIP3   OH270608   5.937   1.805   6.215 -0.3533  0.3102 -0.0190
16398TIP3    H170609   5.962   1.743   6.282  0.2005  0.1168 -0.3992
16398TIP3    H270610   5.877   1.756   6.158  1.5820 -0.5178 -1.4348
16399TIP3   OH270611   1.297   6.887   1.254 -0.2572  0.3580 -0.7385
16399TIP3    H170612   1.302   6.835   1.335  0.1580 -0.0720 -1.0369
16399TIP3    H270613   1.354   6.963   1.271 -0.5089  0.4896 -0.4705
16400TIP3   OH270614   3.994   0.538   3.719  0.0874  0.1687 -0.1499
16400TIP3    H170615   4.060   0.608   3.728 -0.6759  1.0974 -1.5202
16400TIP3    H270616   4.046   0.460   3.699  1.0386  0.0512  2.2941
16401TIP3   OH270617   3.488   3.416  12.839 -0.0286 -0.2413  0.2167
16401TIP3    H170618   3.426   3.481  12.806 -0.4179 -0.9164 -0.4186
16401TIP3    H270619   3.435   3.338  12.854  0.5239 -0.5736  0.4673
16402TIP3   OH270620   3.052   3.392  12.647 -0.5270 -0.5659  0.2160
16402TIP3    H170621   2.970   3.420  12.607 -1.4736 -1.9312  1.1347
16402TIP3    H270622   3.027   3.326  12.711  1.2967 -1.0921  0.4536
16403TIP3   OH270623   0.192   5.862   3.179 -0.4245 -0.0587  0.0319
16403TIP3    H170624   0.112   5.830   3.136  0.1124 -0.2053 -0.8834
16403TIP3    H270625   0.218   5.791   3.237 -0.7322 -0.1728  0.0339
16404TIP3   OH270626   6.048   1.943   4.090  0.8105 -0.1900 -0.2682
16404TIP3    H170627   5.998   2.015   4.128 -1.0857 -1.2515 -0.6399
16404TIP3    H270628   6.077   1.892   4.165  2.6073  1.1625  0.0348
16405TIP3   OH270629   6.869   4.925   0.922  0.0520 -0.1229 -0.0933
16405TIP3    H170630   6.841   4.959   0.837 -1.0121 -1.2368 -0.2195
16405TIP3    H270631   6.854   4.997   0.983 -1.6141 -0.1304 -0.4382
16406TIP3   OH270632   2.351   6.082   2.261 -0.1974 -0.7175 -0.3816
16406TIP3    H170633   2.311   5.995   2.258 -0.2694 -0.6731 -1.0627
16406TIP3    H270634   2.385   6.095   2.172  0.6826 -0.4527 -0.0143
16407TIP3   OH270635   2.012   1.700  13.185 -0.0783 -0.0793  0.4455
16407TIP3    H170636   2.012   1.796  13.177  0.3086 -0.0627  0.6107
16407TIP3    H270637   2.100   1.674  13.159  0.2261 -0.2825  1.6265
16408TIP3   OH270638   2.477   2.019  12.591  0.6595  0.1303 -0.1430
16408TIP3    H170639   2.507   1.983  12.508  2.6533  1.2206  0.0480
16408TIP3    H270640   2.536   1.983  12.656 -0.9084 -0.7391  0.8535
16409TIP3   OH270641   1.837   6.800  11.876  0.1218  0.1089 -0.7884
16409TIP3    H170642   1.828   6.872  11.812 -2.1750 -0.1525 -0.8519
16409TIP3    H270643   1.834   6.721  11.823  1.2722 -0.0796 -0.5911
16410TIP3   OH270644   5.787   3.541   2.196 -0.4482  0.5772  0.5994
16410TIP3    H170645   5.812   3.452   2.173  1.2268  1.3910 -1.0151
16410TIP3    H270646   5.838   3.562   2.274  0.4000  0.6492  0.0342
16411TIP3   OH270647   0.297   6.771  14.897  0.0122 -0.6452  0.0275
16411TIP3    H170648   0.241   6.694  14.903  0.3625 -1.0113 -1.1957
16411TIP3    H270649   0.236   6.845  14.907 -0.8689 -1.0072 -2.0303
16412TIP3   OH270650   4.941   6.301   1.687  0.2048  0.2297 -0.5122
16412TIP3    H170651   4.969   6.294   1.778  1.0325  2.3808 -0.5381
16412TIP3    H270652   4.849   6.274   1.688  0.5165 -0.9030  0.7159
16413TIP3   OH270653   4.371   1.526   1.073 -0.2316  0.6193  0.2403
16413TIP3    H170654   4.440   1.467   1.044 -0.7426  0.8648 -1.5489
16413TIP3    H270655   4.374   1.599   1.011 -0.3065  1.9827  1.7736
16414TIP3   OH270656   6.308   1.966   2.864 -0.1438  0.1652 -0.3375
16414TIP3    H170657   6.358   2.039   2.828  1.0271  0.6652  2.1197
16414TIP3    H270658   6.370   1.917   2.918 -1.2960 -1.7414 -0.6286
16415TIP3   OH270659   2.463   0.806   4.997 -0.3608  0.8047 -0.7998
16415TIP3    H170660   2.386   0.839   5.044  1.2697  2.3240  0.9711
16415TIP3    H270661   2.436   0.721   4.962 -2.4960  0.8100  0.6831
16416TIP3   OH270662   5.022   0.246   4.095 -0.2391 -0.7458  0.2224
16416TIP3    H170663   5.071   0.294   4.028 -0.2681  0.1994  0.8713
16416TIP3    H270664   5.081   0.241   4.170 -0.9755  0.0508  0.8662
16417TIP3   OH270665   6.523   2.955   0.381 -0.2481 -0.1490  0.2383
16417TIP3    H170666   6.535   3.011   0.305  0.8027  1.4202  1.5013
16417TIP3    H270667   6.428   2.953   0.394 -0.6044 -1.8097 -2.0253
16418TIP3   OH270668   5.762   4.045   2.557  0.1677 -0.0645  0.9371
16418TIP3    H170669   5.808   3.962   2.547  0.5776  0.1832  0.7719
16418TIP3    H270670   5.794   4.099   2.485 -0.4625  0.0727  0.7512
16419TIP3   OH270671   2.310   6.572   1.188 -0.1260 -0.3110 -1.0788
16419TIP3    H170672   2.402   6.596   1.177 -0.1461  0.2243 -0.2451
16419TIP3    H270673   2.266   6.656   1.204 -0.9548 -0.4273 -2.5978
16420TIP3   OH270674   1.405   4.989   1.844 -0.2062  0.5618 -0.7104
16420TIP3    H170675   1.485   4.975   1.795  0.6564  0.6298  0.6279
16420TIP3    H270676   1.344   4.923   1.810  1.5080 -1.8322  0.5566
16421TIP3   OH270677   2.612   0.836  16.511 -0.2986  0.2345 -0.1970
16421TIP3    H170678   2.543   0.818  16.575  1.8591 -1.4753  1.8606
16421TIP3    H270679   2.631   0.751  16.471  0.8427  0.5779 -0.4340
16422TIP3   OH270680   0.023   4.751   5.423  0.2160 -0.1493  0.0422
16422TIP3    H170681   0.015   4.684   5.355  1.8108 -1.2281  0.8376
16422TIP3    H270682   0.108   4.792   5.407  0.4714 -0.2051  1.1789
16423TIP3   OH270683   0.432   2.410   5.576  0.1598  0.5618 -0.7647
16423TIP3    H170684   0.403   2.389   5.487  1.2622  0.4075 -1.1122
16423TIP3    H270685   0.510   2.464   5.563  0.4788  0.3270  0.1017
16424TIP3   OH270686   0.169   4.630   5.884 -0.6003 -0.0372  0.3724
16424TIP3    H170687   0.125   4.592   5.960 -2.5116  1.3814  0.0510
16424TIP3    H270688   0.112   4.609   5.810  1.7799 -2.3750 -0.9571
16425TIP3   OH270689   0.413   0.593  13.370  0.0300  0.5948 -0.4162
16425TIP3    H170690   0.422   0.604  13.276  0.6293 -0.4223 -0.4871
16425TIP3    H270691   0.328   0.633  13.391 -1.8654 -2.3285 -1.9455
16426TIP3   OH270692   3.036   0.660   4.352 -0.0563 -0.3237 -0.0166
16426TIP3    H170693   3.034   0.581   4.406  0.1794 -0.0455  0.3966
16426TIP3    H270694   3.015   0.628   4.264 -0.9731 -0.6908  0.3273
16427TIP3   OH270695   4.813   3.720   3.223 -0.2034 -0.8214  0.3085
16427TIP3    H170696   4.738   3.676   3.183 -0.5502 -0.1646  0.2275
16427TIP3    H270697   4.883   3.712   3.158 -0.9552  0.8463 -0.7768
16428TIP3   OH270698   1.937   4.730   4.516  0.2493 -0.2321 -0.6142
16428TIP3    H170699   2.021   4.728   4.561 -0.1163  1.5619  0.2763
16428TIP3    H270700   1.912   4.823   4.516 -3.3451 -0.9344  2.3635
16429TIP3   OH270701   3.174   5.503  13.671  0.1167 -0.5484  0.0331
16429TIP3    H170702   3.129   5.550  13.741 -0.5586  0.6432 -1.1569
16429TIP3    H270703   3.124   5.421  13.663 -0.5530 -0.1624  0.1407
16430TIP3   OH270704   6.024   1.629   0.856 -0.2696  0.4945 -0.3640
16430TIP3    H170705   6.017   1.587   0.770  1.2465  1.2430 -0.8944
16430TIP3    H270706   6.075   1.567   0.909 -0.6868  0.3027 -0.1827
16431TIP3   OH270707   5.738   4.355   3.151 -0.1912  0.1768  0.1503
16431TIP3    H170708   5.705   4.387   3.067 -1.1871  2.8415  1.4298
16431TIP3    H270709   5.814   4.410   3.170 -0.7393  0.5405  1.5070
16432TIP3   OH270710   3.398   5.747   0.259  0.2489  0.5465  0.3342
16432TIP3    H170711   3.375   5.804   0.333 -0.0083 -0.1071  0.7723
16432TIP3    H270712   3.493   5.735   0.267  0.6113  2.2608 -0.7609
16433TIP3   OH270713   5.525   0.303   4.116 -0.1470 -0.2545  0.3981
16433TIP3    H170714   5.602   0.295   4.172  0.9653  0.3330 -0.9850
16433TIP3    H270715   5.452   0.311   4.177  1.0194  0.4727  1.7645
16434TIP3   OH270716   3.009   2.682  11.859  0.0845  0.2197  0.2840
16434TIP3    H170717   2.958   2.640  11.790  1.3664 -0.2751 -0.3960
16434TIP3    H270718   3.052   2.610  11.905 -1.3562  0.4679  2.1699
16435TIP3   OH270719   3.158   2.457  16.433  0.2891  0.1841 -0.0170
16435TIP3    H170720   3.250   2.434  16.424 -0.4354 -2.5206 -1.8447
16435TIP3    H270721   3.121   2.388  16.489 -0.4681  1.9137  1.7449
16436TIP3   OH270722   4.136   6.673   3.084 -0.3777 -0.7315  0.3145
16436TIP3    H170723   4.109   6.657   2.994  0.7632 -0.7838 -0.0434
16436TIP3    H270724   4.185   6.755   3.079 -0.7881 -0.4410  0.9961
16437TIP3   OH270725   0.941   4.633   1.554 -0.1826 -0.1414 -0.1965
16437TIP3    H170726   0.958   4.571   1.625 -1.4879 -2.2238 -1.5726
16437TIP3    H270727   0.942   4.719   1.595 -0.1998 -1.2128  2.1866
16438TIP3   OH270728   5.363   2.452   0.440  0.3690  0.8595  0.0468
16438TIP3    H170729   5.270   2.440   0.455  0.0366 -0.8114 -2.5716
16438TIP3    H270730   5.378   2.546   0.448 -1.3991  1.0854  1.0519
16439TIP3   OH270731   6.120   3.386   9.908 -0.2742 -0.0732  0.0772
16439TIP3    H170732   6.036   3.394   9.863 -0.7816 -0.1782  0.9782
16439TIP3    H270733   6.121   3.460   9.969  0.2498 -0.1344  0.1441
16440TIP3   OH270734   4.706   5.000  12.934 -0.7202  0.2319  0.0271
16440TIP3    H170735   4.612   5.015  12.929 -0.4392  1.7630 -1.6893
16440TIP3    H270736   4.724   4.936  12.864 -0.5017 -0.2418  0.5075
16441TIP3   OH270737   0.010   3.609  12.062  0.3987 -0.3510 -0.0486
16441TIP3    H170738  -0.050   3.585  12.133 -1.5591  1.4907 -0.9284
16441TIP3    H270739   0.004   3.536  12.000 -0.8726 -0.2870 -0.0375
16442TIP3   OH270740   3.518   5.487  11.722 -0.0991  0.6600 -0.0088
16442TIP3    H170741   3.606   5.508  11.753  0.5083  0.0676 -1.2607
16442TIP3    H270742   3.524   5.491  11.626 -1.1652 -0.3902 -0.1541
16443TIP3   OH270743   2.071   6.542  13.039  0.4683  0.0534 -0.5236
16443TIP3    H170744   1.999   6.598  13.013 -0.1197  0.6544  2.0804
16443TIP3    H270745   2.032   6.456  13.052  0.4553  0.0950 -0.2776
16444TIP3   OH270746   4.423   4.755   4.600  0.5937 -0.2382  0.3790
16444TIP3    H170747   4.427   4.841   4.560  1.0462 -0.7091 -0.6203
16444TIP3    H270748   4.503   4.711   4.571  0.7826 -0.7163  1.5448
16445TIP3   OH270749   2.703   4.524   4.022  0.3568 -0.3109 -0.0195
16445TIP3    H170750   2.766   4.512   3.951 -1.0693 -2.5707 -1.0148
16445TIP3    H270751   2.757   4.527   4.101  1.8648  0.4458 -1.0248
16446TIP3   OH270752   1.592   3.842  15.310  0.4130 -0.2672 -0.1866
16446TIP3    H170753   1.588   3.825  15.404 -1.4952 -0.6953 -0.3069
16446TIP3    H270754   1.621   3.760  15.272  0.0624 -0.4519 -0.0590
16447TIP3   OH270755   4.509   0.652  16.230  0.1436 -0.4842  0.1485
16447TIP3    H170756   4.588   0.703  16.249  0.0358 -0.5786  0.8550
16447TIP3    H270757   4.468   0.637  16.315 -1.5377  0.9972 -0.3454
16448TIP3   OH270758   5.973   3.643   0.437 -0.3367 -0.2887 -0.5193
16448TIP3    H170759   6.035   3.636   0.510 -0.3639 -0.3613 -0.5031
16448TIP3    H270760   5.987   3.563   0.386 -0.4343 -0.3176 -0.5013
16449TIP3   OH270761   3.048   3.764  15.376 -0.7979  0.2396  0.1513
16449TIP3    H170762   3.117   3.825  15.349 -1.6566  0.8987 -0.6013
16449TIP3    H270763   3.034   3.783  15.469 -0.9049  1.0631 -0.0209
16450TIP3   OH270764   4.357   3.158   4.544  0.5806 -0.7684 -0.2463
16450TIP3    H170765   4.349   3.175   4.450 -1.2049 -2.7829 -0.5454
16450TIP3    H270766   4.324   3.238   4.585  0.2073 -0.3194 -1.3617
16451TIP3   OH270767   0.990   5.119   5.245 -0.2154  0.6749 -0.8119
16451TIP3    H170768   1.082   5.132   5.269 -0.3546  0.2164  0.0071
16451TIP3    H270769   0.989   5.129   5.150  0.9651 -0.9017 -1.0404
16452TIP3   OH270770   2.323   4.508  13.492  0.6940  0.0198 -0.1041
16452TIP3    H170771   2.307   4.493  13.399 -1.4825  1.9535 -0.1093
16452TIP3    H270772   2.254   4.568  13.520  1.5388 -0.1428  2.6814
16453TIP3   OH270773   0.063   1.670  12.297  0.2293  0.4133  0.0156
16453TIP3    H170774  -0.000   1.602  12.319 -1.2713  1.6521 -0.2850
16453TIP3    H270775   0.094   1.647  12.209  0.7635 -0.5869  0.4496
16454TIP3   OH270776   5.117   6.297  13.579  0.2259  0.2531 -0.2709
16454TIP3    H170777   5.044   6.239  13.559 -0.3750  0.3913  1.3764
16454TIP3    H270778   5.079   6.369  13.629  1.4639  0.3095  0.6634
16455TIP3   OH270779   2.538   1.457  16.523 -0.2526  0.1193 -0.2208
16455TIP3    H170780   2.631   1.475  16.541 -0.0047 -1.0250 -0.2143
16455TIP3    H270781   2.538   1.417  16.436 -0.6468 -0.5085  0.0547
16456TIP3   OH270782   5.025   6.688  13.286  0.4170 -0.0621  0.3349
16456TIP3    H170783   5.039   6.739  13.206  2.4384  1.3544  1.4982
16456TIP3    H270784   5.080   6.611  13.275 -0.0647 -0.3544 -0.0395
16457TIP3   OH270785   1.390   5.559  12.182  0.2732 -0.0720 -0.9011
16457TIP3    H170786   1.458   5.599  12.236  1.6934 -2.2622 -0.9466
16457TIP3    H270787   1.340   5.505  12.243  0.6171 -0.9697 -1.3968
16458TIP3   OH270788   0.995   3.023   5.711  0.8976  0.8149 -0.1052
16458TIP3    H170789   0.930   2.986   5.771  0.7108  2.6805  0.9168
16458TIP3    H270790   0.944   3.071   5.647  0.9550 -2.6286 -3.0363
16459TIP3   OH270791   4.779   6.595  11.053  0.0968  0.0243 -0.5850
16459TIP3    H170792   4.811   6.661  10.992  2.0156 -0.2029  0.1130
16459TIP3    H270793   4.852   6.535  11.064 -0.8645 -0.9988  0.4773
16460TIP3   OH270794   5.948   1.041   0.653  0.2642  0.0276 -0.0939
16460TIP3    H170795   5.892   1.083   0.718  0.6847 -0.4310  0.5725
16460TIP3    H270796   6.034   1.035   0.695  0.5407 -0.2849 -0.6849
16461TIP3   OH270797   1.499   6.262  11.324 -0.1496  0.1837  0.3856
16461TIP3    H170798   1.529   6.253  11.415  0.0626  0.9451  0.3981
16461TIP3    H270799   1.463   6.176  11.302  1.4544 -0.5770  0.5869
16462TIP3   OH270800   2.002   3.611  12.863 -0.4494  0.0433 -0.2236
16462TIP3    H170801   1.963   3.549  12.923 -0.7598  0.3118 -0.1479
16462TIP3    H270802   2.005   3.694  12.911  3.4738 -0.6840  1.1330
16463TIP3   OH270803   6.405   1.021  14.540 -0.3929 -0.7050 -0.5601
16463TIP3    H170804   6.327   0.979  14.505 -1.4559  0.6976  0.0409
16463TIP3    H270805   6.372   1.084  14.604  1.1751  0.4011 -0.7778
16464TIP3   OH270806   2.046   0.579   0.371  0.3161 -0.0218 -0.1814
16464TIP3    H170807   2.001   0.583   0.287  1.4038 -0.7593 -0.8287
16464TIP3    H270808   2.018   0.497   0.410 -1.1270  0.8722  0.7674
16465TIP3   OH270809   1.287   0.688  11.540 -0.2968 -0.5372 -0.4171
16465TIP3    H170810   1.275   0.639  11.621 -0.7812  0.4236  0.1120
16465TIP3    H270811   1.281   0.622  11.471 -2.0226 -1.0948  0.2152
16466TIP3   OH270812   1.265   4.159   1.314  0.3626  0.0877  0.5410
16466TIP3    H170813   1.309   4.209   1.383  2.8226  0.9078 -1.4706
16466TIP3    H270814   1.217   4.225   1.265 -0.0301 -0.2359  0.4926
16467TIP3   OH270815   1.756   0.793  16.537  0.2935 -0.7001  0.4434
16467TIP3    H170816   1.829   0.761  16.590  1.2275 -1.7636 -1.3625
16467TIP3    H270817   1.778   0.767  16.448 -1.9538 -0.3900 -0.2790
16468TIP3   OH270818   2.684   5.713  10.328  0.5576  0.1360  0.5429
16468TIP3    H170819   2.589   5.726  10.320  0.7910  2.6890  0.9669
16468TIP3    H270820   2.721   5.772  10.262  1.9035  2.2161  3.0108
16469TIP3   OH270821   5.417   3.503  11.732  0.8114  0.2438  0.1517
16469TIP3    H170822   5.440   3.418  11.771  0.6544  0.0150 -0.2489
16469TIP3    H270823   5.383   3.554  11.806 -1.1615 -0.7901  0.0369
16470TIP3   OH270824   3.425   4.396   1.058  0.3208  0.4857  0.1746
16470TIP3    H170825   3.372   4.431   0.987  1.1032  0.4694 -0.4254
16470TIP3    H270826   3.378   4.316   1.085 -0.6875  1.1882  0.5908
16471TIP3   OH270827   6.030   6.300  16.400 -0.2749  0.2632 -0.0031
16471TIP3    H170828   5.939   6.270  16.399 -0.9141  1.7764  2.5795
16471TIP3    H270829   6.081   6.225  16.368 -2.1901 -1.5827  1.0283
16472TIP3   OH270830   0.148   0.566  15.548  0.9002 -0.2692 -0.2499
16472TIP3    H170831   0.154   0.656  15.582  1.7420 -0.6888  0.7688
16472TIP3    H270832   0.054   0.554  15.533  0.9433  1.4947 -2.5026
16473TIP3   OH270833   4.028   1.196  12.359  0.1985 -0.2549  0.2673
16473TIP3    H170834   4.016   1.102  12.349 -0.3145 -0.3905  1.9390
16473TIP3    H270835   4.115   1.214  12.322 -0.0376 -1.2310 -0.8034
16474TIP3   OH270836   4.796   6.037  14.508  0.0293  0.2181  0.2323
16474TIP3    H170837   4.877   6.001  14.546  0.0349 -0.8507 -0.7601
16474TIP3    H270838   4.727   5.980  14.540 -0.2921  0.8415  0.6795
16475TIP3   OH270839   0.015   6.475  15.661  0.2065  0.7292 -0.2166
16475TIP3    H170840   0.071   6.520  15.597  0.5128  0.8134  0.1099
16475TIP3    H270841  -0.007   6.543  15.725  0.6118  0.4360  0.2404
16476TIP3   OH270842   3.869   3.417   6.305 -0.1417  0.0472 -0.6891
16476TIP3    H170843   3.952   3.463   6.293 -0.2526  0.2868 -0.5375
16476TIP3    H270844   3.803   3.475   6.266 -0.4211  0.5145  0.4400
16477TIP3   OH270845   4.976   2.967  14.884  0.2084 -0.3813  0.5012
16477TIP3    H170846   5.044   2.922  14.833  0.0617  3.2431 -3.3972
16477TIP3    H270847   4.899   2.910  14.876  1.2480 -1.7972  0.0804
16478TIP3   OH270848   1.848   0.072   4.506  0.1690  0.5511  0.3968
16478TIP3    H170849   1.879   0.036   4.423 -0.5898  2.6924 -0.8991
16478TIP3    H270850   1.922   0.121   4.541 -0.0643  1.1837  0.0239
16479TIP3   OH270851   3.165   0.577   2.650  0.2757  0.4149  0.4013
16479TIP3    H170852   3.161   0.603   2.558  0.1614  0.4247  0.4094
16479TIP3    H270853   3.106   0.637   2.694 -0.7385 -0.4790  0.2782
16480TIP3   OH270854   3.292   6.363   4.073  0.1648  0.4562 -0.5245
16480TIP3    H170855   3.264   6.385   3.984 -2.6148 -0.1552  0.0956
16480TIP3    H270856   3.280   6.444   4.123 -0.5535  0.1870 -0.2483
16481TIP3   OH270857   5.301   2.998  13.670 -0.9910 -0.3453  0.1630
16481TIP3    H170858   5.379   3.028  13.717 -1.8319  0.7908  0.8874
16481TIP3    H270859   5.303   3.046  13.587 -2.1782  1.6112  1.1983
16482TIP3   OH270860   5.165   1.721  16.316 -0.3480  0.3048  0.0861
16482TIP3    H170861   5.196   1.741  16.405  2.2937 -0.0095 -0.6653
16482TIP3    H270862   5.176   1.627  16.308  0.1605  0.4321 -0.7961
16483TIP3   OH270863   3.452   0.461  16.097  0.2825 -0.4161  0.0843
16483TIP3    H170864   3.420   0.374  16.120  1.5522 -1.0188 -0.3603
16483TIP3    H270865   3.440   0.466  16.002 -0.3195  0.1255  0.1843
16484TIP3   OH270866   6.781   6.895  11.948 -0.1378  0.2038 -0.2931
16484TIP3    H170867   6.833   6.870  11.871  1.0119  0.9329  0.2118
16484TIP3    H270868   6.841   6.884  12.021  0.3192  3.7145  0.0484
16485TIP3   OH270869   6.761   3.798   0.651  0.2012  0.3390  0.2023
16485TIP3    H170870   6.728   3.870   0.705  1.1105  1.1318 -0.2877
16485TIP3    H270871   6.853   3.791   0.674 -0.2590 -1.9706  1.6803
16486TIP3   OH270872   2.654   4.263   2.939  0.2334 -0.6028  0.4403
16486TIP3    H170873   2.591   4.192   2.944 -0.0206 -0.4553 -0.4568
16486TIP3    H270874   2.728   4.234   2.991 -0.0293 -1.3544  0.3997
16487TIP3   OH270875   5.307   0.039   4.743 -0.6254  0.2508 -0.2820
16487TIP3    H170876   5.306   0.109   4.808 -0.6147 -0.1330  0.1366
16487TIP3    H270877   5.230  -0.013   4.762 -0.8176  0.3391 -0.8081
16488TIP3   OH270878   2.757   0.040  15.552  0.5336 -0.2420 -0.4922
16488TIP3    H170879   2.756  -0.049  15.589  1.3108 -0.4675 -0.9850
16488TIP3    H270880   2.681   0.044  15.494 -0.0974 -0.2318  0.3108
16489TIP3   OH270881   5.480   6.549  12.578  0.1448 -0.2607 -0.1541
16489TIP3    H170882   5.565   6.591  12.569  0.7559 -1.6915 -1.6212
16489TIP3    H270883   5.500   6.457  12.598 -1.1300 -0.0044  2.8982
16490TIP3   OH270884   3.529   4.627  15.916  0.4403  0.1335 -0.2600
16490TIP3    H170885   3.513   4.539  15.951 -0.7228  0.3202 -0.2713
16490TIP3    H270886   3.556   4.678  15.993 -0.4539  0.1405  0.0599
16491TIP3   OH270887   2.945   5.621   0.172 -0.0123 -0.7010  0.0508
16491TIP3    H170888   3.014   5.568   0.133  0.1032 -0.5548  0.0583
16491TIP3    H270889   2.908   5.671   0.099 -0.7211 -1.4470 -0.1270
16492TIP3   OH270890   2.329   3.220   5.772  0.9815 -0.2730 -0.0272
16492TIP3    H170891   2.329   3.265   5.857  1.1112  0.2387 -0.2930
16492TIP3    H270892   2.275   3.142   5.786 -0.7847  0.8979 -0.0501
16493TIP3   OH270893   0.313   2.313  12.680 -0.1714 -0.0264 -0.4493
16493TIP3    H170894   0.399   2.305  12.720 -0.2367  0.4627 -0.1994
16493TIP3    H270895   0.258   2.250  12.727 -0.1226  0.1724 -0.1216
16494TIP3   OH270896   4.717   0.760  12.592 -0.0564  0.2202  0.5118
16494TIP3    H170897   4.743   0.704  12.519  0.5414  0.9677  0.1365
16494TIP3    H270898   4.794   0.815  12.608 -0.1144 -0.0274  1.8055
16495TIP3   OH270899   5.295   4.668  13.061 -0.2080  0.0780  0.0973
16495TIP3    H170900   5.272   4.758  13.039  0.3358  0.2902  0.3769
16495TIP3    H270901   5.306   4.668  13.156 -0.4139 -0.3349  0.1254
16496TIP3   OH270902   0.736   5.405  12.191  0.9613  0.1811 -0.8418
16496TIP3    H170903   0.677   5.427  12.119  0.3210  3.5236  0.5391
16496TIP3    H270904   0.679   5.393  12.267  1.8180 -0.3982 -0.2635
16497TIP3   OH270905   0.203   4.424  11.946  0.1007 -0.7844  0.0382
16497TIP3    H170906   0.189   4.350  12.006 -0.9072  0.8555  1.9658
16497TIP3    H270907   0.220   4.498  12.004 -0.6481  0.8500 -1.7388
16498TIP3   OH270908   5.759   6.235   4.773  0.3086  0.0666 -0.0558
16498TIP3    H170909   5.825   6.175   4.737  1.6981  0.3318  1.9202
16498TIP3    H270910   5.721   6.277   4.695  2.2645 -0.3072 -1.2934
16499TIP3   OH270911   6.304   2.459   9.996  0.8287  0.4439  0.7537
16499TIP3    H170912   6.387   2.506  10.007  0.3779  2.0769 -2.0103
16499TIP3    H270913   6.329   2.367  10.000  2.4099  0.8545  2.0398
16500TIP3   OH270914   4.970   3.531   5.157  0.9564  0.8208 -0.5630
16500TIP3    H170915   4.924   3.608   5.124  0.7126  1.1537  0.5209
16500TIP3    H270916   4.910   3.458   5.141  0.9759  0.9247 -1.1294
16501TIP3   OH270917   1.035   4.682  13.820 -0.3767 -0.4272 -0.0123
16501TIP3    H170918   1.106   4.621  13.801 -1.6275 -2.2777  0.9154
16501TIP3    H270919   0.984   4.686  13.740 -0.5738 -1.0274  0.0788
16502TIP3   OH270920   2.083   5.477   2.299  0.2123  0.3306  1.4612
16502TIP3    H170921   2.096   5.444   2.388 -0.8507 -5.7420 -0.1606
16502TIP3    H270922   1.989   5.468   2.285  0.4565  0.5408 -0.4693
16503TIP3   OH270923   2.235   5.770   3.117  0.2185  0.2521  0.0131
16503TIP3    H170924   2.326   5.740   3.112  0.2500  0.3838 -0.2435
16503TIP3    H270925   2.187   5.709   3.061  0.3726  1.0040 -0.9595
16504TIP3   OH270926   2.615   6.596   0.024 -0.2183 -0.3560  0.5307
16504TIP3    H170927   2.538   6.552   0.059 -0.3391 -0.7375 -0.1836
16504TIP3    H270928   2.611   6.684   0.061 -0.1921 -0.8074  1.6551
16505TIP3   OH270929   0.087   6.619   4.004  0.6868  0.2879  0.0773
16505TIP3    H170930   0.159   6.556   4.002  2.3162  1.9743 -3.1280
16505TIP3    H270931   0.127   6.699   4.039 -0.2456  0.6336  0.3749
16506TIP3   OH270932   3.163   4.674   1.625  0.3604 -0.3880 -0.1303
16506TIP3    H170933   3.118   4.757   1.614 -0.4121 -0.9958 -1.8984
16506TIP3    H270934   3.142   4.647   1.714 -1.0801  0.3378 -0.2238
16507TIP3   OH270935   6.639   2.383   1.028 -0.0271  0.2302 -0.6150
16507TIP3    H170936   6.644   2.405   1.121 -4.2045 -0.5149 -0.0141
16507TIP3    H270937   6.623   2.467   0.984  1.8633  0.5699 -0.7247
16508TIP3   OH270938   4.157   0.653   3.255  0.2271 -0.5732  0.1294
16508TIP3    H170939   4.179   0.598   3.180  1.4239  0.5915 -0.3904
16508TIP3    H270940   4.232   0.711   3.267 -1.4682  1.8346 -0.1251
16509TIP3   OH270941   4.650   5.240  16.543  0.1431 -0.2284 -0.2700
16509TIP3    H170942   4.689   5.325  16.520  0.1343 -0.3550 -0.7815
16509TIP3    H270943   4.707   5.176  16.501 -0.0118 -0.4625 -0.1224
16510TIP3   OH270944   0.661   5.813  10.650 -0.2084 -0.3855 -0.8656
16510TIP3    H170945   0.713   5.878  10.602 -0.9071  0.0683 -1.0153
16510TIP3    H270946   0.591   5.863  10.692 -0.5450 -0.9933 -0.6839
16511TIP3   OH270947   1.372   2.076  11.438 -0.5715 -0.1887 -0.4529
16511TIP3    H170948   1.384   2.078  11.343 -3.0212  0.8428 -0.8183
16511TIP3    H270949   1.440   2.134  11.472  0.3683 -0.6009 -1.5638
16512TIP3   OH270950   2.700   5.313  13.189  0.1396  0.7551 -0.2206
16512TIP3    H170951   2.626   5.374  13.185  0.7384  1.4900 -0.1597
16512TIP3    H270952   2.700   5.282  13.280 -1.2947 -0.7749 -0.7000
16513TIP3   OH270953   1.979   3.104  15.508 -0.0377  0.0419  1.0995
16513TIP3    H170954   1.995   3.127  15.600  1.5985 -0.8404  1.0752
16513TIP3    H270955   2.058   3.132  15.462  0.0820 -1.4390  0.3358
16514TIP3   OH270956   4.986   0.042  10.190 -0.4586 -0.0394  0.5178
16514TIP3    H170957   4.971  -0.008  10.270 -1.5833  0.5376  0.6967
16514TIP3    H270958   4.960   0.132  10.212  1.2583  0.5934  0.1231
16515TIP3   OH270959   2.987   5.834  16.677  0.5465 -0.0211 -0.2981
16515TIP3    H170960   3.014   5.766  16.616 -0.3380 -1.7116  1.1259
16515TIP3    H270961   2.933   5.893  16.625 -1.6691 -2.3725 -0.8356
16516TIP3   OH270962   2.753   2.758   5.211  0.1476  0.0998  0.2443
16516TIP3    H170963   2.779   2.834   5.263 -1.6064  0.8629  0.1015
16516TIP3    H270964   2.826   2.697   5.219  0.2837  0.4843  3.0187
16517TIP3   OH270965   4.638   5.352   1.848 -0.1686  0.0869 -0.6260
16517TIP3    H170966   4.658   5.443   1.872 -0.3874  0.1559 -0.7086
16517TIP3    H270967   4.658   5.302   1.927 -0.1825  0.2246 -0.5339
16518TIP3   OH270968   3.296   0.366   1.826 -0.2989  0.1140  0.4895
16518TIP3    H170969   3.260   0.449   1.859  1.4191  1.4269 -0.7693
16518TIP3    H270970   3.388   0.367   1.852  0.2523 -0.4098 -1.2713
16519TIP3   OH270971   0.271   2.164  11.013 -0.1105 -0.5766  0.0130
16519TIP3    H170972   0.222   2.242  10.986  1.0097 -0.2431 -1.1204
16519TIP3    H270973   0.234   2.093  10.961 -0.5328 -0.6625  0.4140
16520TIP3   OH270974   1.352   3.585   0.078  0.0499  0.1068  0.1523
16520TIP3    H170975   1.275   3.619   0.123 -1.1134  0.0294 -1.6826
16520TIP3    H270976   1.325   3.577  -0.014  1.8668 -1.0549 -0.3380
16521TIP3   OH270977   6.388   1.121   3.127 -0.3627  0.1465 -0.7268
16521TIP3    H170978   6.371   1.075   3.044 -2.3906 -2.7005  1.0879
16521TIP3    H270979   6.363   1.059   3.195  0.9274  2.4607  2.0962
16522TIP3   OH270980   4.841   0.549  13.570  0.4184  0.1245  0.1427
16522TIP3    H170981   4.860   0.520  13.480  2.4614 -1.1654  0.9201
16522TIP3    H270982   4.821   0.468  13.617  3.9514  0.0829  1.8439
16523TIP3   OH270983   6.078   5.304   0.845 -0.4832 -0.6367  0.2042
16523TIP3    H170984   6.159   5.341   0.879 -0.5183 -2.4549  2.5017
16523TIP3    H270985   6.009   5.363   0.876 -0.2190 -0.3699  0.2802
16524TIP3   OH270986   4.266   4.453  13.463 -0.1631 -0.6302 -0.0227
16524TIP3    H170987   4.280   4.497  13.547 -1.4224  0.9688 -0.5929
16524TIP3    H270988   4.186   4.492  13.429 -0.2210 -1.9647 -1.5283
16525TIP3   OH270989   5.428   3.783  11.883 -0.2305  0.6532 -0.1334
16525TIP3    H170990   5.356   3.771  11.944  0.2385 -0.5581  0.2033
16525TIP3    H270991   5.389   3.831  11.809 -1.2564  0.4180  0.2414
16526TIP3   OH270992   2.535   5.458  13.028 -0.2978 -0.8324  0.5371
16526TIP3    H170993   2.470   5.528  13.033 -0.3399 -0.6767 -1.4024
16526TIP3    H270994   2.583   5.476  12.947  1.9190 -1.1865  1.6835
16527TIP3   OH270995   3.802   4.881  10.211 -0.0819  0.1259  0.2308
16527TIP3    H170996   3.756   4.808  10.170  0.2850 -0.6003  1.0806
16527TIP3    H270997   3.791   4.954  10.150 -3.6631  0.4378  1.0402
16528TIP3   OH270998   6.624   5.408  16.314  0.4018 -0.7388  0.4114
16528TIP3    H170999   6.575   5.482  16.278 -0.1286 -1.1500  0.2850
16528TIP3    H271000   6.687   5.384  16.246  0.2583 -0.7043  0.2678
16529TIP3   OH271001   2.933   3.305  14.883  0.2187 -0.3939 -0.2732
16529TIP3    H171002   2.917   3.211  14.877 -0.7566 -0.2749  0.1990
16529TIP3    H271003   2.909   3.328  14.972  0.5928  0.2828 -0.3389
16530TIP3   OH271004   6.481   2.946  10.495 -0.0932  0.3098 -0.0820
16530TIP3    H171005   6.535   2.868  10.489 -1.7113 -0.9947  1.2595
16530TIP3    H271006   6.521   3.008  10.434  1.1888 -1.5891 -1.2783
16531TIP3   OH271007   3.758   1.921  14.823  0.0668 -0.1571 -0.1887
16531TIP3    H171008   3.663   1.934  14.825  0.3356  2.3216  0.8271
16531TIP3    H271009   3.793   2.009  14.808  2.2173 -0.8940  0.2068
16532TIP3   OH271010   0.456   1.462  16.235  0.1618  0.1435  0.5874
16532TIP3    H171011   0.453   1.504  16.149  1.9692  0.8546  0.8214
16532TIP3    H271012   0.393   1.390  16.230 -0.6288  0.9077 -0.9187
16533TIP3   OH271013   1.117   4.255   6.037 -0.3392 -0.2421 -0.1985
16533TIP3    H171014   1.191   4.198   6.013 -0.8201 -0.5628 -0.9427
16533TIP3    H271015   1.051   4.195   6.071  0.0370  0.1304  1.2433
16534TIP3   OH271016   3.769   5.290   9.934  0.0359 -0.3252  0.1525
16534TIP3    H171017   3.861   5.304   9.910 -0.0752 -1.0891 -0.8253
16534TIP3    H271018   3.739   5.375   9.966  1.2415 -0.2146  1.0675
16535TIP3   OH271019   5.024   3.981  14.970  0.1669 -0.4272  0.2389
16535TIP3    H171020   4.935   4.008  14.949  0.8046  0.4614 -1.5441
16535TIP3    H271021   5.068   3.976  14.885  2.0681  0.1283  1.1418
16536TIP3   OH271022   5.967   6.319   6.051  1.1086  0.3763 -0.3501
16536TIP3    H171023   6.032   6.275   5.995  0.1990 -0.6385 -0.6327
16536TIP3    H271024   5.909   6.363   5.990  1.7145  1.5898 -0.0828
16537TIP3   OH271025   5.241   5.170   1.308  0.8761 -0.7423 -0.5401
16537TIP3    H171026   5.313   5.233   1.303  0.5016 -0.3539 -1.0434
16537TIP3    H271027   5.205   5.182   1.396 -0.1007  0.7538 -1.1173
16538TIP3   OH271028   4.080   1.532   4.919 -0.3466  0.0235  0.0593
16538TIP3    H171029   4.087   1.596   4.848 -0.2778  1.7607  1.5570
16538TIP3    H271030   3.991   1.544   4.952 -0.2848 -0.5576  0.4407
16539TIP3   OH271031   1.115   3.071  13.027 -0.3880 -0.0885  0.0696
16539TIP3    H171032   1.120   3.158  12.987 -0.7116  0.9184  2.0913
16539TIP3    H271033   1.191   3.068  13.087 -0.6924 -0.9701  0.4287
16540TIP3   OH271034   5.950   5.398   3.174 -0.7951 -1.8355  0.3740
16540TIP3    H171035   5.919   5.437   3.092 -0.0713 -1.3377  0.3293
16540TIP3    H271036   5.995   5.318   3.147  2.2984 -0.0892 -0.1054
16541TIP3   OH271037   0.607   3.897   2.088 -0.3461 -0.4291 -0.5213
16541TIP3    H171038   0.600   3.896   1.993 -1.2454 -1.3130 -0.4550
16541TIP3    H271039   0.620   3.990   2.110 -2.9038  0.2043 -1.3279
16542TIP3   OH271040   5.858   6.871   1.433  0.6375  0.2330 -0.2846
16542TIP3    H171041   5.946   6.898   1.408  1.0651 -0.1293  0.7774
16542TIP3    H271042   5.808   6.952   1.435  1.0876  0.5146 -0.3354
16543TIP3   OH271043   1.567   0.096  15.184  0.0955  0.3439  0.5827
16543TIP3    H171044   1.479   0.077  15.219  0.3521  2.1236  2.4051
16543TIP3    H271045   1.573   0.191  15.186  1.4202  0.3551 -1.3373
16544TIP3   OH271046   4.934   4.585   0.511 -0.3096  0.4263 -0.0306
16544TIP3    H171047   4.869   4.523   0.546  0.2341 -0.9581 -1.3915
16544TIP3    H271048   5.004   4.585   0.577 -1.3245  1.4282  1.1216
16545TIP3   OH271049   3.975   4.954   3.094  0.4984  0.9782  0.4596
16545TIP3    H171050   3.989   4.879   3.036 -1.7895 -0.3470  1.4825
16545TIP3    H271051   3.940   5.022   3.037  1.1812  0.7877 -0.2159
16546TIP3   OH271052   4.691   1.662   3.860  0.1553  0.0622 -0.2433
16546TIP3    H171053   4.763   1.725   3.862 -0.2276  0.6257 -2.0914
16546TIP3    H271054   4.699   1.613   3.942  1.4713  1.3875  0.4663
16547TIP3   OH271055   3.460   6.606  14.335  0.3460  0.0842  0.6020
16547TIP3    H171056   3.488   6.519  14.309  1.0970 -0.1259  2.0004
16547TIP3    H271057   3.405   6.592  14.412 -0.5449  0.7687  0.1065
16548TIP3   OH271058   1.108   2.097   5.736  0.0437  0.1366  1.0998
16548TIP3    H171059   1.071   2.151   5.806  0.3081  0.7171  0.8040
16548TIP3    H271060   1.193   2.069   5.770  0.5179  1.0673  0.7194
16549TIP3   OH271061   1.503   6.281  13.726 -0.3205  0.3036  0.3352
16549TIP3    H171062   1.573   6.220  13.749 -1.0626 -0.8274 -0.2603
16549TIP3    H271063   1.547   6.365  13.711  0.4670  0.5795  3.5625
16550TIP3   OH271064   3.645   4.495   4.358 -0.3395  0.7495  0.0002
16550TIP3    H171065   3.549   4.499   4.356 -0.3737  1.0325  1.2701
16550TIP3    H271066   3.672   4.521   4.270 -1.4041  1.4936 -0.1239
16551TIP3   OH271067   3.433   4.214   0.766 -0.7906 -0.5851  0.4879
16551TIP3    H171068   3.400   4.125   0.772 -0.7162 -1.0934 -3.7242
16551TIP3    H271069   3.354   4.268   0.760 -0.8253 -0.5439  1.2276
16552TIP3   OH271070   4.142   5.180  14.657  0.2069  0.0790  0.0117
16552TIP3    H171071   4.107   5.101  14.614 -0.5452  1.1196 -1.3824
16552TIP3    H271072   4.237   5.170  14.652  0.1373 -1.2317  0.8410
16553TIP3   OH271073   0.414   5.699   1.342  0.0239 -0.2268 -0.0746
16553TIP3    H171074   0.465   5.679   1.263 -0.4426 -1.3293 -0.1237
16553TIP3    H271075   0.337   5.745   1.309 -0.8997 -1.9491 -0.4881
16554TIP3   OH271076   3.401   5.926  12.749 -0.8677 -0.8502 -0.0935
16554TIP3    H171077   3.442   5.866  12.687  1.8449 -0.5508  1.3047
16554TIP3    H271078   3.399   5.879  12.832 -0.0681  0.4093  0.6817
16555TIP3   OH271079   2.043   2.578  11.290  0.5676 -0.0609  0.6853
16555TIP3    H171080   2.034   2.667  11.324  0.1587  0.9818 -1.9033
16555TIP3    H271081   2.107   2.586  11.219  1.5468 -2.1329  1.2446
16556TIP3   OH271082   5.540   4.142   3.232 -0.1799 -0.1045 -0.8017
16556TIP3    H171083   5.605   4.213   3.229  0.6207 -0.7972 -0.2646
16556TIP3    H271084   5.585   4.066   3.196  0.1729 -1.2187  1.7395
16557TIP3   OH271085   4.920   6.513  13.577 -0.0393 -0.3536 -0.2432
16557TIP3    H171086   4.900   6.582  13.640 -0.7617 -0.9106  0.1348
16557TIP3    H271087   5.010   6.533  13.549 -0.1286  0.5698  0.0771
16558TIP3   OH271088   0.108   5.184  15.718  0.0718 -0.1497 -0.9627
16558TIP3    H171089   0.113   5.089  15.709 -0.2010 -0.3336  0.5713
16558TIP3    H271090   0.017   5.206  15.698 -0.4302 -0.5005  0.7968
16559TIP3   OH271091   3.398   4.743  13.563  0.2949  0.4559  0.3710
16559TIP3    H171092   3.341   4.676  13.525  1.8195 -0.1460 -0.9357
16559TIP3    H271093   3.376   4.823  13.514  0.6652  0.1843 -0.2572
16560TIP3   OH271094   2.440   6.448   0.155 -0.1246 -0.2557  0.0318
16560TIP3    H171095   2.360   6.403   0.184  0.9966 -1.3340  1.6090
16560TIP3    H271096   2.510   6.385   0.171  1.0887  0.7647 -1.0698
16561TIP3   OH271097   4.462   5.260  13.695  0.1027  0.2614  0.1956
16561TIP3    H171098   4.499   5.327  13.752 -0.1712  0.0950  0.5662
16561TIP3    H271099   4.536   5.202  13.675  0.1241  0.1321  0.6494
16562TIP3   OH271100   3.627   4.907  14.827  0.2125  0.3492 -0.5306
16562TIP3    H171101   3.707   4.856  14.813  0.3834  0.8221 -1.3047
16562TIP3    H271102   3.652   4.997  14.808 -0.2751  0.6268  0.1252
16563TIP3   OH271103   3.478   2.994  15.503 -0.2559 -0.2230 -0.0828
16563TIP3    H171104   3.569   2.971  15.487  0.0101 -0.9149  2.0873
16563TIP3    H271105   3.430   2.912  15.492 -0.7420  0.2551 -1.7978
16564TIP3   OH271106   2.394   5.658   6.007 -0.0916  0.3233  0.3842
16564TIP3    H171107   2.299   5.645   6.003  0.0186 -0.2714 -0.9233
16564TIP3    H271108   2.425   5.593   6.069 -0.2445 -1.5832 -1.4289
16565TIP3   OH271109   3.486   5.696  12.622 -0.3980 -0.2834  0.5104
16565TIP3    H171110   3.439   5.679  12.540  0.2138  0.2220  0.0369
16565TIP3    H271111   3.435   5.652  12.689 -1.3535 -0.0428 -0.0389
16566TIP3   OH271112   0.646   0.660   2.929 -0.3225  0.7999 -0.3923
16566TIP3    H171113   0.576   0.724   2.915 -0.8831  0.1536 -0.6157
16566TIP3    H271114   0.721   0.695   2.880 -0.6996  1.1587 -0.7253
16567TIP3   OH271115   1.418   5.852  15.689  0.1023  0.2821 -0.1660
16567TIP3    H171116   1.365   5.784  15.648  0.9508 -2.0549  2.2687
16567TIP3    H271117   1.376   5.867  15.774  1.9016  0.1406  0.7985
16568TIP3   OH271118   3.996   5.883   4.727  0.0320  0.1982 -0.2752
16568TIP3    H171119   4.088   5.866   4.708 -0.1416 -0.5954 -0.4033
16568TIP3    H271120   3.995   5.904   4.820  0.0733 -1.9001  0.2455
16569TIP3   OH271121   5.525   2.131  14.950 -0.3748 -0.2803  0.1937
16569TIP3    H171122   5.432   2.127  14.973 -1.4455 -0.5765 -3.5078
16569TIP3    H271123   5.547   2.224  14.956 -0.1663 -0.4227  3.1906
16570TIP3   OH271124   3.048   3.156   2.188 -0.3094  0.2804  0.2181
16570TIP3    H171125   3.141   3.146   2.211 -0.7358 -0.2692  1.8200
16570TIP3    H271126   3.011   3.069   2.201 -0.9482  0.3508 -1.0222
16571TIP3   OH271127   4.397   4.548   9.944 -0.6176 -0.4208 -0.3625
16571TIP3    H171128   4.306   4.552   9.914  0.1773 -0.5538 -3.1171
16571TIP3    H271129   4.426   4.639   9.945 -0.5194 -0.4506 -0.4227
16572TIP3   OH271130   0.122   1.382  10.850  0.1960  0.4106 -0.6928
16572TIP3    H171131   0.124   1.399  10.756 -2.3367 -0.8777 -1.0636
16572TIP3    H271132   0.077   1.298  10.859 -0.0009  0.6813  1.7008
16573TIP3   OH271133   1.251   3.412   5.660 -0.3320  0.4576 -0.1450
16573TIP3    H171134   1.225   3.464   5.736  1.0663  0.1421  0.5899
16573TIP3    H271135   1.244   3.472   5.586 -0.1538  1.2622  0.4773
16574TIP3   OH271136   0.169   1.530  12.075  0.0284 -0.2344 -0.0485
16574TIP3    H171137   0.240   1.542  12.012 -0.1385  0.5992 -0.1001
16574TIP3    H271138   0.111   1.466  12.035 -0.8133  1.2955 -1.4312
16575TIP3   OH271139   5.783   5.522   4.410  0.1093 -0.1151 -0.1874
16575TIP3    H171140   5.785   5.617   4.401 -0.9821 -0.2258 -2.1044
16575TIP3    H271141   5.825   5.489   4.330 -1.1398 -1.2447 -0.4160
16576TIP3   OH271142   3.912   0.461  11.705 -0.2093  0.0185  0.4021
16576TIP3    H171143   3.915   0.376  11.663 -0.8514  0.0594  0.2599
16576TIP3    H271144   3.922   0.524  11.634  0.7781  0.0592  0.5695
16577TIP3   OH271145   2.700   5.003   2.005  0.1425 -0.3659 -0.0210
16577TIP3    H171146   2.771   5.035   1.949 -0.7804  1.3614 -0.2820
16577TIP3    H271147   2.652   5.082   2.031  0.6056 -1.0497  3.3933
16578TIP3   OH271148   5.706   6.707  13.517  0.4939 -0.9502 -0.1594
16578TIP3    H171149   5.717   6.768  13.444 -2.5632 -0.0218 -0.0131
16578TIP3    H271150   5.677   6.626  13.477 -2.8162  0.0404 -0.0554
16579TIP3   OH271151   3.186   6.083   1.691  0.2770 -0.6382 -0.1374
16579TIP3    H171152   3.263   6.027   1.700  1.1857  0.3622 -1.2970
16579TIP3    H271153   3.185   6.107   1.599  0.7383  2.3226  0.5354
16580TIP3   OH271154   4.044   1.942  10.685 -0.2076 -0.0361  0.4108
16580TIP3    H171155   4.117   1.887  10.658  1.7871  2.6498 -0.1271
16580TIP3    H271156   3.967   1.900  10.647  1.1609 -2.3357 -0.0421
16581TIP3   OH271157   2.801   2.578  11.733  0.1424  0.1909  0.2487
16581TIP3    H171158   2.764   2.504  11.684 -0.3491  0.2587  0.5143
16581TIP3    H271159   2.725   2.629  11.760  0.5276  1.7284 -1.3673
16582TIP3   OH271160   5.856   5.844   5.737  0.1257  0.3728 -0.1501
16582TIP3    H171161   5.908   5.841   5.657  3.7873 -0.4551  2.0535
16582TIP3    H271162   5.820   5.756   5.745  0.7122  0.1127 -0.3172
16583TIP3   OH271163   1.022   3.848  16.619  0.3609 -1.1691 -0.3151
16583TIP3    H171164   1.084   3.918  16.642  0.4562 -1.7036  1.1367
16583TIP3    H271165   0.941   3.895  16.597  0.4688 -0.5828  0.4850
16584TIP3   OH271166   5.612   1.244  11.846  0.3942  0.7130  0.1895
16584TIP3    H171167   5.655   1.209  11.924 -0.0800  0.1601  0.2057
16584TIP3    H271168   5.539   1.185  11.829  1.6385 -0.3957 -1.8310
16585TIP3   OH271169   5.101   6.810   1.580  0.3542 -0.0171  0.5739
16585TIP3    H171170   5.193   6.798   1.603  1.0141 -1.0943 -2.1348
16585TIP3    H271171   5.069   6.721   1.566  0.1522  0.4272 -2.4682
16586TIP3   OH271172   6.036   6.484   3.968 -0.4830 -0.3577 -0.2945
16586TIP3    H171173   6.063   6.425   3.898 -1.5956 -1.2623  0.0005
16586TIP3    H271174   5.948   6.512   3.944 -0.4692  0.1658  0.2228
16587TIP3   OH271175   1.691   0.740  13.552  1.1118 -0.1292  0.4913
16587TIP3    H171176   1.733   0.806  13.496  1.2611  0.1180  0.8871
16587TIP3    H271177   1.697   0.777  13.641 -0.2072  0.0512  0.5205
16588TIP3   OH271178   6.385   0.798   3.833 -0.1396 -0.1252 -0.0959
16588TIP3    H171179   6.363   0.711   3.801 -1.3188 -0.4940  1.6145
16588TIP3    H271180   6.328   0.857   3.782  1.8975 -0.0809 -2.5313
16589TIP3   OH271181   2.635   6.817   5.994 -0.0254 -0.4046  0.7014
16589TIP3    H171182   2.641   6.776   5.908  2.1079 -1.7218  1.3947
16589TIP3    H271183   2.695   6.892   5.989 -1.7496  1.0037  0.3305
16590TIP3   OH271184   0.329   2.289   5.800  0.0469 -0.4060 -0.3347
16590TIP3    H171185   0.387   2.342   5.745  0.5487 -2.1539 -1.5503
16590TIP3    H271186   0.248   2.281   5.749 -0.3448 -0.1023  0.2293
16591TIP3   OH271187   2.949   3.888  16.105  0.0893  0.2234  0.1046
16591TIP3    H171188   2.965   3.797  16.129 -1.0701  0.0557  0.2753
16591TIP3    H271189   2.923   3.930  16.187 -1.4304  0.2250 -0.3640
16592TIP3   OH271190   4.519   3.410  12.198 -0.6971 -0.2568 -0.5335
16592TIP3    H171191   4.611   3.391  12.220 -0.8251 -0.4171 -0.1238
16592TIP3    H271192   4.522   3.493  12.151 -0.4250  0.1649  0.2149
16593TIP3   OH271193   1.410   0.363  12.544 -0.4420  0.1061  0.8051
16593TIP3    H171194   1.391   0.455  12.562  0.3317  0.5162 -0.3754
16593TIP3    H271195   1.325   0.320  12.544 -0.7951  0.7659  1.6011
16594TIP3   OH271196   2.669   6.866   0.101  0.0074 -0.1828 -0.0245
16594TIP3    H171197   2.728   6.911   0.041 -0.9238 -1.7585 -2.2173
16594TIP3    H271198   2.624   6.937   0.148  2.0698  1.0509  0.2060
16595TIP3   OH271199   4.601   6.288  12.804 -0.1691  0.7646  0.4829
16595TIP3    H171200   4.687   6.248  12.812 -0.3674 -0.0270 -0.9363
16595TIP3    H271201   4.616   6.370  12.758  0.1425  2.0406  2.7344
16596TIP3   OH271202   5.994   1.838   9.923  0.8765 -0.6064 -0.1349
16596TIP3    H171203   6.004   1.926   9.958 -1.3310  0.5999 -2.2130
16596TIP3    H271204   6.035   1.842   9.836  1.0822 -1.7456 -0.1080
16597TIP3   OH271205   1.788   4.583   0.931  0.3647 -0.4083 -0.1369
16597TIP3    H171206   1.845   4.659   0.945  2.4799 -2.1168  1.2465
16597TIP3    H271207   1.700   4.615   0.948  1.4537  1.0799  3.6265
16598TIP3   OH271208   1.691   2.631   2.087 -0.2121 -0.1246 -0.1531
16598TIP3    H171209   1.727   2.718   2.104 -1.3031  0.0315  1.6103
16598TIP3    H271210   1.740   2.600   2.011  2.0424  0.9522  0.7526
16599TIP3   OH271211   1.879   4.122  15.988  0.1987 -0.1533 -0.6976
16599TIP3    H171212   1.899   4.193  16.049 -0.0442  0.7328 -1.6154
16599TIP3    H271213   1.961   4.074  15.979  0.3987  0.0786 -0.1487
16600TIP3   OH271214   3.911   3.483  12.187 -0.1062  0.4258  0.0665
16600TIP3    H171215   3.868   3.462  12.104 -2.0079  0.5298  0.9507
16600TIP3    H271216   4.004   3.470  12.171 -0.5901 -1.6832 -1.4640
16601TIP3   OH271217   1.489   5.294  14.212  0.1375 -0.2791  0.0269
16601TIP3    H171218   1.534   5.378  14.212  1.2486 -0.8458 -1.1619
16601TIP3    H271219   1.470   5.277  14.305 -0.6564  1.5385  0.2263
16602TIP3   OH271220   4.241   0.690  12.390  0.6930  0.3945  0.3617
16602TIP3    H171221   4.153   0.719  12.367 -0.1537  1.8696  4.4933
16602TIP3    H271222   4.236   0.594  12.385 -0.4730  0.5107 -1.4330
16603TIP3   OH271223   6.876   0.244   0.754  0.0820 -0.0610 -0.8737
16603TIP3    H171224   6.878   0.340   0.758 -0.3630 -0.0635 -0.4060
16603TIP3    H271225   6.848   0.224   0.665 -2.6617  0.3125 -0.1717
16604TIP3   OH271226   6.462   1.420   3.384 -0.4888 -0.0040  0.0166
16604TIP3    H171227   6.388   1.422   3.324  0.2068  1.1611 -0.8388
16604TIP3    H271228   6.533   1.380   3.334 -0.2127 -0.0504  0.4400
16605TIP3   OH271229   3.267   3.674   0.214 -0.0934  0.2159  0.1916
16605TIP3    H171230   3.342   3.647   0.162 -0.6461 -0.4304 -0.2895
16605TIP3    H271231   3.289   3.648   0.303  0.3131  0.1609  0.0747
16606TIP3   OH271232   5.547   3.537   9.823 -0.0253  0.3572  0.1653
16606TIP3    H171233   5.640   3.513   9.833  0.2850  0.5996 -1.7332
16606TIP3    H271234   5.539   3.620   9.869  0.2846 -0.4603  1.7709
16607TIP3   OH271235   1.829   6.414   1.630  0.0606  0.5476 -0.3924
16607TIP3    H171236   1.759   6.348   1.636  0.5336  0.1544  1.1709
16607TIP3    H271237   1.823   6.464   1.711  0.6533  1.4852 -0.9092
16608TIP3   OH271238   3.676   4.563   6.424 -0.6462 -0.0416  0.4117
16608TIP3    H171239   3.606   4.521   6.374 -0.4702 -2.6910  2.1599
16608TIP3    H271240   3.651   4.549   6.516  0.2252  2.4964  1.1098
16609TIP3   OH271241   6.703   3.143  11.831 -0.2807  0.3195  0.0390
16609TIP3    H171242   6.614   3.177  11.820 -0.2155 -0.0172 -1.7656
16609TIP3    H271243   6.720   3.092  11.752  1.3937  0.0684  0.5137
16610TIP3   OH271244   3.086   6.640  11.909 -0.0988  0.5551 -0.1940
16610TIP3    H171245   3.152   6.682  11.855  1.2655 -0.7254  0.4142
16610TIP3    H271246   3.113   6.660  11.999 -1.1464  0.8989  0.0574
16611TIP3   OH271247   6.717   5.314  15.152  0.1759  0.0295  0.5459
16611TIP3    H171248   6.648   5.338  15.215  1.2124  2.2437  0.9300
16611TIP3    H271249   6.669   5.289  15.073 -1.1127 -1.0539  1.6261
16612TIP3   OH271250   6.881   1.304  14.358  0.4269  0.1195 -0.4394
16612TIP3    H171251   6.888   1.322  14.451  1.3253  0.6641 -0.5989
16612TIP3    H271252   6.787   1.307  14.340  0.2223 -0.2945  0.4962
16613TIP3   OH271253   3.762   2.681  14.504  0.2269 -0.9727 -0.0073
16613TIP3    H171254   3.777   2.744  14.433 -1.4190 -1.8265 -1.1837
16613TIP3    H271255   3.824   2.610  14.486  2.2552  0.3288  1.4577
16614TIP3   OH271256   1.590   6.521  13.085  0.0033 -0.5328  0.0100
16614TIP3    H171257   1.616   6.447  13.030 -0.0203 -0.8575  0.4414
16614TIP3    H271258   1.652   6.590  13.062 -0.1694 -0.5784 -0.6206
16615TIP3   OH271259   6.412   2.222   3.588  0.0603  0.3057  0.0881
16615TIP3    H171260   6.457   2.297   3.629  1.2277  0.4959 -1.4470
16615TIP3    H271261   6.470   2.148   3.606  0.0204  0.1869 -0.2783
16616TIP3   OH271262   5.897   3.537   4.026 -0.0735 -0.0416  0.3835
16616TIP3    H171263   5.858   3.564   4.110  2.8671  0.8801  1.5966
16616TIP3    H271264   5.892   3.616   3.971 -0.2268 -0.0339  0.4075
16617TIP3   OH271265   2.389   0.350  11.916 -0.1737  0.5608 -0.1626
16617TIP3    H171266   2.409   0.336  12.009 -1.2385 -0.7952 -0.1133
16617TIP3    H271267   2.320   0.416  11.916  0.5023  1.2775 -0.0504
16618TIP3   OH271268   1.532   6.881  14.139  0.0214 -0.1965 -0.3120
16618TIP3    H171269   1.619   6.897  14.102 -0.2286  2.0347 -0.1170
16618TIP3    H271270   1.498   6.969  14.157 -2.0270 -1.0382  0.1996
16619TIP3   OH271271   1.134   2.214  12.967  0.4361  0.3389 -0.3877
16619TIP3    H171272   1.047   2.226  13.006  1.2545  3.5043  0.7236
16619TIP3    H271273   1.130   2.126  12.928 -3.4933  0.6031 -1.0505
16620TIP3   OH271274   2.849   1.404   3.177  0.2566 -0.0635 -1.3871
16620TIP3    H171275   2.795   1.374   3.250  1.6895  0.6406  0.0260
16620TIP3    H271276   2.803   1.374   3.099 -3.1413  2.0284 -0.4040
16621TIP3   OH271277   5.234   0.342  15.014  0.2777  0.2304  0.1476
16621TIP3    H171278   5.236   0.279  15.086  1.1721 -0.9908 -0.8840
16621TIP3    H271279   5.306   0.402  15.031  1.6254 -1.1085 -0.5727
16622TIP3   OH271280   6.617   3.205  15.513  0.1577 -0.3962 -0.3169
16622TIP3    H171281   6.593   3.293  15.481 -0.8421 -0.5892 -0.1524
16622TIP3    H271282   6.614   3.150  15.435 -0.3273 -0.4870 -0.2416
16623TIP3   OH271283   1.370   5.391   5.594 -0.3139 -0.0601  0.3821
16623TIP3    H171284   1.401   5.314   5.545 -1.4397 -0.0159 -0.4438
16623TIP3    H271285   1.377   5.366   5.686  0.3498 -0.7415  0.1557
16624TIP3   OH271286   4.621   5.580   3.587  0.6241  0.6573  0.0246
16624TIP3    H171287   4.639   5.672   3.607  0.2244  0.8975 -0.6636
16624TIP3    H271288   4.546   5.558   3.642  2.2235 -0.0235  2.0744
16625TIP3   OH271289   4.018   1.706  12.266  0.2524 -0.3358 -0.3604
16625TIP3    H171290   4.052   1.703  12.177 -0.9012 -0.1443 -0.8296
16625TIP3    H271291   3.933   1.749  12.258  0.2472 -0.0657  0.8793
16626TIP3   OH271292   2.035   5.989  15.630  0.4662 -0.3685 -0.1951
16626TIP3    H171293   1.957   5.944  15.663 -0.3670  1.3515  0.3105
16626TIP3    H271294   2.044   5.960  15.540 -1.1429 -0.1582 -0.4548
16627TIP3   OH271295   4.984   4.055   0.703  0.2528  0.3193  0.3186
16627TIP3    H171296   5.049   4.068   0.633  1.6765  1.0989  1.7157
16627TIP3    H271297   5.012   3.974   0.746 -0.5646 -0.1064  0.0603
16628TIP3   OH271298   6.606   3.166  16.551  0.1846  0.2751 -0.5094
16628TIP3    H171299   6.676   3.170  16.485 -0.1345  0.7881 -0.8257
16628TIP3    H271300   6.535   3.119  16.507 -0.7160  2.1819 -1.2198
16629TIP3   OH271301   5.349   4.436  12.083  0.6567  0.0638  0.2627
16629TIP3    H171302   5.348   4.487  12.164  0.8980  0.7227 -0.1354
16629TIP3    H271303   5.441   4.419  12.067  0.6330  0.2287 -0.0509
16630TIP3   OH271304   0.282   3.762   3.646  0.1170  0.2462 -0.4188
16630TIP3    H171305   0.294   3.677   3.688 -1.2731  0.3409  0.2295
16630TIP3    H271306   0.276   3.743   3.553 -1.7722 -0.5908 -0.1753
16631TIP3   OH271307   5.209   5.904   3.859 -0.4143  0.3114  0.2895
16631TIP3    H171308   5.203   5.875   3.950  0.4469 -1.7793 -0.2645
16631TIP3    H271309   5.136   5.966   3.849 -3.5407 -2.8456  1.2178
16632TIP3   OH271310   0.857   6.868  15.592  0.1517 -0.2883  0.0898
16632TIP3    H171311   0.774   6.851  15.547 -0.7066  0.7311  1.2392
16632TIP3    H271312   0.890   6.781  15.615  0.2497 -0.8064 -1.7901
16633TIP3   OH271313   3.873   1.512   1.805  0.6339 -0.1990  0.2503
16633TIP3    H171314   3.807   1.552   1.862  1.1079 -1.8343  2.1064
16633TIP3    H271315   3.844   1.531   1.716 -0.1782  2.4660  1.0007
16634TIP3   OH271316   5.392   4.593   1.667 -0.4811 -0.2211 -0.2490
16634TIP3    H171317   5.459   4.531   1.638 -0.7371  0.0329 -1.4346
16634TIP3    H271318   5.433   4.679   1.656 -0.0812 -0.1432  1.5104
16635TIP3   OH271319   2.853   5.026  10.810 -0.3399  0.4614  0.2565
16635TIP3    H171320   2.909   5.093  10.847  0.1439  0.2141 -0.0168
16635TIP3    H271321   2.809   4.986  10.885  0.8160 -0.2035  0.5930
16636TIP3   OH271322   0.062   5.566  12.656 -0.3499  0.2812  0.3654
16636TIP3    H171323   0.061   5.487  12.602 -1.9709  0.6772 -0.2512
16636TIP3    H271324   0.124   5.547  12.726  1.0147 -0.6531 -1.0496
16637TIP3   OH271325   3.931   6.068   1.556 -0.2550  0.6930 -0.3376
16637TIP3    H171326   3.870   6.101   1.490 -1.9803 -1.8770 -0.1913
16637TIP3    H271327   3.905   5.977   1.568  2.5250 -0.0034  1.0963
16638TIP3   OH271328   4.131   0.321   0.021 -0.4722  0.0221  0.3738
16638TIP3    H171329   4.152   0.298   0.111 -2.8697 -1.9544  0.4942
16638TIP3    H271330   4.087   0.406   0.028 -2.2942 -0.9580  1.3149
16639TIP3   OH271331   0.091   4.751   9.821  0.0032 -0.3235 -0.4107
16639TIP3    H171332   0.061   4.840   9.840  0.6581 -0.1161 -0.3140
16639TIP3    H271333   0.040   4.695   9.880  0.7595  0.1484  0.7124
16640TIP3   OH271334   3.258   5.947  10.414  0.6283  0.8378 -0.4824
16640TIP3    H171335   3.257   6.040  10.436  0.9877  0.8237 -0.3995
16640TIP3    H271336   3.279   5.944  10.321  2.9047  0.7747 -0.0207
16641TIP3   OH271337   4.907   2.722   1.681  0.4707  0.2015 -0.0753
16641TIP3    H171338   4.933   2.638   1.643 -0.0847 -1.2482  2.5081
16641TIP3    H271339   4.832   2.700   1.736  1.5122  2.0117  2.2203
16642TIP3   OH271340   0.205   3.995   1.461  0.1356 -0.3146  0.2931
16642TIP3    H171341   0.131   3.943   1.430  0.4031 -1.2440  1.1958
16642TIP3    H271342   0.167   4.055   1.526 -0.2938  1.1376 -1.2209
16643TIP3   OH271343   4.031   5.635  11.760 -0.0908 -0.2126 -0.4727
16643TIP3    H171344   4.026   5.599  11.849  0.4872  0.8587  0.0175
16643TIP3    H271345   4.122   5.624  11.735 -0.3437 -0.9042 -1.1208
16644TIP3   OH271346   1.069   1.203  15.528  0.6138 -0.0695  0.3849
16644TIP3    H171347   1.019   1.283  15.515  0.3594 -0.4714 -1.4179
16644TIP3    H271348   1.157   1.224  15.495  0.9638 -0.1069  1.2666
16645TIP3   OH271349   5.713   2.559   5.298 -0.0671  0.3049  0.5173
16645TIP3    H171350   5.649   2.530   5.234 -0.3859 -0.3408  1.1205
16645TIP3    H271351   5.731   2.650   5.274  2.7744 -0.8887 -2.9709
16646TIP3   OH271352   4.651   5.884  12.399 -0.2562 -0.7582 -0.2742
16646TIP3    H171353   4.682   5.964  12.441 -2.0530 -0.1460 -0.0433
16646TIP3    H271354   4.578   5.855  12.453 -1.0460 -1.3119 -1.5989
16647TIP3   OH271355   0.655   4.258  11.239  0.2466  0.4433 -0.1083
16647TIP3    H171356   0.596   4.264  11.164 -1.0976 -0.9549  0.7717
16647TIP3    H271357   0.707   4.179  11.222 -0.8377 -0.5317  0.8937
16648TIP3   OH271358   6.602   4.845   4.372 -0.7914 -0.4122 -0.2896
16648TIP3    H171359   6.580   4.932   4.339 -1.4042  0.3165  1.8944
16648TIP3    H271360   6.560   4.785   4.311 -1.6577  0.8405 -0.9660
16649TIP3   OH271361   1.932   0.341   0.668  0.1998 -0.2055  0.1144
16649TIP3    H171362   1.899   0.257   0.701 -1.2033 -0.1831 -1.1388
16649TIP3    H271363   1.941   0.328   0.574  2.2834  0.3285  0.1949
16650TIP3   OH271364   3.763   0.785  14.807  0.2676 -0.7689  0.2471
16650TIP3    H171365   3.718   0.730  14.742 -1.5842  0.0527  0.7658
16650TIP3    H271366   3.767   0.872  14.766  0.1136 -0.5083  0.7846
16651TIP3   OH271367   5.621   0.700   4.632 -0.5663  0.0809  0.7140
16651TIP3    H171368   5.632   0.733   4.721 -1.2398  2.7993 -0.1189
16651TIP3    H271369   5.528   0.712   4.613 -0.1959  0.7413 -0.7759
16652TIP3   OH271370   0.921   3.149   1.939 -0.8752  0.1024  0.3136
16652TIP3    H171371   0.955   3.061   1.956 -2.5698 -0.7227 -0.2817
16652TIP3    H271372   0.827   3.142   1.956 -1.1423  1.6637 -0.3014
16653TIP3   OH271373   3.572   1.129  15.115 -0.4362 -0.0680  0.4337
16653TIP3    H171374   3.615   1.195  15.059  2.2523 -2.3460 -0.4024
16653TIP3    H271375   3.596   1.154  15.204  1.9683 -0.7084  0.0362
16654TIP3   OH271376   3.340   1.955   3.958 -0.2954 -0.5551  0.5173
16654TIP3    H171377   3.270   2.020   3.967  0.0696 -0.1445  0.3940
16654TIP3    H271378   3.372   1.967   3.868 -0.6044 -1.2870  0.3052
16655TIP3   OH271379   0.966   0.967   4.087  0.3787  0.0098  0.0443
16655TIP3    H171380   0.970   1.026   4.163 -2.1425  0.4609 -0.0860
16655TIP3    H271381   0.994   1.022   4.014 -0.4043  0.5869  0.1639
16656TIP3   OH271382   0.592   4.197  12.648 -0.1956 -0.4735  0.4805
16656TIP3    H171383   0.644   4.274  12.627 -2.1868  1.2922  1.6294
16656TIP3    H271384   0.655   4.131  12.674  1.4812  1.4970  1.6616
16657TIP3   OH271385   5.689   3.926  13.383  0.2066 -0.4482 -0.1566
16657TIP3    H171386   5.631   3.854  13.407  0.1127 -0.2599  0.1806
16657TIP3    H271387   5.658   4.001  13.435  1.2789 -0.5630  0.6603
16658TIP3   OH271388   3.676   6.071   0.820  0.0929 -0.2803  0.3831
16658TIP3    H171389   3.693   6.121   0.899 -1.1330  0.6921  0.0609
16658TIP3    H271390   3.712   6.124   0.749 -0.7388 -0.0930  0.0910
16659TIP3   OH271391   4.318   6.797  12.118 -0.4174  0.7223 -0.0016
16659TIP3    H171392   4.283   6.713  12.146 -1.1805  0.3771 -1.9043
16659TIP3    H271393   4.412   6.790  12.133 -0.6561  0.2068  1.4579
16660TIP3   OH271394   6.388   5.870   4.514  0.0178 -0.1000  0.1421
16660TIP3    H171395   6.340   5.863   4.431  0.7324  2.4589 -0.5793
16660TIP3    H271396   6.328   5.915   4.573  0.4868  0.5541  0.1275
16661TIP3   OH271397   5.715   4.211   4.542  0.3044  0.2223 -0.0725
16661TIP3    H171398   5.798   4.180   4.578  0.3078 -1.1051 -1.1417
16661TIP3    H271399   5.731   4.302   4.519  1.0569  0.3645  0.9256
16662TIP3   OH271400   1.813   6.380  16.711  0.0420  0.3594 -0.4284
16662TIP3    H171401   1.901   6.366  16.746 -0.4814 -0.8201  0.4792
16662TIP3    H271402   1.768   6.429  16.779 -0.6916 -1.0987  0.1750
16663TIP3   OH271403   6.354   3.981   4.206  0.5100 -0.2662  0.2533
16663TIP3    H171404   6.375   3.907   4.262  0.4546 -0.4862 -0.0129
16663TIP3    H271405   6.391   4.057   4.251  2.1262 -0.6710 -0.3376
16664TIP3   OH271406   1.105   3.550   4.015 -0.3668  0.2179 -0.7269
16664TIP3    H171407   1.166   3.477   4.004  0.7698  0.8979  0.6855
16664TIP3    H271408   1.026   3.523   3.968  1.0867 -0.5807 -2.8462
16665TIP3   OH271409   0.867   5.356   1.647  0.5579  0.5673 -0.4575
16665TIP3    H171410   0.783   5.353   1.602 -0.4370  2.4345  1.1153
16665TIP3    H271411   0.844   5.358   1.740  2.4891 -2.2218  0.1791
16666TIP3   OH271412   3.072   4.962   1.290 -0.5562 -0.2008  0.6704
16666TIP3    H171413   3.094   5.051   1.263 -0.4004 -0.4162  0.0865
16666TIP3    H271414   3.114   4.905   1.225 -0.4100 -0.7115  1.1988
16667TIP3   OH271415   0.054   5.643  13.493 -0.5646  0.1025 -0.1831
16667TIP3    H171416   0.095   5.569  13.539 -0.9773 -0.6652 -1.0167
16667TIP3    H271417   0.026   5.606  13.409 -1.0886  1.1317 -0.4746
16668TIP3   OH271418   3.919   5.431  16.635 -0.3037 -0.0247 -0.3145
16668TIP3    H171419   3.919   5.342  16.669 -1.8791 -0.1584 -0.5813
16668TIP3    H271420   3.990   5.433  16.571 -0.9056 -1.4097 -1.0662
16669TIP3   OH271421   2.275   4.575  14.447 -0.6714  0.4585 -0.5789
16669TIP3    H171422   2.284   4.573  14.543  1.1149  2.8507 -0.5939
16669TIP3    H271423   2.296   4.487  14.419 -0.9882 -0.2384  1.2121
16670TIP3   OH271424   4.215   3.969   0.151  0.4007 -0.0305 -0.4978
16670TIP3    H171425   4.238   3.884   0.190  2.3628 -0.0174 -1.5118
16670TIP3    H271426   4.196   3.949   0.060 -0.2604  0.4813 -0.4749
16671TIP3   OH271427   1.812   2.167  15.742 -0.3046 -0.2808  0.1706
16671TIP3    H171428   1.729   2.122  15.727 -2.6072  3.6211 -0.3323
16671TIP3    H271429   1.845   2.188  15.654  0.9586 -1.2349  0.3820
16672TIP3   OH271430   2.011   3.642   4.165  0.0783  0.1128  0.2327
16672TIP3    H171431   2.064   3.588   4.106 -0.5361 -0.0269 -0.1983
16672TIP3    H271432   2.020   3.600   4.250 -0.1844 -0.5231 -0.0482
16673TIP3   OH271433   0.067   2.091  14.841 -0.1172  0.2513  0.0299
16673TIP3    H171434   0.050   2.069  14.750 -0.7340 -0.1489  0.2357
16673TIP3    H271435   0.003   2.159  14.862  1.0525  1.4925 -0.2784
16674TIP3   OH271436   2.841   6.130  13.138  0.2121  0.4717 -0.4741
16674TIP3    H171437   2.753   6.160  13.116 -0.4951 -0.6037  0.7363
16674TIP3    H271438   2.880   6.107  13.054 -0.3107  1.8241 -1.1133
16675TIP3   OH271439   4.751   1.652  10.568 -0.6520 -0.3939 -0.0056
16675TIP3    H171440   4.659   1.637  10.593 -1.5842  0.3047 -2.6681
16675TIP3    H271441   4.767   1.743  10.593 -0.3144 -0.8011  1.3570
16676TIP3   OH271442   2.427   3.435  15.009 -0.0851 -0.5385 -0.6854
16676TIP3    H171443   2.400   3.522  14.981  0.1777 -1.0190 -2.5416
16676TIP3    H271444   2.438   3.443  15.104 -0.0301  1.4351 -0.8154
16677TIP3   OH271445   6.133   2.801  11.692  0.2444  0.2130  0.6154
16677TIP3    H171446   6.149   2.707  11.703  1.7577  0.5162  1.3444
16677TIP3    H271447   6.113   2.833  11.780 -0.0294  0.6062  0.4140
16678TIP3   OH271448   3.604   0.026  15.146 -0.2541  0.5055  0.5863
16678TIP3    H171449   3.527   0.080  15.126 -1.9367 -1.4748  1.2291
16678TIP3    H271450   3.613  -0.032  15.071  0.4473  0.5368  0.6389
16679TIP3   OH271451   2.759   5.871   4.287 -0.0673 -1.0263 -0.4698
16679TIP3    H171452   2.804   5.955   4.292 -4.0470  1.3778 -0.6194
16679TIP3    H271453   2.776   5.840   4.198  1.4806 -0.4659 -0.4095
16680TIP3   OH271454   3.931   4.741   0.758  0.3314 -0.3014  0.3447
16680TIP3    H171455   3.980   4.767   0.679  1.8619 -0.3736  1.2342
16680TIP3    H271456   3.997   4.739   0.827 -1.0134 -0.1145  1.6703
16681TIP3   OH271457   4.707   2.975  12.855  0.1360  0.2164 -0.5947
16681TIP3    H171458   4.682   2.975  12.763 -1.1299 -0.5791 -0.2767
16681TIP3    H271459   4.640   3.028  12.899  0.6168  0.4299 -0.0976
16682TIP3   OH271460   2.038   1.447  16.552 -0.4299 -0.4199  0.3127
16682TIP3    H171461   2.080   1.533  16.553 -1.2921  0.0782 -1.7365
16682TIP3    H271462   2.040   1.418  16.643  0.7415  1.3349  0.8860
16683TIP3   OH271463   3.707   5.049  10.011  0.3617  0.1457  0.0494
16683TIP3    H171464   3.737   5.138   9.992  1.0765 -0.1773 -0.3499
16683TIP3    H271465   3.613   5.052   9.994  0.2545  0.9990  0.7037
16684TIP3   OH271466   5.621   6.156  13.487  0.3531 -0.1899  0.2301
16684TIP3    H171467   5.696   6.201  13.525  0.2800  1.2894 -1.2467
16684TIP3    H271468   5.545   6.204  13.521  0.1063 -0.9722  0.8245
16685TIP3   OH271469   5.141   2.685   5.459  0.4975 -0.1316 -0.1255
16685TIP3    H171470   5.153   2.732   5.377 -0.4539 -1.7471 -1.2304
16685TIP3    H271471   5.202   2.612   5.455 -1.3671 -1.7507 -0.6425
16686TIP3   OH271472   2.542   0.631  10.916 -0.0220 -0.0589 -0.5472
16686TIP3    H171473   2.555   0.708  10.861 -0.9079  1.8035  1.6410
16686TIP3    H271474   2.624   0.620  10.963 -0.6517  1.1703  0.9367
16687TIP3   OH271475   5.300   4.771  14.672 -0.0058 -0.3753  0.0171
16687TIP3    H171476   5.312   4.701  14.608 -0.8097 -0.7504  0.2619
16687TIP3    H271477   5.353   4.843  14.639  1.4797 -1.3471  0.1775
16688TIP3   OH271478   3.853   0.645   5.486  0.1303 -0.3315  0.4174
16688TIP3    H171479   3.862   0.714   5.552  0.8393 -1.4267  1.5208
16688TIP3    H271480   3.935   0.595   5.492 -1.1325 -2.4606  1.0714
16689TIP3   OH271481   4.475   3.050   3.554  0.5687 -0.3912  0.1187
16689TIP3    H171482   4.399   3.061   3.497  0.2514 -3.3752 -0.1587
16689TIP3    H271483   4.531   2.988   3.507  0.8997 -1.9518  2.4315
16690TIP3   OH271484   5.540   1.998  12.257  0.0673  0.0208  0.0024
16690TIP3    H171485   5.577   1.951  12.183 -0.2248  0.6622 -0.5632
16690TIP3    H271486   5.445   1.988  12.247  0.0265  0.1161  0.2838
16691TIP3   OH271487   6.038   3.357  14.059 -0.0480 -0.3940 -0.0452
16691TIP3    H171488   6.123   3.399  14.050 -0.2023  0.0976  0.6975
16691TIP3    H271489   6.052   3.267  14.031  0.4317 -0.0117 -1.0928
16692TIP3   OH271490   6.847   6.120  16.379  0.0299  0.6041 -0.0063
16692TIP3    H171491   6.927   6.089  16.422 -1.0258 -1.1795  0.7962
16692TIP3    H271492   6.831   6.206  16.418  1.7790  1.1900 -0.5243
16693TIP3   OH271493   3.620   5.149  11.472  0.0347  0.1454 -0.6195
16693TIP3    H171494   3.670   5.068  11.460  0.4559  0.7197 -3.4488
16693TIP3    H271495   3.671   5.199  11.536 -1.2711 -2.5087  2.7644
16694TIP3   OH271496   5.310   4.639  12.671  0.1415  0.8412 -0.1923
16694TIP3    H171497   5.324   4.607  12.760  1.4084  0.3589 -0.5400
16694TIP3    H271498   5.252   4.575  12.631 -0.7879  1.2871  0.3918
16695TIP3   OH271499   0.268   5.041  16.150  0.0941 -0.5950 -0.2448
16695TIP3    H171500   0.243   4.961  16.103  0.4378 -0.9370  0.1424
16695TIP3    H271501   0.265   5.110  16.084  0.5458 -1.0657 -0.7660
16696TIP3   OH271502   5.343   1.625  11.667 -0.1402 -0.0081 -0.2813
16696TIP3    H171503   5.269   1.614  11.726  0.9735 -0.6040  1.0504
16696TIP3    H271504   5.366   1.717  11.674 -1.5300  0.5142 -1.7307
16697TIP3   OH271505   1.226   5.328  11.730  0.3537  0.4450 -0.4617
16697TIP3    H171506   1.286   5.300  11.799  1.6261  1.2219 -1.2142
16697TIP3    H271507   1.275   5.313  11.649 -0.2063  1.7105 -1.0584
16698TIP3   OH271508   1.540   5.550   1.125  0.0316  0.3195 -0.9481
16698TIP3    H171509   1.529   5.645   1.127 -0.0487  0.3257 -1.6530
16698TIP3    H271510   1.632   5.537   1.103 -0.0034  0.2326 -1.0423
16699TIP3   OH271511   3.348   3.981   1.798 -0.3723 -0.2215 -0.2516
16699TIP3    H171512   3.294   3.978   1.878  3.1774 -0.2734  2.3633
16699TIP3    H271513   3.381   4.071   1.794 -1.0227 -0.0218 -2.1454
16700TIP3   OH271514   4.592   4.385   5.296 -0.0816 -0.3781  0.6387
16700TIP3    H171515   4.500   4.409   5.313 -0.2381 -0.3533 -0.1818
16700TIP3    H271516   4.587   4.315   5.231  0.4653 -0.9063  1.1538
16701TIP3   OH271517   4.175   6.117   1.266 -0.2882  0.6208 -0.3753
16701TIP3    H171518   4.223   6.066   1.330  0.3860  0.3740 -1.0627
16701TIP3    H271519   4.187   6.208   1.293 -1.4618  0.4439  0.8337
16702TIP3   OH271520   1.233   1.403  13.889  0.3922  0.4944 -0.2636
16702TIP3    H171521   1.282   1.338  13.939  1.5595  1.0369 -0.6620
16702TIP3    H271522   1.237   1.371  13.799 -0.0896  0.4970 -0.2912
16703TIP3   OH271523   2.519   4.031  12.245 -0.1763 -0.2243  0.7760
16703TIP3    H171524   2.442   4.002  12.197  0.3407  1.3119 -1.0849
16703TIP3    H271525   2.524   4.125  12.229  0.8133  0.1226  2.7537
16704TIP3   OH271526   0.483   4.149  15.651  0.5689  0.3481  0.0281
16704TIP3    H171527   0.526   4.186  15.728 -1.1499  1.5648  0.4766
16704TIP3    H271528   0.398   4.194  15.647 -0.1854 -1.0838 -1.4644
16705TIP3   OH271529   4.353   0.170  15.593 -0.4023 -0.1340  0.4470
16705TIP3    H171530   4.279   0.228  15.579 -1.0463 -1.1628 -0.6896
16705TIP3    H271531   4.365   0.167  15.688 -0.3383  1.8148  0.5316
16706TIP3   OH271532   4.917   5.772   0.573 -0.6337 -0.1433 -0.0800
16706TIP3    H171533   4.872   5.691   0.600 -1.7884  0.8789  1.2138
16706TIP3    H271534   4.998   5.741   0.531 -0.8279 -1.9695  0.7560
16707TIP3   OH271535   2.625   5.674   0.705 -0.5483  0.1856 -0.0345
16707TIP3    H171536   2.613   5.711   0.792  1.5759  1.1689 -0.0919
16707TIP3    H271537   2.615   5.748   0.645 -0.9937 -0.2877 -0.5588
16708TIP3   OH271538   2.448   0.579   0.524 -0.0976  0.4325  0.3199
16708TIP3    H171539   2.384   0.604   0.457 -0.2965  0.2165  0.4293
16708TIP3    H271540   2.408   0.605   0.606 -0.0538  0.2758  0.3911
16709TIP3   OH271541   6.826   2.032   2.332 -0.2989  0.6129  0.1288
16709TIP3    H171542   6.896   2.094   2.313 -0.0660 -0.2078 -2.0572
16709TIP3    H271543   6.756   2.085   2.370  0.5554  1.8859 -0.0276
16710TIP3   OH271544   3.646   2.611   1.568 -0.6984 -0.2698  0.0592
16710TIP3    H171545   3.695   2.535   1.600 -1.8977 -1.3261 -0.5249
16710TIP3    H271546   3.648   2.673   1.640  2.8205  0.4408 -0.4666
16711TIP3   OH271547   5.094   2.561  15.540  0.0335  0.4003 -0.8017
16711TIP3    H171548   5.062   2.472  15.530 -1.2691  1.0079 -2.5167
16711TIP3    H271549   5.154   2.574  15.467 -0.5733  1.2366 -1.1729
16712TIP3   OH271550   4.971   1.511  10.111  0.0127  0.2572  0.2542
16712TIP3    H171551   5.022   1.520  10.192 -0.2691 -0.5901  0.5394
16712TIP3    H271552   4.958   1.416  10.102 -0.6621  0.4016 -0.3459
16713TIP3   OH271553   6.177   3.263   2.466 -0.4566  0.1323 -0.1262
16713TIP3    H171554   6.232   3.200   2.512 -0.2752  0.1197 -0.3566
16713TIP3    H271555   6.236   3.334   2.442 -0.6341  0.3299  0.0163
16714TIP3   OH271556   2.357   1.262   4.056  0.3230  0.1394 -0.2614
16714TIP3    H171557   2.350   1.167   4.043  0.9313  0.1311 -0.5611
16714TIP3    H271558   2.309   1.278   4.137  0.0797 -0.4041 -0.2915
16715TIP3   OH271559   4.645   1.475   2.888  0.2830 -0.8727 -0.3419
16715TIP3    H171560   4.718   1.419   2.916  0.2019 -1.6614 -1.6302
16715TIP3    H271561   4.566   1.429   2.917  0.2584 -0.4608  0.2677
16716TIP3   OH271562   5.525   3.483   5.335 -0.1461 -0.5014  0.8897
16716TIP3    H171563   5.576   3.497   5.415 -0.1435 -0.0513  0.8094
16716TIP3    H271564   5.590   3.483   5.265 -0.1983 -0.4584  0.8417
16717TIP3   OH271565   6.435   4.557   3.928 -0.2807  0.0332 -0.3201
16717TIP3    H171566   6.340   4.545   3.932 -0.3340  0.1890 -1.0894
16717TIP3    H271567   6.470   4.469   3.917 -0.2145 -0.2444  1.7231
16718TIP3   OH271568   3.418   2.280  15.420 -0.1558  0.2724  0.2155
16718TIP3    H171569   3.456   2.327  15.346 -1.5612  1.8603  0.4431
16718TIP3    H271570   3.466   2.314  15.496  0.1054 -0.0670  0.2038
16719TIP3   OH271571   0.353   0.028  10.952 -0.7755 -0.0793  0.0594
16719TIP3    H171572   0.280  -0.010  11.002 -0.9481 -0.1018 -0.2106
16719TIP3    H271573   0.383  -0.044  10.896 -0.3535 -0.1608  0.3796
16720TIP3   OH271574   4.416   4.223  13.911 -0.0220  0.4410 -0.1697
16720TIP3    H171575   4.457   4.309  13.919 -0.1012  0.3129  2.3353
16720TIP3    H271576   4.412   4.207  13.816  2.4135  2.0132 -0.6275
16721TIP3   OH271577   0.330   2.184  13.181  0.2154  0.5533  0.1920
16721TIP3    H171578   0.362   2.106  13.136  0.6301  1.4339 -1.1233
16721TIP3    H271579   0.282   2.233  13.113  0.4799  1.7243  0.8169
16722TIP3   OH271580   5.732   1.390  13.835 -0.3314 -0.2299 -0.4756
16722TIP3    H171581   5.672   1.364  13.766 -0.6860  2.6146 -1.3694
16722TIP3    H271582   5.680   1.383  13.916 -0.9895 -0.4051 -0.9088
16723TIP3   OH271583   6.001   3.942  15.416  0.2303  0.4080 -0.1870
16723TIP3    H171584   5.926   3.964  15.361 -0.7638  0.7260  1.2304
16723TIP3    H271585   5.965   3.885  15.484  1.2765  0.5443  0.5088
16724TIP3   OH271586   0.914   0.851   3.401  0.3994 -0.2602  0.3210
16724TIP3    H171587   0.831   0.873   3.359 -0.1263 -0.1631  1.3815
16724TIP3    H271588   0.947   0.776   3.352 -1.5431 -1.9143  1.3840
16725TIP3   OH271589   6.549   6.103   3.746 -0.2878 -0.4768  0.9607
16725TIP3    H171590   6.546   6.184   3.796  0.4903  0.2881 -0.1682
16725TIP3    H271591   6.472   6.107   3.690  0.5165  0.2450 -0.1557
16726TIP3   OH271592   0.721   4.107  14.833 -0.4090 -0.2324 -0.1375
16726TIP3    H171593   0.693   4.182  14.884 -1.1891 -0.2429 -0.5336
16726TIP3    H271594   0.691   4.031  14.884  0.0325 -0.2657  0.0710
16727TIP3   OH271595   2.306   0.277  12.795 -0.2880 -0.0014  0.2041
16727TIP3    H171596   2.307   0.362  12.751 -0.4305  0.7605  1.6202
16727TIP3    H271597   2.395   0.244  12.786 -0.2167  0.3170 -0.3005
16728TIP3   OH271598   5.240   0.546   1.893  0.0216  0.2355 -0.1902
16728TIP3    H171599   5.275   0.622   1.940  0.2894 -0.8460  1.4171
16728TIP3    H271600   5.185   0.501   1.956 -1.6548  0.0752 -1.6914
16729TIP3   OH271601   3.030   2.350  10.929  0.4615 -0.1449  0.4258
16729TIP3    H171602   3.107   2.374  10.979  0.5685  2.0815 -0.7040
16729TIP3    H271603   3.018   2.421  10.866 -2.2018 -0.6608  0.2056
16730TIP3   OH271604   2.854   4.021  14.275  0.2839 -0.4737  0.2651
16730TIP3    H171605   2.922   4.077  14.312  0.2105 -1.3117  1.7868
16730TIP3    H271606   2.798   4.000  14.350 -0.3699 -1.5897 -0.5093
16731TIP3   OH271607   1.298   3.816   5.028  0.0274  0.6307  0.2228
16731TIP3    H171608   1.214   3.770   5.035  0.3223 -0.7372 -3.2316
16731TIP3    H271609   1.362   3.756   5.066 -0.0015 -0.4816 -1.4242
16732TIP3   OH271610   2.227   5.443   3.515  0.1395  0.4432  0.5086
16732TIP3    H171611   2.252   5.534   3.524 -0.0529  0.7147 -1.2169
16732TIP3    H271612   2.269   5.415   3.433 -1.3164 -0.4547  0.0297
16733TIP3   OH271613   3.830   6.711  14.478  0.7601  0.2149 -0.0679
16733TIP3    H171614   3.843   6.770  14.404 -0.9132 -0.5526 -1.0188
16733TIP3    H271615   3.907   6.654  14.477  1.1526  0.7347 -0.6842
16734TIP3   OH271616   4.876   0.114   4.881 -0.0039  0.6358 -0.3989
16734TIP3    H171617   4.834   0.099   4.966 -0.4880  0.2235 -0.7081
16734TIP3    H271618   4.867   0.208   4.867  1.7716  1.0549  0.8807
16735TIP3   OH271619   1.071   2.907   0.221 -0.3590 -0.2687  0.2263
16735TIP3    H171620   1.102   2.873   0.304  1.8946  1.2361  0.1048
16735TIP3    H271621   1.109   2.849   0.155  0.5114  0.3551  0.1598
16736TIP3   OH271622   0.577   0.652  11.883 -0.5004 -0.1716 -0.2936
16736TIP3    H171623   0.505   0.694  11.835 -2.4420 -2.9063  0.0335
16736TIP3    H271624   0.639   0.627  11.814  0.1378  2.0625 -0.6000
16737TIP3   OH271625   4.223   6.729  15.705 -0.1313 -0.0691 -0.5963
16737TIP3    H171626   4.130   6.731  15.725  0.2423 -2.4916  1.8466
16737TIP3    H271627   4.229   6.762  15.615 -3.4893 -1.3645 -1.4103
16738TIP3   OH271628   2.767   2.402  13.486  0.2528 -0.4657 -0.2586
16738TIP3    H171629   2.755   2.494  13.462 -0.6570 -0.4409  0.2362
16738TIP3    H271630   2.854   2.398  13.524  0.5328  0.0738 -0.8324
16739TIP3   OH271631   4.452   6.592   5.045  0.8213 -0.1317 -0.4299
16739TIP3    H171632   4.397   6.569   5.121 -1.3609 -1.6637 -2.3387
16739TIP3    H271633   4.464   6.687   5.052 -0.7584  0.0148  0.9305
16740TIP3   OH271634   6.712   0.193   5.954  0.1142 -0.0056  0.0671
16740TIP3    H171635   6.773   0.135   6.001  0.0892 -0.0907 -0.0038
16740TIP3    H271636   6.757   0.277   5.950  0.7955 -0.4055 -1.1229
16741TIP3   OH271637   6.701   0.898  16.654  0.3074  0.1864 -0.3162
16741TIP3    H171638   6.653   0.862  16.729 -0.5986  0.2311 -0.8580
16741TIP3    H271639   6.703   0.992  16.669 -1.5136  0.4184 -1.2303
16742TIP3   OH271640   3.799   0.553  11.447  0.2544  0.8942 -0.2390
16742TIP3    H171641   3.754   0.484  11.398 -1.9934  1.6299  0.6536
16742TIP3    H271642   3.799   0.628  11.387  0.4405  0.8443 -0.3009
16743TIP3   OH271643   3.571   0.493  15.099 -0.0318  0.0084  1.0331
16743TIP3    H171644   3.634   0.560  15.072 -0.3506 -0.1020 -0.0202
16743TIP3    H271645   3.598   0.469  15.188  0.5449  0.9820  1.1352
16744TIP3   OH271646   0.284   3.029   1.333  0.7385 -0.1136 -0.3381
16744TIP3    H171647   0.236   2.951   1.362 -0.1408  0.4886 -0.1232
16744TIP3    H271648   0.359   2.994   1.284  0.5524 -1.0948  0.0449
16745TIP3   OH271649   3.224   1.045  11.464  0.6916 -0.2955  0.3025
16745TIP3    H171650   3.291   1.096  11.509  0.1277  0.3849  0.3815
16745TIP3    H271651   3.175   1.002  11.534  0.4998 -0.1074  0.2816
16746TIP3   OH271652   4.086   3.267  16.334 -0.0235  0.0409  0.1737
16746TIP3    H171653   4.094   3.316  16.416  1.2145  0.3656 -0.1191
16746TIP3    H271654   4.049   3.182  16.360  0.5132  0.0813  1.0930
16747TIP3   OH271655   6.507   4.603  10.866 -0.0431 -0.5302  0.5309
16747TIP3    H171656   6.432   4.659  10.888 -0.3546 -0.4592 -0.6220
16747TIP3    H271657   6.566   4.660  10.817  0.2109 -0.8874  0.4173
16748TIP3   OH271658   2.560   6.598  12.841 -0.1226  0.0232 -0.3861
16748TIP3    H171659   2.489   6.626  12.899  1.0721  1.6682  0.3925
16748TIP3    H271660   2.533   6.512  12.809 -1.6250 -0.1895  1.2696
16749TIP3   OH271661   2.007   6.340  14.602  0.2978  0.1051 -0.0634
16749TIP3    H171662   1.990   6.345  14.696 -0.0832 -0.3026 -0.1073
16749TIP3    H271663   1.940   6.280  14.568  0.6655 -0.0524 -0.5308
16750TIP3   OH271664   2.696   0.364   5.371  0.0683  0.0764 -0.2795
16750TIP3    H171665   2.653   0.450   5.371  1.0818  0.6132  0.4519
16750TIP3    H271666   2.789   0.384   5.378  0.3170 -1.0884 -0.0152
16751TIP3   OH271667   5.316   4.471   3.903 -0.3835  0.0978  0.0678
16751TIP3    H171668   5.257   4.404   3.869 -0.5664  0.8590 -1.1788
16751TIP3    H271669   5.334   4.528   3.828  2.2736 -0.3325  0.3034
16752TIP3   OH271670   5.391   5.863   0.186 -0.0583  0.3063  0.9208
16752TIP3    H171671   5.478   5.891   0.216 -0.1722  1.3534  0.3235
16752TIP3    H271672   5.406   5.778   0.144  1.0171  1.2650 -0.7778
16753TIP3   OH271673   3.212   6.648   4.643 -0.3423 -0.3532 -0.3587
16753TIP3    H171674   3.291   6.626   4.692 -0.0308 -2.2725 -1.5957
16753TIP3    H271675   3.141   6.609   4.694 -0.1110 -1.5693 -0.9322
16754TIP3   OH271676   4.446   1.435  12.076 -0.0299 -0.4743  0.1337
16754TIP3    H171677   4.526   1.428  12.128 -1.6062  0.5303  2.9515
16754TIP3    H271678   4.425   1.344  12.053  1.6791 -0.7842 -0.3054
16755TIP3   OH271679   2.477   5.489   3.863 -0.0415  0.0774 -0.0426
16755TIP3    H171680   2.565   5.468   3.894  0.2047 -1.4369 -1.6416
16755TIP3    H271681   2.421   5.424   3.906  0.0417 -0.8166 -1.2623
16756TIP3   OH271682   5.962   0.864  16.423 -0.5023 -0.0146 -0.4916
16756TIP3    H171683   5.929   0.834  16.508  0.9297  0.3278  0.2217
16756TIP3    H271684   5.942   0.793  16.363  0.7995 -1.4437  0.6892
16757TIP3   OH271685   1.717   1.961   1.981  0.4370 -0.4859  0.1361
16757TIP3    H171686   1.770   1.943   2.058  0.4193  0.0916  0.2839
16757TIP3    H271687   1.627   1.962   2.013  0.5309  1.5898  0.4865
16758TIP3   OH271688   1.642   0.272  16.640 -0.5482 -0.2102 -0.1089
16758TIP3    H171689   1.676   0.337  16.578  0.2490  0.3085  0.8528
16758TIP3    H271690   1.617   0.197  16.585  1.6472 -0.4104 -0.9177
16759TIP3   OH271691   1.289   1.797  11.704  0.2998  0.7277  0.1757
16759TIP3    H171692   1.372   1.748  11.702 -1.4084 -2.4550 -0.7826
16759TIP3    H271693   1.267   1.803  11.797  1.1197  0.6809  0.3825
16760TIP3   OH271694   5.859   0.606  10.745 -0.2494 -0.0602  0.1394
16760TIP3    H171695   5.812   0.639  10.668 -1.1070  0.0993  0.7127
16760TIP3    H271696   5.807   0.530  10.773  0.3325 -0.4119  0.2760
16761TIP3   OH271697   1.908   6.114  14.059  0.2200 -0.0190 -0.3392
16761TIP3    H171698   1.906   6.154  13.972  0.9045 -0.5908 -0.6285
16761TIP3    H271699   1.996   6.077  14.067  0.3557  0.5061  0.8244
16762TIP3   OH271700   6.068   4.440  13.153 -0.1375  0.1369 -0.4350
16762TIP3    H171701   6.059   4.469  13.244  0.8126 -1.6885  0.3091
16762TIP3    H271702   6.155   4.470  13.127  1.1634 -2.4025  0.5861
16763TIP3   OH271703   4.898   4.592   1.884  0.1529 -0.2097 -0.8983
16763TIP3    H171704   4.873   4.600   1.792  0.4039  1.8123 -0.8252
16763TIP3    H271705   4.837   4.649   1.931  0.8193 -0.2436  0.0324
16764TIP3   OH271706   6.129   5.237   2.858  0.0584  0.4853  0.1612
16764TIP3    H171707   6.163   5.151   2.880 -1.0810 -0.9575 -3.0817
16764TIP3    H271708   6.198   5.298   2.885  1.3053 -1.4946  1.6784
16765TIP3   OH271709   0.362   4.128   3.389  0.5075  0.1381 -0.1107
16765TIP3    H171710   0.430   4.175   3.436  2.2692 -1.5217 -0.8627
16765TIP3    H271711   0.410   4.066   3.333 -1.6107 -0.8196 -0.9717
16766TIP3   OH271712   4.817   0.430   1.892 -0.8363  0.4103  0.2272
16766TIP3    H171713   4.863   0.440   1.975 -0.2960  0.8008 -0.1111
16766TIP3    H271714   4.734   0.476   1.905 -0.0262  2.0238 -0.0045
16767TIP3   OH271715   6.828   6.524  11.757 -0.6509 -0.6227 -0.2394
16767TIP3    H171716   6.739   6.545  11.785  0.1786  0.2805  1.9386
16767TIP3    H271717   6.832   6.428  11.757 -1.1008 -0.6652  1.5182
16768TIP3   OH271718   0.986   4.161  14.768 -0.6969  0.4307 -0.4258
16768TIP3    H171719   0.899   4.126  14.751 -0.7496  0.5731 -0.4476
16768TIP3    H271720   0.977   4.209  14.850 -0.6766  0.5778 -0.5094
16769TIP3   OH271721   0.606   6.179   4.530  0.1924  0.1369 -0.1023
16769TIP3    H171722   0.650   6.151   4.609 -0.0449 -1.4725 -0.5061
16769TIP3    H271723   0.676   6.199   4.468  0.4183 -1.7427 -0.5156
16770TIP3   OH271724   1.357   5.558   0.207  0.2557 -0.6932  0.1457
16770TIP3    H171725   1.303   5.594   0.277 -1.5651 -2.6401 -0.1383
16770TIP3    H271726   1.371   5.631   0.147 -2.9714 -0.2392 -0.2387
16771TIP3   OH271727   5.916   1.339   0.919 -0.2649 -0.3830  0.0626
16771TIP3    H171728   5.993   1.322   0.866  0.9052 -1.5882  2.0350
16771TIP3    H271729   5.849   1.281   0.884  0.5406 -1.3002  0.0127
16772TIP3   OH271730   3.976   6.560  10.450  0.5045 -0.6648  0.1585
16772TIP3    H171731   4.056   6.553  10.399  0.2917 -0.6845 -0.1760
16772TIP3    H271732   3.928   6.633  10.410  0.4861 -0.4619  0.5400
16773TIP3   OH271733   0.817   4.321   2.194 -0.2705  0.0589  0.2280
16773TIP3    H171734   0.733   4.284   2.168  0.2571  0.2412 -1.9080
16773TIP3    H271735   0.882   4.261   2.157  0.5507  1.0686 -0.0033
16774TIP3   OH271736   3.984   0.166  10.396  0.2768  0.2984 -0.4340
16774TIP3    H171737   3.946   0.081  10.421 -1.5546  0.4951 -2.3335
16774TIP3    H271738   3.947   0.228  10.459 -0.7570  0.1231 -0.8511
16775TIP3   OH271739   0.432   3.111  13.013 -0.1803  0.1367  0.3754
16775TIP3    H171740   0.516   3.081  12.978  0.5883  1.6398  0.8162
16775TIP3    H271741   0.380   3.134  12.936  0.2981  0.3841  0.1190
16776TIP3   OH271742   1.785   6.436  11.892  0.0562 -0.0280  0.5527
16776TIP3    H171743   1.828   6.429  11.977 -1.9394 -0.2555  1.6209
16776TIP3    H271744   1.845   6.394  11.830  0.6070 -1.8160  2.2231
16777TIP3   OH271745   3.013   2.684  15.715  0.8237  0.3685  0.0432
16777TIP3    H171746   2.938   2.625  15.725  1.3093 -0.0748  1.1792
16777TIP3    H271747   2.975   2.772  15.719  0.3949  0.1551  1.0696
16778TIP3   OH271748   6.481   4.767  13.905  0.6216  0.2882  0.4694
16778TIP3    H171749   6.553   4.713  13.872  0.4324  0.1142  0.3383
16778TIP3    H271750   6.405   4.709  13.903  0.2787  0.7460 -0.2861
16779TIP3   OH271751   1.889   0.493  14.671  0.0845 -0.3576 -0.6617
16779TIP3    H171752   1.900   0.443  14.590 -0.1069  2.4512 -2.5615
16779TIP3    H271753   1.973   0.538  14.682 -1.0041  1.9332 -1.2878
16780TIP3   OH271754   3.925   4.927  14.330 -0.4634  0.3061  0.0286
16780TIP3    H171755   3.958   4.943  14.241 -1.7600  0.1581 -0.5119
16780TIP3    H271756   3.866   4.851  14.319  0.0111 -0.2423  1.1777
16781TIP3   OH271757   6.807   0.366  12.562  0.4986 -0.0243  0.2328
16781TIP3    H171758   6.862   0.429  12.516 -0.8927 -0.9675 -3.0314
16781TIP3    H271759   6.820   0.284  12.514 -2.2251 -0.7174  0.4927
16782TIP3   OH271760   0.894   4.795  14.449 -0.8484  0.1882 -0.1861
16782TIP3    H171761   0.910   4.816  14.541 -2.6518  0.7630  0.0369
16782TIP3    H271762   0.799   4.798  14.440 -0.7975 -1.3521 -1.7329
16783TIP3   OH271763   0.793   5.342   2.207 -0.0654  0.2017  0.1371
16783TIP3    H171764   0.777   5.432   2.235 -0.1672  0.6338 -1.2561
16783TIP3    H271765   0.716   5.294   2.236 -1.7035  1.2765 -2.1219
16784TIP3   OH271766   2.963   6.011   3.062  0.3576  0.3442 -0.0318
16784TIP3    H171767   3.041   5.956   3.060  1.6650  2.1164  0.2809
16784TIP3    H271768   2.928   5.998   3.150  0.4522 -0.2273 -0.0719
16785TIP3   OH271769   4.499   3.567   5.712  0.4520  0.4006 -0.4345
16785TIP3    H171770   4.494   3.532   5.623  0.0577 -1.3883  0.2566
16785TIP3    H271771   4.410   3.561   5.745  0.5134  1.4578 -0.0359
16786TIP3   OH271772   2.755   6.171  11.397 -0.5175 -0.1430  0.2019
16786TIP3    H171773   2.720   6.112  11.464 -0.0684 -1.2045 -0.4795
16786TIP3    H271774   2.699   6.155  11.321 -0.9424  0.9632  0.2623
16787TIP3   OH271775   5.831   2.168  15.794  0.2597  0.3150  0.0036
16787TIP3    H171776   5.847   2.134  15.705  1.2489  0.6615  0.0295
16787TIP3    H271777   5.826   2.263  15.782 -0.0819  0.3305  0.2592
16788TIP3   OH271778   4.000   1.288   5.060  0.4508 -0.4657 -0.2372
16788TIP3    H171779   4.066   1.347   5.024  0.7371  0.0852  1.1347
16788TIP3    H271780   3.967   1.332   5.138 -0.1329 -1.6158  0.2017
16789TIP3   OH271781   6.316   2.817  15.720 -0.0025  0.5248 -0.0027
16789TIP3    H171782   6.339   2.909  15.706  2.1252  0.0070 -0.2636
16789TIP3    H271783   6.400   2.772  15.729 -0.9788 -1.4449 -0.1047
16790TIP3   OH271784   3.391   5.390  13.509 -0.5649 -0.2355  0.3183
16790TIP3    H171785   3.322   5.339  13.551 -0.3984  0.0426  0.9333
16790TIP3    H271786   3.469   5.336  13.517 -0.7929 -0.7717 -0.8121
16791TIP3   OH271787   0.008   1.980   3.069 -0.0064 -0.1690  0.8325
16791TIP3    H171788  -0.039   1.953   2.990 -0.0618 -0.9948  1.1341
16791TIP3    H271789   0.061   2.054   3.041 -1.2052  0.5498  0.4053
16792TIP3   OH271790   0.885   3.428  12.249  0.1208 -0.1942 -0.4193
16792TIP3    H171791   0.913   3.374  12.322 -0.3410 -1.4046 -1.1205
16792TIP3    H271792   0.945   3.406  12.178 -1.0306 -0.9734 -1.1835
16793TIP3   OH271793   1.350   1.295   0.192  0.5406 -0.1678 -0.1664
16793TIP3    H171794   1.266   1.277   0.235 -0.1876  0.6686 -1.1860
16793TIP3    H271795   1.332   1.283   0.099  1.6707 -0.3682 -0.3702
16794TIP3   OH271796   2.815   1.721  16.677  0.2573 -0.1188  0.1983
16794TIP3    H171797   2.820   1.817  16.683  0.5160 -0.1067 -0.1730
16794TIP3    H271798   2.851   1.701  16.590  1.7596 -0.6625  0.9104
16795TIP3   OH271799   4.169   3.824  16.381 -0.4753  0.2255 -0.4052
16795TIP3    H171800   4.237   3.766  16.347  1.0012  2.2787 -1.1891
16795TIP3    H271801   4.106   3.833  16.309  0.1410  0.8294 -0.8782
16796TIP3   OH271802   4.979   6.251   3.351 -0.0208 -0.0994  0.4505
16796TIP3    H171803   4.977   6.327   3.292 -2.8680  0.6529  1.3687
16796TIP3    H271804   4.977   6.175   3.293 -2.3645  0.6245 -0.5032
16797TIP3   OH271805   3.975   4.700  10.035 -0.1560  0.1228 -0.2655
16797TIP3    H171806   3.981   4.640  10.109 -0.2400  0.5152  0.0608
16797TIP3    H271807   3.881   4.703  10.015 -0.2848  0.9811  0.4167
16798TIP3   OH271808   0.342   4.727  11.848  0.1065  0.1936  0.1851
16798TIP3    H171809   0.327   4.815  11.882  1.2337  0.7955 -0.7905
16798TIP3    H271810   0.286   4.720  11.771 -0.8678 -0.3935  0.9305
16799TIP3   OH271811   4.803   6.778   5.441  0.4477  0.4527  0.5939
16799TIP3    H171812   4.766   6.851   5.391  1.4007  0.4836 -0.0734
16799TIP3    H271813   4.746   6.771   5.518 -0.9345  0.5262 -0.3784
16800TIP3   OH271814   5.642   6.757  16.390 -0.3387 -0.6652  0.1724
16800TIP3    H171815   5.702   6.811  16.338 -0.2883 -0.0193  0.8845
16800TIP3    H271816   5.665   6.776  16.481 -1.1226 -0.9800  0.4456
16801TIP3   OH271817   5.555   2.256  13.423 -0.6578 -0.6958  0.0434
16801TIP3    H171818   5.643   2.219  13.433 -0.9421 -1.2633  0.4694
16801TIP3    H271819   5.561   2.342  13.465 -0.4047 -0.8831  0.4013
16802TIP3   OH271820   3.792   4.899   1.735  0.5808  0.7294  0.0647
16802TIP3    H171821   3.886   4.897   1.715  0.4375  2.3689 -0.9319
16802TIP3    H271822   3.754   4.954   1.666 -1.1231  0.1171  0.4646
16803TIP3   OH271823   1.497   2.405   2.020  0.2413 -0.8556  0.1238
16803TIP3    H171824   1.481   2.312   2.033 -0.7478 -0.8057 -0.6377
16803TIP3    H271825   1.537   2.434   2.102 -2.3155 -1.3088  1.6319
16804TIP3   OH271826   2.585   2.764  16.077  0.3401  0.1540  0.4354
16804TIP3    H171827   2.618   2.825  16.143  0.5996  2.6249 -1.7949
16804TIP3    H271828   2.509   2.723  16.118  0.5643  1.4658  2.3046
16805TIP3   OH271829   2.356   1.039   0.243  0.0043 -0.3463  0.0248
16805TIP3    H171830   2.446   1.057   0.217  0.0378  0.8954  0.9034
16805TIP3    H271831   2.303   1.095   0.187 -0.2609 -1.3270 -0.7263
16806TIP3   OH271832   1.800   2.138  14.729 -0.1611  0.2423  0.7541
16806TIP3    H171833   1.894   2.151  14.742 -0.2229 -0.5263  2.1744
16806TIP3    H271834   1.763   2.226  14.734  0.5960  0.7398 -1.2907
16807TIP3   OH271835   2.795   1.993  11.535 -0.5810  0.3818 -0.7270
16807TIP3    H171836   2.717   1.981  11.480 -0.5012  1.6205 -1.1514
16807TIP3    H271837   2.831   1.905  11.545 -2.5693 -0.3719  0.3034
16808TIP3   OH271838   0.661   0.988  15.857  0.1889 -0.4438  0.2744
16808TIP3    H171839   0.703   0.906  15.881  0.0282 -0.4908  0.4017
16808TIP3    H271840   0.719   1.027  15.791  1.1112  0.1220  1.3920
16809TIP3   OH271841   5.456   1.290   2.155  0.0065  0.3751 -0.4414
16809TIP3    H171842   5.546   1.263   2.174 -0.1570  0.5685  0.6433
16809TIP3    H271843   5.448   1.280   2.060  0.0954 -3.0581 -0.2384
16810TIP3   OH271844   1.733   6.719  14.211 -0.3237 -0.1638  0.2801
16810TIP3    H171845   1.653   6.683  14.250 -1.2564  1.3407 -0.1367
16810TIP3    H271846   1.804   6.672  14.254 -1.3647  0.0902  2.4128
16811TIP3   OH271847   6.891   1.647  10.655 -0.3923  0.5730 -0.1449
16811TIP3    H171848   6.851   1.607  10.578 -2.6338 -2.1876  2.2202
16811TIP3    H271849   6.969   1.594  10.671 -1.1268 -0.3171  0.6432
16812TIP3   OH271850   0.314   4.359  16.409  0.0909  0.1191 -0.1738
16812TIP3    H171851   0.370   4.347  16.332 -0.8388 -2.1802 -0.5573
16812TIP3    H271852   0.322   4.452  16.429  1.6502  0.4662 -2.0460
16813TIP3   OH271853   3.937   5.805   1.652  0.0360  0.2202  0.0568
16813TIP3    H171854   3.983   5.723   1.635  0.4621  0.4141  0.2690
16813TIP3    H271855   3.979   5.841   1.730  1.1916  1.6267 -1.1599
16814TIP3   OH271856   3.432   1.440  16.494  0.2507  0.8713 -0.3271
16814TIP3    H171857   3.525   1.423  16.505  0.1699 -0.0724 -0.9598
16814TIP3    H271858   3.395   1.431  16.582  1.0669  3.5904  0.3809
16815TIP3   OH271859   6.255   4.091  12.313 -0.6820  0.1520 -0.2206
16815TIP3    H171860   6.197   4.017  12.330 -0.3726  0.0393  0.3661
16815TIP3    H271861   6.239   4.151  12.386  0.5039 -0.2342  0.3710
16816TIP3   OH271862   5.112   0.026  14.375  0.4926 -0.2114  0.1729
16816TIP3    H171863   5.199   0.037  14.415 -0.6615 -0.9157  3.0880
16816TIP3    H271864   5.120  -0.053  14.323  1.2479 -1.1413  1.6176
16817TIP3   OH271865   3.051   0.734  13.152  1.2054 -0.2072 -0.0843
16817TIP3    H171866   3.105   0.790  13.096  0.4290 -0.9797 -1.6523
16817TIP3    H271867   3.115   0.680  13.200  1.8638 -0.1670 -0.8978
16818TIP3   OH271868   0.712   2.997  13.796  0.4430 -0.9928  0.4458
16818TIP3    H171869   0.694   2.917  13.746 -0.5495 -1.2629  1.1989
16818TIP3    H271870   0.644   2.999  13.864  0.2813  0.6391  0.2773
16819TIP3   OH271871   6.330   6.187  10.844  0.5129  0.0631  0.2904
16819TIP3    H171872   6.330   6.274  10.804  1.2350 -0.6429 -1.3269
16819TIP3    H271873   6.253   6.144  10.808  1.8560 -1.0165 -1.4135
16820TIP3   OH271874   6.587   0.115  11.353 -0.1485 -0.1409 -0.5234
16820TIP3    H171875   6.639   0.193  11.334 -1.8089  0.7726 -1.5108
16820TIP3    H271876   6.605   0.056  11.280 -1.4660  0.7172 -1.5850
16821TIP3   OH271877   6.320   6.722   5.653 -0.1530 -0.3277 -0.2299
16821TIP3    H171878   6.296   6.762   5.736 -1.9751  1.3867 -1.4784
16821TIP3    H271879   6.246   6.665   5.631 -0.2496  0.1361 -1.1887
16822TIP3   OH271880   5.744   4.171  11.724 -1.0029  0.1048  0.0335
16822TIP3    H171881   5.827   4.209  11.696 -1.5903 -0.4526 -2.7272
16822TIP3    H271882   5.679   4.239  11.707 -1.2617  0.1817  1.2580
16823TIP3   OH271883   6.106   2.746  14.778 -0.3704 -0.2888  0.0092
16823TIP3    H171884   6.152   2.819  14.820  1.7885 -2.0217  0.8606
16823TIP3    H271885   6.130   2.753  14.686 -0.3406  0.1704  0.0470
16824TIP3   OH271886   2.931   4.965  15.027  0.2619 -0.1808 -0.0857
16824TIP3    H171887   2.928   4.903  14.955 -0.4116  0.8687 -0.9959
16824TIP3    H271888   2.990   5.035  14.996 -0.6810  0.6871  0.0141
16825TIP3   OH271889   2.822   4.908  10.346 -0.1449  0.2268 -0.0288
16825TIP3    H171890   2.876   4.985  10.326  0.3340  0.5392  2.1583
16825TIP3    H271891   2.844   4.887  10.437 -1.4786 -1.5180 -0.0640
16826TIP3   OH271892   6.214   1.637  13.081 -0.9819  0.4141 -0.1981
16826TIP3    H171893   6.135   1.583  13.078 -1.0311  0.5061 -2.8861
16826TIP3    H271894   6.185   1.722  13.049 -0.2605  1.1886  1.1250
16827TIP3   OH271895   5.343   0.918   0.709  0.2113  0.1520 -0.3312
16827TIP3    H171896   5.296   0.948   0.631 -0.1840  2.9984  0.8872
16827TIP3    H271897   5.289   0.946   0.782  1.4854 -0.7943  1.0427
16828TIP3   OH271898   1.767   2.298  15.482  0.2027 -1.1271  0.1758
16828TIP3    H171899   1.807   2.296  15.395 -1.2364 -0.5051 -0.5277
16828TIP3    H271900   1.812   2.369  15.528 -0.1004 -0.4158 -0.6119
16829TIP3   OH271901   6.164   1.851   2.085 -0.3426 -0.1444  0.0950
16829TIP3    H171902   6.219   1.838   2.008  3.0155  0.8421  2.0877
16829TIP3    H271903   6.202   1.794   2.152 -2.6719 -0.4391  1.2521
16830TIP3   OH271904   1.694   4.692   0.227  0.0934  0.6612 -0.2815
16830TIP3    H171905   1.789   4.684   0.218 -0.1428 -1.0618 -2.3244
16830TIP3    H271906   1.661   4.685   0.137 -2.0505 -0.8087  0.5313
16831TIP3   OH271907   4.948   3.850   4.913 -0.2718 -0.7071 -0.4588
16831TIP3    H171908   4.972   3.942   4.926 -0.6558 -0.7138  0.3780
16831TIP3    H271909   5.029   3.802   4.932  1.2411 -0.3996 -5.0441
16832TIP3   OH271910   4.514   5.075  13.373  0.3296 -0.7751 -0.7275
16832TIP3    H171911   4.489   5.056  13.282 -1.1671 -0.7339 -0.3576
16832TIP3    H271912   4.443   5.130  13.406  1.0325 -0.5056  0.3658
16833TIP3   OH271913   1.878   6.678   3.895  1.0707  0.1921 -0.0967
16833TIP3    H171914   1.946   6.683   3.828  0.0876  1.9361 -1.0331
16833TIP3    H271915   1.795   6.678   3.846  0.3352 -1.1375  1.0414
16834TIP3   OH271916   1.794   5.906  15.069  0.5618 -0.3007 -0.0258
16834TIP3    H171917   1.747   5.986  15.093  1.5711  0.5306 -0.6978
16834TIP3    H271918   1.817   5.866  15.153 -1.6516 -0.9610  0.3197
16835TIP3   OH271919   4.079   2.774   0.686  0.1146 -0.0869  0.6457
16835TIP3    H171920   4.142   2.733   0.745  1.1490 -1.3698 -1.2559
16835TIP3    H271921   4.073   2.714   0.612 -1.9222  0.9539 -0.1134
16836TIP3   OH271922   5.792   2.392   1.002 -0.1189 -0.0860  0.3534
16836TIP3    H171923   5.776   2.328   1.071  1.0542 -0.9859 -0.1885
16836TIP3    H271924   5.888   2.397   0.995 -0.1764  1.4862  0.1538
16837TIP3   OH271925   0.554   1.687  13.041 -0.7707 -0.1077  0.0718
16837TIP3    H171926   0.638   1.733  13.046 -0.9483  0.2319 -0.0707
16837TIP3    H271927   0.560   1.636  12.960 -1.4345  1.3836 -0.9674
16838TIP3   OH271928   2.411   2.067   1.858 -0.2752  0.4223 -0.0064
16838TIP3    H171929   2.430   2.055   1.765  0.2467  3.2133 -0.3321
16838TIP3    H271930   2.345   2.136   1.861 -2.3759 -1.4889  1.6570
16839TIP3   OH271931   6.062   5.293   0.250  0.3251 -0.0238  0.2214
16839TIP3    H171932   5.992   5.344   0.291  0.7530  0.1328  0.7697
16839TIP3    H271933   6.022   5.256   0.172 -0.1937  0.5846  0.1866
16840TIP3   OH271934   0.535   5.084   5.231  0.2267 -0.4638 -0.1491
16840TIP3    H171935   0.547   5.008   5.174  0.6712 -0.5100  0.0050
16840TIP3    H271936   0.455   5.125   5.199 -0.1468 -1.1308 -0.0817
16841TIP3   OH271937   2.037   3.951  13.286 -0.5048 -0.2260  0.6991
16841TIP3    H171938   2.005   3.987  13.370 -0.3624  1.5050  0.0571
16841TIP3    H271939   2.071   4.027  13.240  3.2599 -1.7283  0.7144
16842TIP3   OH271940   0.095   1.335   4.262 -0.4169 -0.0698 -0.7780
16842TIP3    H171941   0.130   1.419   4.294 -0.7359 -0.1239 -0.2688
16842TIP3    H271942   0.146   1.316   4.183  1.8548 -0.9385  0.7921
16843TIP3   OH271943   4.405   4.370  11.311 -0.3005  0.4560  0.2159
16843TIP3    H171944   4.376   4.405  11.396  1.2999 -0.5354  1.2362
16843TIP3    H271945   4.324   4.349  11.265 -1.2246  1.1107  1.4550
16844TIP3   OH271946   6.623   4.731   5.480  0.2602  0.3892  0.3687
16844TIP3    H171947   6.580   4.646   5.481  0.4272  0.3060  1.3008
16844TIP3    H271948   6.661   4.738   5.393  0.7776 -0.7667  0.4842
16845TIP3   OH271949   5.492   0.808  12.589  0.2023 -0.4074  0.1007
16845TIP3    H171950   5.549   0.762  12.651  1.3279 -0.1470 -0.7105
16845TIP3    H271951   5.454   0.879  12.640  2.2926  0.7383  0.1791
16846TIP3   OH271952   5.130   2.156  13.562  0.2957  0.5927 -0.2358
16846TIP3    H171953   5.142   2.072  13.519 -1.0786  1.4597 -2.4710
16846TIP3    H271954   5.218   2.190  13.576  0.8286 -0.8029 -0.0979
16847TIP3   OH271955   5.670   0.201  13.849 -0.0694  0.1424 -0.5364
16847TIP3    H171956   5.695   0.121  13.805  1.5824 -0.2809  1.0257
16847TIP3    H271957   5.741   0.262  13.831 -0.6469  0.8095 -0.6042
16848TIP3   OH271958   6.803   2.689   2.998  0.4671 -0.2312  0.0397
16848TIP3    H171959   6.744   2.732   2.936 -0.3087 -2.3190 -0.7373
16848TIP3    H271960   6.879   2.665   2.946  0.9626  0.2929  0.5041
16849TIP3   OH271961   4.937   4.467  14.428 -0.1701  0.0544  0.2472
16849TIP3    H171962   5.002   4.522  14.385  0.4106 -0.2305  0.7439
16849TIP3    H271963   4.863   4.465  14.367  0.5344 -0.1431 -0.6238
16850TIP3   OH271964   3.644   2.903  10.139 -0.4007  0.0792  0.0278
16850TIP3    H171965   3.549   2.904  10.153 -0.5281 -2.3809 -0.2336
16850TIP3    H271966   3.675   2.831  10.195  1.2928  0.6984 -0.0680
16851TIP3   OH271967   2.332   6.814  10.424 -0.0184  0.1808  0.0904
16851TIP3    H171968   2.402   6.750  10.436 -1.0855 -0.8945  0.7200
16851TIP3    H271969   2.374   6.898  10.444  1.1835 -0.3965  0.1048
16852TIP3   OH271970   6.749   6.422   2.168 -0.0326  0.1444  0.1769
16852TIP3    H171971   6.695   6.392   2.095  0.1388 -0.1085  0.1506
16852TIP3    H271972   6.827   6.458   2.127  0.3600 -0.5938  0.2481
16853TIP3   OH271973   5.770   5.685   3.792 -0.3547  0.4652  0.1511
16853TIP3    H171974   5.685   5.688   3.836 -1.1960 -1.0632 -1.2552
16853TIP3    H271975   5.752   5.712   3.702  0.3298 -1.1719 -0.5270
16854TIP3   OH271976   0.014   2.640   4.740  0.3865  0.0802 -0.4483
16854TIP3    H171977  -0.081   2.629   4.734  0.3683  0.4948 -1.0782
16854TIP3    H271978   0.029   2.682   4.825 -0.0178  0.2379 -0.4543
16855TIP3   OH271979   5.616   5.598  10.128  0.4063 -0.1470  0.0654
16855TIP3    H171980   5.567   5.599  10.046  2.1698  0.5435 -1.0457
16855TIP3    H271981   5.703   5.631  10.105  1.7214 -2.1599  1.7486
16856TIP3   OH271982   4.997   4.994  13.950 -0.0909 -0.3404 -0.5320
16856TIP3    H171983   4.961   4.905  13.954 -3.8344  1.0356  0.9059
16856TIP3    H271984   4.990   5.018  13.858 -1.7485 -0.6208 -0.5115
16857TIP3   OH271985   2.312   0.664  12.127  0.6840 -0.2785  0.5481
16857TIP3    H171986   2.251   0.650  12.199 -0.9422 -1.5267 -0.9749
16857TIP3    H271987   2.261   0.644  12.048  2.8582 -0.6513 -0.8588
16858TIP3   OH271988   3.220   1.988  11.015  0.5227  0.1220  0.0688
16858TIP3    H171989   3.212   2.048  11.090  1.2286 -0.7961  0.9085
16858TIP3    H271990   3.192   1.903  11.049 -3.5059  0.4444 -1.9072
16859TIP3   OH271991   0.621   3.045  11.469 -0.0168 -0.2967 -0.0583
16859TIP3    H171992   0.590   3.109  11.533  0.3703 -0.1424 -0.0202
16859TIP3    H271993   0.551   3.039  11.405 -0.3406 -0.3324  0.2950
16860TIP3   OH271994   1.477   3.168   4.109  0.0178  0.5176 -0.4661
16860TIP3    H171995   1.400   3.212   4.072 -0.4280 -0.5121 -0.7829
16860TIP3    H271996   1.524   3.238   4.154 -0.1365  1.5495 -1.8260
16861TIP3   OH271997   1.423   5.355   2.392 -0.5865  0.2433 -0.0003
16861TIP3    H171998   1.422   5.268   2.430  1.1675 -0.3119 -1.0781
16861TIP3    H271999   1.458   5.411   2.462  0.8180 -0.4310 -0.1159
16862TIP3   OH272000   2.828   3.253   3.214 -0.2443  0.1544 -0.1668
16862TIP3    H172001   2.891   3.316   3.249  1.4440 -1.1260 -0.7266
16862TIP3    H272002   2.747   3.303   3.203  0.6687  1.8854  0.5556
16863TIP3   OH272003   5.239   4.420   2.909 -0.1751  0.5703  0.2591
16863TIP3    H172004   5.243   4.508   2.946 -0.0180 -0.2220  2.2747
16863TIP3    H272005   5.313   4.374   2.949 -0.9890 -0.8174  0.2291
16864TIP3   OH272006   1.312   2.471  13.387 -0.1878  0.0784  0.0017
16864TIP3    H172007   1.370   2.403  13.423 -0.3706  0.7748  1.7282
16864TIP3    H272008   1.296   2.443  13.297 -0.5709 -2.3771  0.7446
16865TIP3   OH272009   5.499   3.693  16.416 -0.1268 -0.2434 -0.0945
16865TIP3    H172010   5.463   3.682  16.504 -1.4302  0.0483 -0.5692
16865TIP3    H272011   5.443   3.638  16.360 -1.4058  2.0670 -1.2078
16866TIP3   OH272012   1.864   1.476  13.248  0.2859  0.0095 -0.5430
16866TIP3    H172013   1.830   1.498  13.334  1.5751 -1.7459  0.4821
16866TIP3    H272014   1.916   1.553  13.222  1.4799 -0.1605  1.1548
16867TIP3   OH272015   1.024   2.302   5.925  0.0879 -0.5449  0.6029
16867TIP3    H172016   1.080   2.366   5.970 -0.3224  0.7287 -0.6238
16867TIP3    H272017   0.958   2.355   5.880 -0.2151 -1.8331 -0.5455
16868TIP3   OH272018   3.355   4.595  12.196  0.4994 -0.1272  0.9146
16868TIP3    H172019   3.372   4.678  12.242 -0.1006 -0.1846  1.2563
16868TIP3    H272020   3.260   4.585  12.200  0.5192 -0.5699  0.4049
16869TIP3   OH272021   4.495   3.579  11.759  0.2460  0.8842 -0.1107
16869TIP3    H172022   4.507   3.485  11.745  0.6969  0.7705  0.9283
16869TIP3    H272023   4.440   3.585  11.838 -0.9427  1.4890 -0.9568
16870TIP3   OH272024   3.016   6.699   4.986  0.3766  0.2828  0.1870
16870TIP3    H172025   3.103   6.659   4.980  1.0819  1.8849 -1.0222
16870TIP3    H272026   2.979   6.689   4.899  0.1953  1.4110  0.1254
16871TIP3   OH272027   5.451   6.349  13.168  0.4358 -0.4312 -0.2633
16871TIP3    H172028   5.380   6.285  13.162  0.3630 -0.4184  0.3643
16871TIP3    H272029   5.418   6.426  13.121  0.2734 -0.6325 -0.4794
16872TIP3   OH272030   0.870   5.118  13.444 -0.3317  0.0842 -0.3804
16872TIP3    H172031   0.904   5.048  13.388 -0.9384 -0.4018 -0.1448
16872TIP3    H272032   0.803   5.161  13.391 -0.3497  0.1353 -0.3163
16873TIP3   OH272033   1.264   0.465   3.449 -0.0006 -0.0550  0.5991
16873TIP3    H172034   1.180   0.492   3.487 -0.5226  2.4674 -1.9980
16873TIP3    H272035   1.322   0.540   3.462  1.8544 -1.6131  2.0099
16874TIP3   OH272036   0.011   2.841   9.710 -0.0005  0.1278  0.3857
16874TIP3    H172037   0.015   2.745   9.707  0.0201  0.1210  0.5743
16874TIP3    H272038   0.089   2.870   9.663 -0.6689  0.0705 -0.8015
16875TIP3   OH272039   5.563   3.116  14.734 -0.0975  0.1318  0.1915
16875TIP3    H172040   5.623   3.042  14.740 -0.1041  0.1182  0.0949
16875TIP3    H272041   5.476   3.078  14.740 -0.1452 -0.0198 -1.1529
16876TIP3   OH272042   2.144   1.171  13.953 -0.1507 -0.3544  0.0980
16876TIP3    H172043   2.077   1.104  13.942 -1.0658  0.4786  0.3948
16876TIP3    H272044   2.111   1.226  14.024  0.4060  0.6077 -0.3711
16877TIP3   OH272045   4.875   6.365  15.511  0.4243  0.2512 -0.4737
16877TIP3    H172046   4.818   6.440  15.527  1.0940  1.0121 -1.5455
16877TIP3    H272047   4.945   6.400  15.457  1.2547 -0.9501 -0.1979
16878TIP3   OH272048   3.120   4.413  10.512  0.2041  0.0260  0.8096
16878TIP3    H172049   3.205   4.409  10.469  1.6204  1.2869  3.2282
16878TIP3    H272050   3.058   4.435  10.442  2.0908  0.4697 -0.8036
16879TIP3   OH272051   3.625   2.377   4.695 -0.3564 -0.1913 -0.1609
16879TIP3    H172052   3.647   2.318   4.767 -0.0941  0.7037  0.5258
16879TIP3    H272053   3.564   2.327   4.640 -0.2137 -1.0529  0.4416
16880TIP3   OH272054   3.811   5.099   4.272 -0.2921  0.3070 -0.1258
16880TIP3    H172055   3.760   5.079   4.194  0.2885 -1.2527 -0.1359
16880TIP3    H272056   3.891   5.140   4.239 -0.0339 -0.3773 -0.3529
16881TIP3   OH272057   2.713   2.191  11.736  0.0005  0.1248  0.0381
16881TIP3    H172058   2.770   2.178  11.812  1.4717 -0.2915 -1.0858
16881TIP3    H272059   2.748   2.132  11.669 -0.4959  1.3295 -1.3553
16882TIP3   OH272060   2.265   4.935  13.806 -0.1354  0.0063 -0.4129
16882TIP3    H172061   2.289   4.844  13.825  0.0438  0.0307 -0.5227
16882TIP3    H272062   2.323   4.960  13.734 -0.8890 -0.1179 -1.0730
16883TIP3   OH272063   5.471   2.782  12.367 -0.4883  0.5536  0.2823
16883TIP3    H172064   5.402   2.847  12.365 -1.5717 -0.5263  1.0027
16883TIP3    H272065   5.510   2.791  12.454 -1.3651 -0.4492  0.8024
16884TIP3   OH272066   3.613   0.836  15.020 -0.2324 -0.2566  0.2068
16884TIP3    H172067   3.674   0.800  14.956  0.0878 -1.3282  1.0796
16884TIP3    H272068   3.553   0.891  14.969 -0.1517 -1.3008 -1.0489
16885TIP3   OH272069   5.724   0.925  14.258  0.4306 -0.0930  0.1281
16885TIP3    H172070   5.671   0.848  14.236 -0.2275  0.1522  0.7828
16885TIP3    H272071   5.707   0.987  14.188  0.0458 -0.1198  0.1932
16886TIP3   OH272072   1.551   3.022  15.522  0.1930  1.1426  0.5280
16886TIP3    H172073   1.557   2.957  15.452 -0.1092  0.9249  0.6987
16886TIP3    H272074   1.613   3.091  15.497  1.2838  0.3158  0.8424
16887TIP3   OH272075   2.265   1.690  13.132 -1.0446  0.1165  0.1733
16887TIP3    H172076   2.332   1.628  13.103 -0.0366  0.5410  1.4748
16887TIP3    H272077   2.277   1.767  13.076 -0.7884 -0.0129  0.0477
16888TIP3   OH272078   4.074   2.600   0.457  0.3436 -0.2537 -0.2065
16888TIP3    H172079   4.170   2.598   0.466  0.2042 -1.9998  1.7299
16888TIP3    H272080   4.053   2.519   0.411 -0.0656  1.9078 -4.2994
16889TIP3   OH272081   1.607   3.968   2.875  0.5578  0.3677 -0.2419
16889TIP3    H172082   1.653   3.921   2.945  0.1075  1.5398  0.8946
16889TIP3    H272083   1.524   3.994   2.916 -0.3688 -0.2175 -1.7004
16890TIP3   OH272084   5.614   6.118  15.004  0.3505 -0.3599  0.2148
16890TIP3    H172085   5.688   6.103  15.063 -0.4756 -2.7147  0.7240
16890TIP3    H272086   5.621   6.211  14.982  1.1501  0.4532  3.3595
16891TIP3   OH272087   2.411   2.214   0.751  0.0306 -0.8824  0.0361
16891TIP3    H172088   2.393   2.220   0.657  0.5112  0.5620  0.0100
16891TIP3    H272089   2.478   2.280   0.767 -1.8085  0.6991  1.8257
16892TIP3   OH272090   0.334   3.958  13.706 -0.8612  0.2055  0.1982
16892TIP3    H172091   0.247   3.952  13.745 -0.3524  1.0850  1.5679
16892TIP3    H272092   0.367   4.043  13.735  1.9577 -1.6450  3.0901
16893TIP3   OH272093   0.478   1.896   3.122 -0.0607 -0.3966  0.3997
16893TIP3    H172094   0.561   1.915   3.079 -0.4618 -2.6655 -1.5677
16893TIP3    H272095   0.420   1.870   3.051 -1.7474 -1.2039  1.9990
16894TIP3   OH272096   0.135   1.964  14.076 -0.0215 -0.6850  0.1640
16894TIP3    H172097   0.104   1.908  14.004 -1.7031  0.7196 -0.2485
16894TIP3    H272098   0.056   1.993  14.120  0.8821  0.3961  1.1318
16895TIP3   OH272099   4.760   6.145   1.863 -0.3405  0.3634 -0.0137
16895TIP3    H172100   4.752   6.240   1.863 -0.5020  0.3884 -2.0603
16895TIP3    H272101   4.675   6.113   1.833  0.2319 -0.3524 -0.9234
16896TIP3   OH272102   1.569   0.722   0.292  0.0212 -0.0806 -0.6745
16896TIP3    H172103   1.490   0.744   0.243  0.8454 -1.5485 -2.8483
16896TIP3    H272104   1.634   0.785   0.261 -0.0207  0.5058  0.3797
16897TIP3   OH272105   1.268   5.082  10.745  0.4645 -0.2234 -0.3917
16897TIP3    H172106   1.223   5.166  10.737  0.7237 -0.1584 -1.3338
16897TIP3    H272107   1.282   5.054  10.655  0.3596 -1.2978 -0.0928
16898TIP3   OH272108   4.357   1.213  12.325  0.0320 -0.8724 -0.4844
16898TIP3    H172109   4.386   1.229  12.415 -2.2509 -0.4094  0.2262
16898TIP3    H272110   4.354   1.117  12.319 -1.3426 -0.9252  0.5152
16899TIP3   OH272111   2.810   4.357   6.259 -0.0173 -0.4193 -0.3686
16899TIP3    H172112   2.785   4.320   6.343  0.7148 -1.1240 -0.4593
16899TIP3    H272113   2.784   4.291   6.195  1.9052 -1.1033 -0.4815
16900TIP3   OH272114   0.914   6.596  11.449 -0.0927  0.2413 -0.0502
16900TIP3    H172115   0.838   6.635  11.405 -0.4115  1.6437  1.6099
16900TIP3    H272116   0.928   6.513  11.404 -1.4727  0.7873 -1.5926
16901TIP3   OH272117   0.904   5.997  14.121 -0.2575 -0.0915 -0.2846
16901TIP3    H172118   0.861   6.022  14.203 -0.5920 -0.4477 -0.3495
16901TIP3    H272119   0.886   5.904  14.111 -0.7261  0.0725 -1.0606
16902TIP3   OH272120   5.213   5.247  14.213  0.1884  0.0594 -0.8139
16902TIP3    H172121   5.241   5.321  14.267 -0.5126  1.1861 -1.9264
16902TIP3    H272122   5.118   5.253  14.212  0.1790 -0.0616 -1.9728
16903TIP3   OH272123   6.233   4.794  15.925  0.3091  0.0619  0.0544
16903TIP3    H172124   6.246   4.701  15.908  1.4146 -0.0921  1.4989
16903TIP3    H272125   6.250   4.804  16.019  1.3007  1.8835 -0.2560
16904TIP3   OH272126   3.277   3.393  11.229 -0.5146  0.2540  0.0648
16904TIP3    H172127   3.320   3.387  11.144 -1.7300 -0.7979 -0.5045
16904TIP3    H272128   3.298   3.309  11.272 -2.4604 -0.5654 -0.4815
16905TIP3   OH272129   6.840   0.932  12.318 -0.4233  0.8152 -0.8394
16905TIP3    H172130   6.928   0.931  12.280 -0.7121  0.5062 -1.5092
16905TIP3    H272131   6.804   0.846  12.298 -1.2197  1.2571 -1.3573
16906TIP3   OH272132   1.588   0.869   2.072  0.2106 -0.2293 -0.6170
16906TIP3    H172133   1.496   0.849   2.089  0.2873  0.6401  0.9412
16906TIP3    H272134   1.618   0.914   2.151  1.3970  1.4535 -1.9547
16907TIP3   OH272135   2.395   6.701  15.879 -0.2389 -0.3506 -0.5668
16907TIP3    H172136   2.338   6.758  15.929 -0.1906 -0.7963  0.0107
16907TIP3    H272137   2.455   6.760  15.833  1.6069  0.0618  2.1369
16908TIP3   OH272138   5.454   2.679  13.987  0.1140 -0.8576 -0.0825
16908TIP3    H172139   5.361   2.692  14.004  0.0515 -1.0608 -0.2608
16908TIP3    H272140   5.488   2.638  14.066  0.6324  1.7240  1.1442
16909TIP3   OH272141   2.136   4.788   2.276  0.3856 -0.0020  0.0238
16909TIP3    H172142   2.202   4.851   2.246  2.0833 -1.6353  0.1656
16909TIP3    H272143   2.084   4.769   2.198  0.0958  1.2458 -0.1119
16910TIP3   OH272144   5.118   3.366  12.437  0.3219 -0.8720 -0.4719
16910TIP3    H172145   5.051   3.318  12.486  0.4966 -0.7498 -0.1113
16910TIP3    H272146   5.132   3.314  12.358  2.2311 -2.7538  0.9974
16911TIP3   OH272147   3.564   1.232  14.320  0.1866 -0.5535  0.1125
16911TIP3    H172148   3.515   1.150  14.318  1.6624 -1.4735 -0.5916
16911TIP3    H272149   3.648   1.210  14.280  0.0503  1.7006 -1.5991
16912TIP3   OH272150   3.185   4.310   1.807 -0.5772 -0.2158 -0.0225
16912TIP3    H172151   3.149   4.328   1.720 -0.8290 -1.0678 -0.1058
16912TIP3    H272152   3.277   4.292   1.792 -0.7979 -1.2339 -0.2436
16913TIP3   OH272153   3.289   4.448  15.824  0.0504  0.0044 -0.1328
16913TIP3    H172154   3.198   4.450  15.795  0.3356 -0.7458 -1.1363
16913TIP3    H272155   3.339   4.475  15.747  0.7599 -0.9046 -0.0052
16914TIP3   OH272156   1.201   3.582   5.463  0.4691 -0.0949  0.1631
16914TIP3    H172157   1.132   3.582   5.397  1.3143  0.2342 -0.7570
16914TIP3    H272158   1.230   3.673   5.466  1.2087 -0.3231  0.1453
16915TIP3   OH272159   5.235   2.680  13.004 -0.5856  0.1525 -0.6718
16915TIP3    H172160   5.230   2.604  13.062 -2.5704  0.5537 -0.2428
16915TIP3    H272161   5.329   2.697  12.995 -0.0940  1.1928  3.9518
16916TIP3   OH272162   0.772   1.906  14.953 -0.2566 -0.4017  0.0272
16916TIP3    H172163   0.806   1.965  15.020  1.4050 -1.5148  0.2393
16916TIP3    H272164   0.793   1.949  14.870 -1.5629  0.5791  0.1708
16917TIP3   OH272165   2.301   0.292   3.026 -0.4080 -0.2426  0.1102
16917TIP3    H172166   2.317   0.366   3.084  0.7246  1.2640 -2.0149
16917TIP3    H272167   2.388   0.269   2.991 -0.6347 -2.9483  1.0717
16918TIP3   OH272168   0.404   4.067   1.297 -0.1491  0.2024 -0.1046
16918TIP3    H172169   0.341   4.056   1.368  1.7921 -2.5323  1.3822
16918TIP3    H272170   0.356   4.039   1.219 -1.1989 -0.4752  0.7426
16919TIP3   OH272171   0.818   5.789   0.324 -0.3414 -0.0461 -0.1207
16919TIP3    H172172   0.743   5.832   0.366  1.0655  2.4161  0.0132
16919TIP3    H272173   0.891   5.848   0.338  1.4892 -1.9725 -0.9948
16920TIP3   OH272174   6.529   3.004  11.557  0.0374  0.0689 -0.0366
16920TIP3    H172175   6.511   3.069  11.625 -1.0425 -0.8257  0.5656
16920TIP3    H272176   6.595   2.946  11.596 -0.8284 -0.6420  0.4016
16921TIP3   OH272177   0.238   0.180   0.680  0.0073  0.0003 -0.0281
16921TIP3    H172178   0.233   0.243   0.607 -1.2289  1.8991  1.5791
16921TIP3    H272179   0.148   0.174   0.712  0.1936 -2.2485  0.2262
16922TIP3   OH272180   1.331   3.496   1.528  0.3767 -0.3658  0.5070
16922TIP3    H172181   1.362   3.533   1.445  0.2077 -0.7895  0.2542
16922TIP3    H272182   1.400   3.435   1.554 -0.1695 -1.2144  0.0093
16923TIP3   OH272183   4.071   0.716   1.692 -0.3799 -0.2216 -0.1347
16923TIP3    H172184   4.150   0.719   1.638  1.5000  1.0214  2.4395
16923TIP3    H272185   4.035   0.805   1.688  0.2236  0.1120  1.1534
16924TIP3   OH272186   3.919   2.537  16.572  0.0825  0.0588  1.0565
16924TIP3    H172187   3.960   2.469  16.520 -2.1308 -0.4779 -0.1245
16924TIP3    H272188   3.964   2.534  16.656  1.6184 -1.2149  0.2408
16925TIP3   OH272189   2.629   0.089  12.351  0.2743 -0.5646  0.6180
16925TIP3    H172190   2.672   0.162  12.395  1.3653 -1.6874  1.4811
16925TIP3    H272191   2.664   0.011  12.394  0.5445 -1.6787 -1.4936
16926TIP3   OH272192   4.065   1.178   2.729 -0.7707  0.1064 -0.3058
16926TIP3    H172193   4.077   1.259   2.679 -1.3479  1.1303  1.1376
16926TIP3    H272194   4.007   1.202   2.801  0.7152 -1.0360  1.3945
16927TIP3   OH272195   1.863   2.703  15.089  0.8581  0.0604 -0.0361
16927TIP3    H172196   1.840   2.658  15.008  2.0974 -1.2892  0.3256
16927TIP3    H272197   1.782   2.744  15.117 -0.2527 -1.6529 -0.5859
16928TIP3   OH272198   0.899   2.528   3.319 -0.4789 -0.1907 -0.1130
16928TIP3    H172199   0.911   2.622   3.325  1.7615 -0.3449 -1.0815
16928TIP3    H272200   0.952   2.492   3.391  0.2918 -0.7484 -0.9330
16929TIP3   OH272201   1.954   3.150  11.801  0.2186 -0.2332 -0.3724
16929TIP3    H172202   1.921   3.235  11.772 -0.1282 -0.9040 -2.0793
16929TIP3    H272203   2.023   3.128  11.738  3.5777  0.7690  2.6264
16930TIP3   OH272204   5.264   0.072   5.348  0.0843 -0.3123 -0.2936
16930TIP3    H172205   5.213   0.008   5.400  1.6049 -0.6521  0.8635
16930TIP3    H272206   5.301   0.131   5.414  1.4808 -0.3196 -1.0384
16931TIP3   OH272207   6.267   1.995  16.606  0.5920 -0.3027 -0.0167
16931TIP3    H172208   6.283   2.068  16.547 -0.5748  0.5410  0.6682
16931TIP3    H272209   6.172   1.996  16.621  0.7793 -0.8603  1.3864
16932TIP3   OH272210   4.804   2.739  14.412 -0.3073  0.6495 -0.1861
16932TIP3    H172211   4.846   2.658  14.441 -0.8571 -0.1250 -1.4806
16932TIP3    H272212   4.803   2.795  14.490  0.5275 -0.3930  0.5984
16933TIP3   OH272213   2.847   5.802  12.477 -0.2382 -0.6248 -0.0421
16933TIP3    H172214   2.935   5.833  12.453 -0.2605 -0.5163  0.0139
16933TIP3    H272215   2.798   5.883  12.494  0.2208 -0.7311  1.9661
16934TIP3   OH272216   1.459   4.135  12.210 -0.2048  0.3349 -0.2447
16934TIP3    H172217   1.393   4.165  12.147 -2.0346 -0.8819  0.9672
16934TIP3    H272218   1.451   4.040  12.210  0.3293  0.2594  1.1752
16935TIP3   OH272219   6.133   3.828  12.289 -0.6290  1.0087  0.3547
16935TIP3    H172220   6.192   3.785  12.226  0.7444  0.6445  1.8278
16935TIP3    H272221   6.046   3.818  12.250  0.1674  0.7953 -1.4746
16936TIP3   OH272222   0.242   1.840   5.107  0.1166 -0.2040  0.0264
16936TIP3    H172223   0.265   1.821   5.016 -0.7377  1.2697 -0.5455
16936TIP3    H272224   0.170   1.780   5.127  0.8359 -1.0881  0.0162
16937TIP3   OH272225   0.473   3.362  11.880 -0.3382  0.0060 -0.2000
16937TIP3    H172226   0.447   3.290  11.938 -0.0072 -0.7268 -0.9494
16937TIP3    H272227   0.527   3.418  11.936 -0.3609 -0.4741  0.3184
16938TIP3   OH272228   5.539   4.723   0.746  0.0949  0.2589  0.1857
16938TIP3    H172229   5.518   4.775   0.668 -2.0339 -0.7742 -0.0071
16938TIP3    H272230   5.583   4.646   0.712  0.2649  0.3768  0.1356
16939TIP3   OH272231   1.611   3.960   1.772  0.6755 -0.4269 -0.1597
16939TIP3    H172232   1.615   3.880   1.720  0.9110 -2.1794  2.3913
16939TIP3    H272233   1.536   4.008   1.735  1.4349 -1.0293 -2.7080
16940TIP3   OH272234   6.421   0.433   5.947 -0.3512  0.1006 -0.4094
16940TIP3    H172235   6.490   0.496   5.968 -1.6704  1.4258  0.1456
16940TIP3    H272236   6.340   0.484   5.950 -1.2968 -1.2195 -1.8479
16941TIP3   OH272237   5.660   6.539   3.026 -0.3330 -0.2416 -0.2494
16941TIP3    H172238   5.679   6.569   3.115  0.0962  1.9568 -1.0374
16941TIP3    H272239   5.725   6.471   3.010  2.2123  2.0202 -0.2142
16942TIP3   OH272240   6.267   4.679  12.544 -0.0034  0.4200 -0.2267
16942TIP3    H172241   6.285   4.594  12.505 -2.6180 -0.5318  0.4177
16942TIP3    H272242   6.237   4.733  12.471  3.3332  1.4578 -0.9707
16943TIP3   OH272243   5.238   0.307  15.296  0.7089  0.7445 -0.2271
16943TIP3    H172244   5.156   0.293  15.342  1.4982  0.5349  1.1845
16943TIP3    H272245   5.264   0.396  15.321  0.6228  1.0532 -1.1737
16944TIP3   OH272246   5.878   6.301  11.934 -0.6609  1.0747 -0.1576
16944TIP3    H172247   5.804   6.246  11.959 -1.1071  0.5224 -2.3931
16944TIP3    H272248   5.847   6.349  11.857  1.2509  0.9119 -1.0958
16945TIP3   OH272249   4.409   2.575  14.582 -0.2516  0.0982 -0.4852
16945TIP3    H172250   4.420   2.498  14.639 -0.5359 -0.2497 -0.8968
16945TIP3    H272251   4.388   2.538  14.496 -0.8722  0.6493 -0.5771
16946TIP3   OH272252   0.360   5.436   2.069  0.4122  0.2810  0.2936
16946TIP3    H172253   0.431   5.378   2.044 -0.5609 -0.3282 -1.2247
16946TIP3    H272254   0.390   5.523   2.043 -0.1421 -0.2130 -2.2298
16947TIP3   OH272255   4.649   0.406   1.608  0.1029  0.4222  0.2403
16947TIP3    H172256   4.665   0.388   1.515 -2.7839 -1.5140 -0.0277
16947TIP3    H272257   4.728   0.376   1.653  1.8287  1.9978 -1.5635
16948TIP3   OH272258   2.773   2.210  13.272 -0.1968  0.8398 -0.4288
16948TIP3    H172259   2.734   2.291  13.305  0.0700  0.3153  1.2661
16948TIP3    H272260   2.840   2.239  13.210  0.6264  1.9833  0.9399
16949TIP3   OH272261   4.444   3.830  12.518  0.6013 -0.3020 -0.0995
16949TIP3    H172262   4.425   3.923  12.501  0.7895 -0.1106  0.7016
16949TIP3    H272263   4.521   3.812  12.463 -0.1003 -0.2973 -1.1162
16950TIP3   OH272264   4.478   2.764  10.363  0.2003  0.2490  0.0476
16950TIP3    H172265   4.444   2.684  10.322 -1.0058 -0.5602  2.4560
16950TIP3    H272266   4.489   2.825  10.290  2.6260 -2.5029 -2.1715
16951TIP3   OH272267   4.591   4.003  11.213 -0.1343 -0.4581 -0.9120
16951TIP3    H172268   4.560   3.919  11.179  0.8304 -0.7403 -1.1476
16951TIP3    H272269   4.555   4.068  11.153  1.2796 -0.9258 -2.3376
16952TIP3   OH272270   2.695   1.882  15.443  0.5807  0.3647 -0.2210
16952TIP3    H172271   2.761   1.927  15.496  0.4227 -0.3544  0.6064
16952TIP3    H272272   2.612   1.921  15.470  0.4889 -0.0832  0.1527
16953TIP3   OH272273   5.102   0.981   0.599 -0.4206  0.0323  0.2487
16953TIP3    H172274   5.013   0.962   0.570 -0.2238 -1.8027  0.7122
16953TIP3    H272275   5.093   1.003   0.692 -0.4788  0.8356  0.0628
16954TIP3   OH272276   3.229   1.055  11.756  0.1846 -0.1499 -0.3165
16954TIP3    H172277   3.151   1.001  11.772  0.9471 -1.0486  0.4654
16954TIP3    H272278   3.238   1.108  11.836  0.2088  0.1730 -0.5316
16955TIP3   OH272279   6.831   2.919  16.160  0.5490 -0.0849 -0.0881
16955TIP3    H172280   6.792   2.875  16.235 -2.0797 -3.7877 -3.2609
16955TIP3    H272281   6.802   3.010  16.168 -0.4875 -0.5556  2.7223
16956TIP3   OH272282   5.661   5.268  12.637  0.2721 -0.1721  0.2458
16956TIP3    H172283   5.635   5.177  12.645  0.5430 -0.2219  0.5995
16956TIP3    H272284   5.628   5.295  12.551 -0.5452 -0.3533  0.4906
16957TIP3   OH272285   5.942   0.388   4.360 -0.1219 -0.2458  0.1341
16957TIP3    H172286   5.987   0.304   4.373  1.1066  0.0197 -1.9662
16957TIP3    H272287   5.993   0.432   4.293 -1.9792  1.2905 -0.3522
16958TIP3   OH272288   1.090   2.943  11.324  0.2511  0.6399 -0.1549
16958TIP3    H172289   1.185   2.937  11.331  0.0959 -0.3097  1.8542
16958TIP3    H272290   1.071   3.037  11.334  0.9446  0.7886 -0.2133
16959TIP3   OH272291   0.049   2.693   9.974  0.3289  0.3729  0.8849
16959TIP3    H172292   0.094   2.646   9.904 -0.4653 -0.1706  0.7221
16959TIP3    H272293   0.001   2.763   9.929  1.3273  1.2099  1.1022
16960TIP3   OH272294   3.542   6.518   1.856  0.6189 -0.2951 -0.1908
16960TIP3    H172295   3.446   6.515   1.852  0.5580  0.4301  0.3775
16960TIP3    H272296   3.568   6.562   1.775  0.5371 -1.2333 -0.7449
16961TIP3   OH272297   4.630   0.764   1.292 -0.3745 -0.6000  0.6620
16961TIP3    H172298   4.554   0.800   1.337 -0.8443 -1.6824  0.7696
16961TIP3    H272299   4.676   0.714   1.359 -0.7368 -1.6969  0.1218
16962TIP3   OH272300   0.037   2.581  16.465 -0.0905 -0.2479 -0.0558
16962TIP3    H172301   0.053   2.578  16.559  1.9605 -0.8822 -0.3818
16962TIP3    H272302   0.124   2.582  16.426 -0.8336  2.4558 -1.9250
16963TIP3   OH272303   1.019   1.526  14.119 -0.3584  0.2669 -0.2646
16963TIP3    H172304   1.081   1.524  14.046 -0.0198  1.6552 -0.0496
16963TIP3    H272305   0.935   1.547  14.078 -0.4844 -0.5615 -0.4358
16964TIP3   OH272306   1.088   4.631  12.808 -0.5151 -0.2617 -0.0507
16964TIP3    H172307   0.996   4.620  12.831 -0.1668  0.1957  1.7339
16964TIP3    H272308   1.122   4.690  12.875  1.0849 -0.4390 -0.6696
16965TIP3   OH272309   2.710   4.732  12.588 -0.0562  0.1260 -0.3101
16965TIP3    H172310   2.769   4.657  12.591  1.0494  0.9819  1.9985
16965TIP3    H272311   2.649   4.717  12.660  0.0047  1.2687  0.0109
16966TIP3   OH272312   5.523   4.795  12.684 -0.1091 -0.0205 -1.0530
16966TIP3    H172313   5.457   4.727  12.693  1.5316 -1.6807 -0.9522
16966TIP3    H272314   5.544   4.820  12.774  0.0881 -0.1769 -1.0563
16967TIP3   OH272315   3.517   5.405  16.343  0.2217  0.6407  0.2098
16967TIP3    H172316   3.584   5.413  16.276  0.0988  0.0620  0.0149
16967TIP3    H272317   3.524   5.315  16.374 -0.7202  0.4572 -0.0884
16968TIP3   OH272318   6.013   0.635  15.774  0.1709 -0.3403 -0.4359
16968TIP3    H172319   6.090   0.640  15.718  0.3121  1.8357 -0.1019
16968TIP3    H272320   5.955   0.573  15.728  1.9454 -1.8085 -0.8192
16969TIP3   OH272321   4.933   3.579  14.292 -0.4688 -0.1443  0.2790
16969TIP3    H172322   4.957   3.607  14.380 -2.0060  0.2322  0.6034
16969TIP3    H272323   4.937   3.658  14.239 -2.6465  0.3493  0.7305
16970TIP3   OH272324   1.354   0.005  15.360  0.1242  0.5069  0.5516
16970TIP3    H172325   1.265  -0.028  15.369 -0.2392  1.3181  0.0221
16970TIP3    H272326   1.390  -0.000  15.448 -0.4787  0.2684  0.7902
16971TIP3   OH272327   4.276   6.863   5.087 -0.0080  0.3648 -0.2815
16971TIP3    H172328   4.207   6.914   5.127  2.1083  2.2798  1.1626
16971TIP3    H272329   4.339   6.928   5.055  2.5802 -1.2255  1.2102
16972TIP3   OH272330   3.755   2.182   0.054 -0.7536 -0.7995 -0.1807
16972TIP3    H172331   3.833   2.132   0.080  1.8550  2.7294 -0.5208
16972TIP3    H272332   3.759   2.184  -0.041 -1.2282 -0.5489 -0.1946
16973TIP3   OH272333   3.828   3.952  13.135 -0.1535 -0.3963 -0.9085
16973TIP3    H172334   3.765   4.008  13.179  0.1166 -0.7256 -0.0767
16973TIP3    H272335   3.842   3.879  13.195  0.0990 -0.9506 -1.6196
16974TIP3   OH272336   3.794   1.673  15.443  0.2819 -0.1259  0.0953
16974TIP3    H172337   3.838   1.641  15.522  1.9184  1.1468 -0.2611
16974TIP3    H272338   3.741   1.747  15.473 -0.4152 -0.6839  0.2622
16975TIP3   OH272339   1.233   1.399   1.258 -0.0749  0.0847  0.2734
16975TIP3    H172340   1.193   1.479   1.292 -0.4977 -0.3196  0.7411
16975TIP3    H272341   1.306   1.430   1.204 -2.1752  0.9407 -2.2763
16976TIP3   OH272342   2.558   0.361   4.147 -0.1497 -0.1545  0.6662
16976TIP3    H172343   2.641   0.373   4.193  0.9371 -0.1010 -1.1994
16976TIP3    H272344   2.574   0.287   4.088 -0.2654  1.8795 -2.1202
16977TIP3   OH272345   5.663   3.044   2.511 -0.0106  0.5688  0.4330
16977TIP3    H172346   5.664   3.034   2.416  2.1254 -0.4905  0.5068
16977TIP3    H272347   5.750   3.079   2.533  1.0653 -2.7738  2.2388
16978TIP3   OH272348   1.104   2.681  15.161  0.6555  0.1349  0.0508
16978TIP3    H172349   1.074   2.590  15.161 -0.3199  0.4456 -0.2253
16978TIP3    H272350   1.053   2.724  15.093  3.0093  0.3041 -1.7517
16979TIP3   OH272351   4.643   2.458   4.174 -0.4122 -0.1601  0.5987
16979TIP3    H172352   4.697   2.407   4.235 -1.8843 -2.4473  0.1072
16979TIP3    H272353   4.692   2.540   4.162  1.3069 -0.7865  2.6360
16980TIP3   OH272354   3.922   3.577   0.940 -0.5962  0.0238 -0.2247
16980TIP3    H172355   3.907   3.535   1.024  1.4694  0.8906  0.6242
16980TIP3    H272356   3.871   3.658   0.944  0.7841  0.8771  0.9050
16981TIP3   OH272357   6.251   6.873  15.967 -0.7591  0.5239  0.2441
16981TIP3    H172358   6.345   6.888  15.959 -0.2713 -1.3428  1.8755
16981TIP3    H272359   6.238   6.783  15.937 -1.6994  0.0929  1.8392
16982TIP3   OH272360   1.637   3.435   0.347  0.6076 -0.3324  0.0181
16982TIP3    H172361   1.706   3.496   0.372 -0.2870  1.2936 -1.2909
16982TIP3    H272362   1.627   3.447   0.253 -1.0568 -0.9448  0.0819
16983TIP3   OH272363   0.889   0.597  13.008 -0.3053  0.1609 -0.1246
16983TIP3    H172364   0.908   0.507  13.034 -1.8466  0.2532  1.5441
16983TIP3    H272365   0.817   0.623  13.066  0.1340  2.4770 -0.5468
16984TIP3   OH272366   0.284   1.693  15.269 -0.6111 -0.3150 -0.0580
16984TIP3    H172367   0.245   1.622  15.218 -0.3346  0.9197 -2.0897
16984TIP3    H272368   0.378   1.680  15.259 -0.4386  2.3999 -3.7496
16985TIP3   OH272369   0.164   4.741   3.391 -0.1676  0.4348  0.3337
16985TIP3    H172370   0.154   4.693   3.473  0.3483  0.6278  0.5093
16985TIP3    H272371   0.237   4.699   3.347  0.4980  1.2568  0.6377
16986TIP3   OH272372   3.970   6.071   3.083 -0.2360  0.1649 -0.3804
16986TIP3    H172373   3.900   6.077   3.148 -0.6676 -1.3934 -0.6766
16986TIP3    H272374   4.021   6.151   3.096  0.9695 -0.9949  3.3103
16987TIP3   OH272375   4.749   4.112  14.856 -0.0283 -0.1161 -0.0066
16987TIP3    H172376   4.686   4.071  14.797  0.6438 -0.6023 -0.4007
16987TIP3    H272377   4.794   4.177  14.801  1.7364 -1.6952 -0.5112
16988TIP3   OH272378   6.866   3.809   1.689 -0.2113 -0.2168  0.1173
16988TIP3    H172379   6.873   3.895   1.728 -0.1051 -0.0955 -0.1645
16988TIP3    H272380   6.793   3.767   1.735 -1.1918  0.5378 -0.7045
16989TIP3   OH272381   2.275   6.754  15.579 -0.1918 -0.0283 -0.0174
16989TIP3    H172382   2.295   6.801  15.659  0.8555  0.3584 -0.4940
16989TIP3    H272383   2.201   6.697  15.602  0.6944 -0.6140  1.4546
16990TIP3   OH272384   2.575   0.029   1.830 -0.4922  0.3420 -0.0512
16990TIP3    H172385   2.650   0.068   1.874 -2.3311  3.6932  0.4625
16990TIP3    H272386   2.586   0.053   1.738 -0.9862  1.0608  0.0636
16991TIP3   OH272387   6.194   4.662   3.226  0.1136  0.0631  0.0496
16991TIP3    H172388   6.241   4.723   3.283  0.2247 -0.5480  0.6166
16991TIP3    H272389   6.255   4.645   3.153  1.3055 -1.6464  1.3652
16992TIP3   OH272390   4.153   6.417   4.064  0.0799  0.2537 -0.3204
16992TIP3    H172391   4.191   6.435   4.150 -1.3849  0.3862  0.3236
16992TIP3    H272392   4.201   6.341   4.033  0.3484 -0.0640  0.8038
16993TIP3   OH272393   4.042   6.034   4.081 -0.3443 -0.1199  0.0868
16993TIP3    H172394   4.082   5.956   4.041 -1.1315 -0.1897 -0.5780
16993TIP3    H272395   4.052   6.020   4.175  0.2303 -0.6441 -0.0415
16994TIP3   OH272396   4.404   1.627  13.923 -0.0995  0.6000 -0.1593
16994TIP3    H172397   4.455   1.580  13.856 -1.1566  0.6305 -1.0189
16994TIP3    H272398   4.341   1.562  13.954  0.4495  0.5564  0.9104
16995TIP3   OH272399   6.672   4.267  15.711 -0.0598 -0.0134  0.1035
16995TIP3    H172400   6.669   4.338  15.647  2.9311 -0.2000 -0.3515
16995TIP3    H272401   6.707   4.308  15.791 -1.1796 -0.3752  0.8085
16996TIP3   OH272402   0.808   2.042  15.629  0.5647  0.5028  0.0992
16996TIP3    H172403   0.853   2.089  15.699  1.6557  0.5809 -0.6271
16996TIP3    H272404   0.774   2.111  15.572 -1.4777  0.4844  1.1911
16997TIP3   OH272405   2.932   1.870  13.529  0.0087 -0.7686  0.1081
16997TIP3    H172406   2.953   1.961  13.508  0.6615 -1.0304 -0.4392
16997TIP3    H272407   2.860   1.875  13.592  0.1147  0.1229  0.1663
16998TIP3   OH272408   0.904   0.126   5.856 -0.2662 -0.1430  0.3803
16998TIP3    H172409   0.909   0.067   5.782 -0.5246  0.2170  0.0729
16998TIP3    H272410   0.919   0.071   5.933 -0.3263 -0.5692  0.0825
16999TIP3   OH272411   5.026   3.068  11.920 -0.1152  0.1880 -0.0506
16999TIP3    H172412   4.933   3.059  11.897  0.0814  0.2199 -0.8704
16999TIP3    H272413   5.036   3.161  11.940  0.3158  0.7521 -2.6255
17000TIP3   OH272414   2.009   1.234   2.597 -0.7009  0.1659 -0.2203
17000TIP3    H172415   2.041   1.276   2.677 -1.3465  0.0729  0.0876
17000TIP3    H272416   2.016   1.302   2.530  0.0261  0.1833 -0.1323
17001TIP3   OH272417   6.242   0.070   2.994  0.0872 -0.2105 -0.5253
17001TIP3    H172418   6.185   0.103   2.924 -0.1189 -0.9989 -0.7457
17001TIP3    H272419   6.184   0.063   3.070 -0.0838 -0.8443 -0.7029
17002TIP3   OH272420   5.616   1.683   4.292  0.4591 -1.1089 -0.5199
17002TIP3    H172421   5.630   1.694   4.198 -0.1101 -2.8823 -0.8464
17002TIP3    H272422   5.531   1.640   4.299 -0.6028  1.0163  0.9517
17003TIP3   OH272423   1.435   5.734   2.088 -0.0707 -0.2635 -0.7938
17003TIP3    H172424   1.427   5.639   2.079 -2.2082 -0.4250  1.6413
17003TIP3    H272425   1.489   5.746   2.165 -2.8396  0.3003  1.2146
17004TIP3   OH272426   1.299   1.300  10.550 -0.3438 -0.0915 -0.0915
17004TIP3    H172427   1.257   1.367  10.497 -0.0903  1.1437  1.1989
17004TIP3    H272428   1.298   1.221  10.495  1.2464  1.4445 -2.4870
17005TIP3   OH272429   4.964   5.810   1.057 -0.3197  0.2438 -0.4223
17005TIP3    H172430   4.976   5.877   1.124  0.4344 -0.2563 -0.0387
17005TIP3    H272431   4.879   5.830   1.018  0.6217  2.4409 -1.4979
17006TIP3   OH272432   1.805   2.373  10.362  0.1024  0.1014  0.3694
17006TIP3    H172433   1.863   2.344  10.432 -1.7100 -1.4624  1.3257
17006TIP3    H272434   1.767   2.293  10.328 -0.6407  0.9991 -1.0077
17007TIP3   OH272435   5.466   0.445  14.234  0.5405 -0.4114  0.0175
17007TIP3    H172436   5.401   0.412  14.172  3.3885 -0.8204 -3.0518
17007TIP3    H272437   5.527   0.372  14.246  2.1298  0.8940  0.2366
17008TIP3   OH272438   1.377   3.724  13.843 -0.1984 -0.1489  0.0720
17008TIP3    H172439   1.298   3.685  13.806 -0.4804 -0.4126  0.9358
17008TIP3    H272440   1.345   3.787  13.907  0.2839  0.0317  0.1390
17009TIP3   OH272441   4.191   1.605   5.157 -0.4120  1.0166 -0.2457
17009TIP3    H172442   4.144   1.549   5.218 -1.1234  0.7040 -1.0602
17009TIP3    H272443   4.162   1.576   5.070  1.3644  0.7374 -0.7926
17010TIP3   OH272444   4.574   6.660  12.076 -0.4431  0.2515 -0.0935
17010TIP3    H172445   4.543   6.626  12.160  0.7731 -0.8132 -0.0570
17010TIP3    H272446   4.588   6.582  12.022 -1.3816  0.9244 -1.3687
17011TIP3   OH272447   2.790   0.562  12.274  0.1895 -0.0521  0.1309
17011TIP3    H172448   2.848   0.634  12.296 -0.9968  0.9368  0.1069
17011TIP3    H272449   2.724   0.600  12.216 -0.7087 -1.0361  0.4675
17012TIP3   OH272450   2.324   0.449  12.599  0.4188 -0.1621 -0.1021
17012TIP3    H172451   2.401   0.465  12.545 -0.5496 -1.8804 -2.1395
17012TIP3    H272452   2.250   0.467  12.540 -0.8136  1.6428  1.8385
17013TIP3   OH272453   5.057   3.518  13.712 -0.6577  0.0238  0.0606
17013TIP3    H172454   5.129   3.500  13.773  1.1661  1.9004 -1.4127
17013TIP3    H272455   5.096   3.513  13.625 -2.0462  2.0509 -0.7609
17014TIP3   OH272456   3.003   3.955   0.564 -0.0460 -0.4037  0.1033
17014TIP3    H172457   3.050   3.968   0.647  1.2274  0.2284 -0.6911
17014TIP3    H272458   3.063   3.988   0.497 -0.7060 -1.6965 -1.1631
17015TIP3   OH272459   5.454   5.031  14.672  0.2913  0.5272  0.2283
17015TIP3    H172460   5.534   4.979  14.681  0.7735  1.3579  0.9111
17015TIP3    H272461   5.483   5.113  14.633 -0.5189  0.1675 -1.2016
17016TIP3   OH272462   0.950   1.225  12.962  0.0876  0.0404  0.1438
17016TIP3    H172463   1.028   1.275  12.940  1.9610 -2.6382  0.2058
17016TIP3    H272464   0.891   1.289  13.001  1.6167  2.4709 -1.2285
17017TIP3   OH272465   6.373   4.349   1.081  0.7475 -0.2103 -0.5345
17017TIP3    H172466   6.360   4.438   1.050 -0.6708 -0.1953  0.0222
17017TIP3    H272467   6.284   4.312   1.086  1.2965 -1.6225 -0.6659
17018TIP3   OH272468   6.269   6.577   0.704 -1.2021  0.8288  0.2150
17018TIP3    H172469   6.255   6.613   0.791 -0.4831 -0.5757  0.9406
17018TIP3    H272470   6.292   6.485   0.719 -0.6124  0.6744 -1.4274
17019TIP3   OH272471   6.653   1.781  13.558  0.0944  0.2409 -0.1920
17019TIP3    H172472   6.722   1.728  13.598 -0.0727  0.1683  0.0036
17019TIP3    H272473   6.634   1.848  13.623 -0.4026 -0.0683 -0.0082
17020TIP3   OH272474   0.101   0.992   5.479  0.6234  0.2553  0.0905
17020TIP3    H172475   0.041   1.067   5.472  0.4362  0.1058  0.1032
17020TIP3    H272476   0.110   0.978   5.574 -1.3851 -1.3759  0.1016
17021TIP3   OH272477   4.954   6.170  16.219 -0.2039 -0.1240 -0.1177
17021TIP3    H172478   4.919   6.225  16.149  1.2047  0.0948 -0.6778
17021TIP3    H272479   4.932   6.217  16.299  2.5032  2.3033 -0.6333
17022TIP3   OH272480   0.899   0.230   3.749 -0.0365  0.0087 -0.5108
17022TIP3    H172481   0.976   0.245   3.804 -0.3276  0.4604 -0.2204
17022TIP3    H272482   0.931   0.241   3.659  0.2608  0.0871 -0.3951
17023TIP3   OH272483   4.324   2.006  15.668 -0.4853  0.1867 -0.3046
17023TIP3    H172484   4.399   1.947  15.679 -2.9445 -2.8835  2.1013
17023TIP3    H272485   4.270   1.963  15.601 -1.5697  0.5345  0.3230
17024TIP3   OH272486   5.491   3.030  10.845  0.2454 -0.1133  0.1352
17024TIP3    H172487   5.538   3.105  10.882  1.4927 -0.4448 -0.7143
17024TIP3    H272488   5.415   3.068  10.801  0.7936  0.6440 -0.1700
17025TIP3   OH272489   5.929   1.589   2.959  0.2376  0.4122 -0.0202
17025TIP3    H172490   5.864   1.650   2.924 -1.1793 -1.1880 -0.3334
17025TIP3    H272491   5.903   1.576   3.050 -0.8149 -1.2986 -0.5103
17026TIP3   OH272492   4.080   4.957  14.090  0.2774  0.4021 -0.2828
17026TIP3    H172493   4.034   4.984  14.010 -1.2906 -1.9666 -0.2922
17026TIP3    H272494   4.171   4.945  14.063 -0.0621  0.4836 -1.5184
17027TIP3   OH272495   2.043   1.460  14.880  0.5066 -0.0968 -0.3191
17027TIP3    H172496   2.105   1.450  14.953  0.5292 -0.3620 -0.3734
17027TIP3    H272497   2.088   1.421  14.805 -0.4184 -1.9328  0.0170
17028TIP3   OH272498   5.938   0.770  11.764 -0.5076 -0.4027  0.0280
17028TIP3    H172499   5.852   0.799  11.793 -0.8444 -0.8218 -0.5331
17028TIP3    H272500   5.931   0.766  11.668  1.0251  2.4241 -0.3048
17029TIP3   OH272501   5.437   6.596   4.903 -0.5836 -0.1711 -0.1938
17029TIP3    H172502   5.341   6.593   4.901 -0.7736  1.3728  2.2047
17029TIP3    H272503   5.458   6.688   4.886  0.3910 -0.2515  0.5076
17030TIP3   OH272504   3.053   5.606   5.716 -1.0266  0.2541 -0.5371
17030TIP3    H172505   3.098   5.595   5.800 -0.4162  1.4763 -0.6731
17030TIP3    H272506   2.976   5.550   5.722 -0.8297  0.0957  0.7174
17031TIP3   OH272507   1.330   4.991   2.226 -0.0765  0.5193 -0.1795
17031TIP3    H172508   1.262   4.943   2.271 -0.0760  2.2972  1.8565
17031TIP3    H272509   1.311   4.978   2.133 -0.2207 -3.0612  0.2249
17032TIP3   OH272510   0.056   4.365  13.499  0.1110 -0.2095 -0.9746
17032TIP3    H172511   0.004   4.296  13.542 -0.8644  0.2115 -1.4372
17032TIP3    H272512   0.142   4.360  13.541 -0.4528 -0.5989  0.1925
17033TIP3   OH272513   1.819   5.502   5.410 -0.2323  0.1247 -0.5696
17033TIP3    H172514   1.888   5.442   5.437 -0.3833  1.0701  2.1661
17033TIP3    H272515   1.754   5.445   5.367  0.6129 -1.3226 -0.0073
17034TIP3   OH272516   2.983   3.243   6.795  0.4968 -0.3055  0.2798
17034TIP3    H172517   3.067   3.222   6.753  0.9861  0.4233  0.8624
17034TIP3    H272518   2.936   3.295   6.730  1.4827  1.3021  0.8024
17035TIP3   OH272519   2.401   1.066  16.248 -0.2078  0.2411 -0.4878
17035TIP3    H172520   2.351   1.031  16.322 -0.9594 -0.6647 -1.3896
17035TIP3    H272521   2.481   1.014  16.246 -0.8160 -0.7035 -1.1359
17036TIP3   OH272522   4.577   5.358   3.994  0.6491 -0.4245 -0.5912
17036TIP3    H172523   4.539   5.274   4.020 -1.2028  0.1747 -1.1767
17036TIP3    H272524   4.607   5.345   3.905  1.8326 -0.8894 -0.1427
17037TIP3   OH272525   3.185   5.397   5.248 -0.1166 -0.5278 -0.2989
17037TIP3    H172526   3.158   5.414   5.158 -1.7510 -2.6485 -0.2925
17037TIP3    H272527   3.276   5.369   5.241 -0.0386 -0.0907 -1.2090
17038TIP3   OH272528   5.135   4.261  16.249  0.0217  0.0189  0.3814
17038TIP3    H172529   5.064   4.211  16.211  0.1098 -0.4137  0.7757
17038TIP3    H272530   5.137   4.342  16.200 -0.1326 -0.3618 -0.2576
17039TIP3   OH272531   1.771   4.760  15.607 -0.4271 -0.2191  0.0519
17039TIP3    H172532   1.757   4.854  15.598 -0.0818 -0.1033  0.6892
17039TIP3    H272533   1.863   4.752  15.634 -0.3342 -0.7620 -0.4022
17040TIP3   OH272534   3.441   5.892   1.646 -0.0238 -0.1334  0.0101
17040TIP3    H172535   3.521   5.840   1.639  0.4055  0.3063  1.3448
17040TIP3    H272536   3.375   5.841   1.598  0.6602 -1.3315  0.2904
17041TIP3   OH272537   6.146   1.104   2.089 -0.0118  0.5644 -0.6512
17041TIP3    H172538   6.207   1.049   2.040  1.1069  1.4369 -0.2749
17041TIP3    H272539   6.172   1.193   2.068 -1.6734  0.9660 -1.0838
17042TIP3   OH272540   3.992   5.863  14.285 -0.2623 -0.0781  0.2350
17042TIP3    H172541   4.038   5.785  14.314  0.9708  0.1615 -1.0083
17042TIP3    H272542   3.904   5.854  14.323  0.7295 -0.5766  2.6077
17043TIP3   OH272543   2.269   5.835   2.818 -0.0256 -0.3492 -0.5288
17043TIP3    H172544   2.181   5.799   2.827 -0.9135  2.1335  2.3350
17043TIP3    H272545   2.325   5.772   2.863 -0.0533 -2.3762 -3.0784
17044TIP3   OH272546   0.585   2.786   0.340 -0.0124  0.2626  0.0410
17044TIP3    H172547   0.615   2.791   0.430  0.7918 -0.6926 -0.1550
17044TIP3    H272548   0.663   2.806   0.288 -0.0856 -0.7276 -0.4577
17045TIP3   OH272549   1.389   1.228   3.312  0.1773 -0.3328  0.0259
17045TIP3    H172550   1.327   1.159   3.288 -0.8657  0.3087  0.8247
17045TIP3    H272551   1.387   1.289   3.239 -0.7464  0.0988  0.4102
17046TIP3   OH272552   1.003   3.438  14.830 -0.0674 -0.1105 -0.5202
17046TIP3    H172553   0.981   3.531  14.821 -1.1856 -0.4603 -1.8643
17046TIP3    H272554   1.010   3.423  14.924 -2.4518  0.7937 -0.1321
17047TIP3   OH272555   4.227   0.665   5.978  0.0727  0.0191  0.5374
17047TIP3    H172556   4.208   0.582   6.022 -0.1822  0.6750  1.7072
17047TIP3    H272557   4.305   0.646   5.926 -0.3591 -1.1231  0.2575
17048TIP3   OH272558   4.691   5.510   3.318  0.4916  0.3404  0.0595
17048TIP3    H172559   4.639   5.529   3.396 -1.7779 -0.6101 -1.1510
17048TIP3    H272560   4.728   5.424   3.334 -0.6503 -0.2162 -0.2269
17049TIP3   OH272561   1.435   1.072  15.166 -0.0338 -0.2716  0.3872
17049TIP3    H172562   1.345   1.103  15.178 -1.4141 -2.9707 -1.7718
17049TIP3    H272563   1.451   1.017  15.243 -1.3142 -1.8306 -0.3829
17050TIP3   OH272564   6.523   5.060  14.696  1.0172  0.7279 -0.2114
17050TIP3    H172565   6.454   5.027  14.639  0.0997 -0.7081  1.6167
17050TIP3    H272566   6.603   5.049  14.646  0.1403  0.6548 -1.6531
17051TIP3   OH272567   3.377   5.421  10.850  0.2178  0.0785  0.2325
17051TIP3    H172568   3.429   5.501  10.841  0.3191  0.2224  1.7800
17051TIP3    H272569   3.439   5.356  10.884 -0.0720 -0.4198 -0.1789
17052TIP3   OH272570   2.454   2.063  11.096 -0.3195 -0.4957  0.3834
17052TIP3    H172571   2.450   2.155  11.067 -0.5146 -0.4378  0.5912
17052TIP3    H272572   2.378   2.053  11.152  0.3645 -0.4487  1.3339
17053TIP3   OH272573   3.975   1.276  10.406 -0.0951  0.3166 -0.4023
17053TIP3    H172574   3.908   1.337  10.439  0.6518  0.7514  0.3681
17053TIP3    H272575   4.041   1.333  10.366  0.8757  0.0903  0.8008
17054TIP3   OH272576   2.262   3.043  15.530  0.1251  0.3423 -0.2211
17054TIP3    H172577   2.259   3.031  15.435  0.3216  1.2322 -0.3502
17054TIP3    H272578   2.242   2.957  15.566 -2.9956  0.6068 -1.0509
17055TIP3   OH272579   3.027   5.311  11.517  0.2248  0.2060 -0.1109
17055TIP3    H172580   3.014   5.306  11.423  2.0428  0.6126 -0.4204
17055TIP3    H272581   2.995   5.228  11.551  0.5777 -0.3901 -1.2187
17056TIP3   OH272582   1.309   1.779   2.403 -0.3952  0.5229 -0.1419
17056TIP3    H172583   1.357   1.790   2.321 -1.3369  0.7529 -0.6740
17056TIP3    H272584   1.353   1.837   2.465 -0.2245  1.0245 -0.7213
17057TIP3   OH272585   2.167   5.075   1.817 -0.3844  0.6936  0.0516
17057TIP3    H172586   2.248   5.102   1.861 -1.4928  0.9854  1.9992
17057TIP3    H272587   2.164   4.980   1.830 -0.6478  0.7627  0.5040
17058TIP3   OH272588   2.979   2.652   2.128 -0.5993 -0.8527 -0.0657
17058TIP3    H172589   2.962   2.641   2.035  1.9972 -1.3104 -0.5514
17058TIP3    H272590   3.028   2.574   2.153  0.7486  0.3131  1.1213
17059TIP3   OH272591   2.649   1.728   0.876  0.5433 -0.8246 -0.0361
17059TIP3    H172592   2.596   1.732   0.797  1.7328  0.2015 -0.8107
17059TIP3    H272593   2.661   1.819   0.902  2.4751 -0.9755 -0.2647
17060TIP3   OH272594   1.042   6.717   3.457 -0.5619  0.1278 -0.4224
17060TIP3    H172595   1.096   6.780   3.505  0.0912 -1.7354  1.4096
17060TIP3    H272596   1.090   6.702   3.375  0.7640 -0.1053  0.3741
17061TIP3   OH272597   2.919   6.084  12.866  0.1895  0.3871 -0.1662
17061TIP3    H172598   2.932   6.176  12.846  0.8172  0.2926 -0.2337
17061TIP3    H272599   3.003   6.043  12.845 -0.7796 -0.6111 -2.4610
17062TIP3   OH272600   4.002   5.250  12.763  0.3267 -0.0713  0.2302
17062TIP3    H172601   4.040   5.328  12.802  0.0179  0.2888 -0.1860
17062TIP3    H272602   3.960   5.280  12.683 -0.1132 -0.5980  0.2523
17063TIP3   OH272603   3.499   3.230   5.003 -0.3516  0.8738 -0.8380
17063TIP3    H172604   3.436   3.270   5.063  0.1372  0.8794 -0.3220
17063TIP3    H272605   3.555   3.176   5.059 -1.0371 -0.6252 -1.5176
17064TIP3   OH272606   3.647   2.777  10.434  0.4864 -0.0582 -0.0070
17064TIP3    H172607   3.551   2.780  10.435  0.4273 -0.9448  1.7020
17064TIP3    H272608   3.669   2.737  10.350 -0.7263 -1.1516  0.1539
17065TIP3   OH272609   5.975   3.459  10.851  0.1219  0.1524  0.0138
17065TIP3    H172610   5.893   3.508  10.858 -1.2153 -2.0712  1.0973
17065TIP3    H272611   5.994   3.456  10.758 -0.4774  1.5312 -0.1698
17066TIP3   OH272612   6.409   1.381   5.088 -0.6705  0.0695 -0.2599
17066TIP3    H172613   6.461   1.433   5.027 -0.0503  0.0401  0.2296
17066TIP3    H272614   6.450   1.295   5.087  0.0644  0.3738  1.0257
17067TIP3   OH272615   3.588   4.871  14.055  0.0325  0.6994 -0.1605
17067TIP3    H172616   3.534   4.864  13.976 -0.6581  4.0432 -0.1218
17067TIP3    H272617   3.646   4.945  14.038  1.2850  0.2317  1.7261
17068TIP3   OH272618   5.820   4.318   4.832  0.6721  0.0360  0.0602
17068TIP3    H172619   5.900   4.278   4.796  0.7113 -0.9810  1.1819
17068TIP3    H272620   5.842   4.411   4.841  1.9899 -0.3302  0.9578
17069TIP3   OH272621   3.973   5.013   4.917 -0.5739 -0.5880  0.0721
17069TIP3    H172622   4.007   5.017   4.828  0.1119 -0.8924  0.3151
17069TIP3    H272623   3.884   5.049   4.910 -0.9310 -1.5793 -0.9258
17070TIP3   OH272624   1.873   2.228   0.611  0.1153 -0.3319  0.1439
17070TIP3    H172625   1.798   2.233   0.552  0.6375 -2.9608 -0.8516
17070TIP3    H272626   1.856   2.151   0.665  2.8951 -2.1730 -1.3791
17071TIP3   OH272627   4.746   6.819   3.402 -0.2439  0.4444  0.2458
17071TIP3    H172628   4.672   6.847   3.456 -2.0151  0.8743 -2.1883
17071TIP3    H272629   4.705   6.772   3.329  2.0410 -0.6914 -0.4051
17072TIP3   OH272630   4.102   2.255  11.602  0.0900 -0.1272 -0.0916
17072TIP3    H172631   4.094   2.228  11.511  0.3768 -0.4271 -0.0265
17072TIP3    H272632   4.022   2.305  11.619 -0.3553 -0.7819 -0.2587
17073TIP3   OH272633   1.318   3.708   2.174 -0.4197 -0.4719  0.0469
17073TIP3    H172634   1.282   3.669   2.095 -1.9708  0.4851  0.2602
17073TIP3    H272635   1.294   3.800   2.170  0.2815 -0.2136  1.1892
17074TIP3   OH272636   0.310   2.666  10.371 -0.0688 -0.3092  0.3643
17074TIP3    H172637   0.382   2.647  10.431 -1.5045 -2.4781  1.5138
17074TIP3    H272638   0.351   2.664  10.284  1.2715 -1.4880  0.9830
17075TIP3   OH272639   6.009   4.044  10.765 -0.3528  0.1398  0.2934
17075TIP3    H172640   6.105   4.039  10.764 -0.2244  1.9307  0.0330
17075TIP3    H272641   5.980   3.956  10.788  1.3360 -0.6670 -0.4973
17076TIP3   OH272642   4.301   2.920   4.288 -0.7736 -0.7448  0.4950
17076TIP3    H172643   4.261   2.839   4.256 -1.2246 -0.7889  1.1517
17076TIP3    H272644   4.373   2.890   4.344 -1.2517 -0.7166  1.1447
17077TIP3   OH272645   4.978   5.519  12.523 -0.4502 -0.2107 -0.1137
17077TIP3    H172646   5.007   5.455  12.457  0.9266  0.4279 -0.1400
17077TIP3    H272647   4.970   5.601  12.475  0.7514  0.3026  0.5452
17078TIP3   OH272648   1.665   0.303  11.981 -0.1186 -0.2713 -0.5180
17078TIP3    H172649   1.643   0.375  11.922  1.2093  0.7292  0.1520
17078TIP3    H272650   1.723   0.343  12.047  1.7800 -2.2212 -0.9019
17079TIP3   OH272651   4.139   4.221   0.140  0.3000 -0.0806 -0.2578
17079TIP3    H172652   4.212   4.274   0.109 -0.0099  0.2616 -0.4142
17079TIP3    H272653   4.177   4.134   0.155  0.5951 -0.0946 -1.0083
17080TIP3   OH272654   4.300   0.121   3.732 -0.1972 -0.7218  0.7521
17080TIP3    H172655   4.325   0.029   3.739  2.9063 -0.2536 -1.7241
17080TIP3    H272656   4.382   0.169   3.740 -1.1458  1.5344 -1.5952
17081TIP3   OH272657   5.221   1.875  14.723 -0.3071 -0.3636  0.2138
17081TIP3    H172658   5.256   1.789  14.704 -1.8949 -0.7072 -1.3991
17081TIP3    H272659   5.219   1.879  14.819  1.3304 -1.4215  0.3378
17082TIP3   OH272660   5.518   3.137   9.689  0.2420  0.2356 -0.0661
17082TIP3    H172661   5.448   3.076   9.666 -0.9885  1.2143  0.9454
17082TIP3    H272662   5.567   3.092   9.758  0.6783 -0.4778 -0.8209
17083TIP3   OH272663   3.238   1.547   0.388  0.4583 -0.3859 -0.0919
17083TIP3    H172664   3.299   1.583   0.324  0.7157 -0.4633  0.1095
17083TIP3    H272665   3.157   1.595   0.373  0.5956 -0.2119 -0.2923
17084TIP3   OH272666   1.584   6.244   2.859 -0.0096  0.7640  0.1613
17084TIP3    H172667   1.613   6.209   2.774 -0.9157 -2.1263  0.9088
17084TIP3    H272668   1.666   6.262   2.906  0.5017  2.2129 -1.1827
17085TIP3   OH272669   5.580   0.199  10.943  0.0594 -0.2713  0.1658
17085TIP3    H172670   5.485   0.202  10.931 -0.2323 -0.8673  1.9043
17085TIP3    H272671   5.610   0.131  10.883 -0.3751  0.9732 -1.5149
17086TIP3   OH272672   5.560   2.185  14.524 -0.2955 -0.3859 -0.1595
17086TIP3    H172673   5.519   2.106  14.488 -0.6323 -0.4840  0.4320
17086TIP3    H272674   5.496   2.220  14.586 -0.2464  0.4929 -0.5854
17087TIP3   OH272675   1.561   3.284  13.563 -0.0306 -0.1808 -0.2850
17087TIP3    H172676   1.556   3.282  13.467  1.1812  1.4129 -0.4314
17087TIP3    H272677   1.495   3.347  13.589  0.4916  0.3264 -0.1750
17088TIP3   OH272678   1.877   3.431   0.687  0.4246 -0.6238 -0.2060
17088TIP3    H172679   1.943   3.455   0.622  1.0253 -2.3626 -0.2906
17088TIP3    H272680   1.822   3.367   0.642 -2.3719  1.8637 -0.6810
17089TIP3   OH272681   5.701   6.697  10.502  0.3603 -0.5485 -0.0647
17089TIP3    H172682   5.752   6.689  10.422 -0.2979  0.1682 -0.5677
17089TIP3    H272683   5.741   6.769  10.550  0.9563 -1.1887  0.4151
17090TIP3   OH272684   0.490   6.570  14.991  0.0727 -0.5819 -0.1956
17090TIP3    H172685   0.439   6.643  14.957 -0.2995 -1.1717 -0.9322
17090TIP3    H272686   0.578   6.605  15.001  0.1526 -0.3396 -1.6205
17091TIP3   OH272687   2.498   2.191   3.613  0.2687  0.0560  0.4983
17091TIP3    H172688   2.574   2.217   3.665  0.1338  0.6040  0.4285
17091TIP3    H272689   2.531   2.124   3.553  0.6929  0.2938  0.4659
17092TIP3   OH272690   5.110   6.186   2.114  0.5008  0.3175 -0.2035
17092TIP3    H172691   5.063   6.103   2.121  0.7059  0.3048  1.5772
17092TIP3    H272692   5.198   6.162   2.084  0.6570 -0.1618  0.6086
17093TIP3   OH272693   3.763   6.496  13.124  0.2541  1.0986 -0.0404
17093TIP3    H172694   3.751   6.470  13.033  1.2475  0.8530 -0.1202
17093TIP3    H272695   3.858   6.500  13.135  0.2659 -1.5254  1.7320
17094TIP3   OH272696   3.475   5.587  13.279 -0.0277 -0.2452  0.1038
17094TIP3    H172697   3.479   5.571  13.184 -0.1663  0.4407 -0.0243
17094TIP3    H272698   3.567   5.597  13.305 -0.0242  0.4198 -0.1234
17095TIP3   OH272699   0.649   6.458  11.978 -0.3368  0.1220 -1.0626
17095TIP3    H172700   0.709   6.384  11.987 -0.1189  0.3525 -0.5838
17095TIP3    H272701   0.707   6.534  11.970 -0.5653  0.3057 -0.9712
17096TIP3   OH272702   4.550   3.268   3.798  0.1070 -0.9027 -0.1121
17096TIP3    H172703   4.455   3.271   3.809  0.3911 -0.4565  3.2471
17096TIP3    H272704   4.575   3.357   3.775 -0.2622 -1.0867 -1.3058
17097TIP3   OH272705   6.190   2.083   2.213 -0.5160 -0.2653 -0.2189
17097TIP3    H172706   6.274   2.124   2.195 -0.4000  0.0622  1.0021
17097TIP3    H272707   6.184   2.011   2.149  1.4127 -1.3085  0.7098
17098TIP3   OH272708   5.826   4.525  16.049 -0.3255  0.5418 -0.3748
17098TIP3    H172709   5.823   4.435  16.015 -2.0228  0.3373  0.2252
17098TIP3    H272710   5.750   4.568  16.009 -0.6911  1.1148  0.8809
17099TIP3   OH272711   3.705   4.181   1.303  0.6288 -0.4057  0.6908
17099TIP3    H172712   3.768   4.118   1.338 -0.3319 -1.0234  1.3635
17099TIP3    H272713   3.643   4.127   1.254  3.3376  0.5546 -4.5251
17100TIP3   OH272714   1.373   6.019   5.449  0.2189 -0.0367 -0.1658
17100TIP3    H172715   1.424   6.046   5.372  0.2186  0.5069  0.0174
17100TIP3    H272716   1.397   5.927   5.463  2.0764  0.5208  0.6163
17101TIP3   OH272717   5.877   5.833   4.937 -0.1441  0.3722 -1.0079
17101TIP3    H172718   5.941   5.904   4.934  1.4565 -1.0056 -0.8901
17101TIP3    H272719   5.906   5.772   4.869 -0.9038 -0.6414 -0.4395
17102TIP3   OH272720   2.524   3.777  12.425 -0.0122  0.2156  0.0439
17102TIP3    H172721   2.459   3.724  12.378  0.2878  0.7983 -1.0665
17102TIP3    H272722   2.593   3.791  12.361 -0.0525  1.8927  0.3376
17103TIP3   OH272723   4.645   3.418  16.479 -0.0417  0.1735  0.2341
17103TIP3    H172724   4.700   3.384  16.409 -1.7051  0.3595 -1.2471
17103TIP3    H272725   4.651   3.513  16.471 -1.1247  0.2026 -0.4439
17104TIP3   OH272726   6.746   6.376   5.450 -0.9156  0.5788 -0.2754
17104TIP3    H172727   6.655   6.404   5.456 -1.7253 -1.3219 -2.3743
17104TIP3    H272728   6.746   6.285   5.477  0.6189  0.8914  0.8941
17105TIP3   OH272729   4.532   0.065   0.326 -0.5172 -0.0869  0.4173
17105TIP3    H172730   4.524   0.065   0.422  0.2864  1.1301  0.4929
17105TIP3    H272731   4.524   0.157   0.301 -0.2427 -0.3461 -0.6520
17106TIP3   OH272732   4.814   3.399  12.402 -0.5270 -0.8529 -0.2381
17106TIP3    H172733   4.855   3.341  12.466 -0.6993 -0.4941  0.1998
17106TIP3    H272734   4.887   3.452  12.368 -0.4928 -0.8015 -0.0834
17107TIP3   OH272735   5.447   3.858  14.500 -0.1170  0.1413 -0.1185
17107TIP3    H172736   5.385   3.800  14.543 -0.3589  0.0298 -0.6130
17107TIP3    H272737   5.404   3.884  14.419  0.8105 -0.6285 -0.8961
17108TIP3   OH272738   3.709   2.371  12.910  0.1572 -0.3846 -0.2112
17108TIP3    H172739   3.780   2.427  12.878  1.2911 -0.3897  2.0689
17108TIP3    H272740   3.629   2.415  12.882  1.0163 -0.2922 -2.7126
17109TIP3   OH272741   0.673   0.477  10.814  0.1848 -0.0752 -0.0306
17109TIP3    H172742   0.759   0.502  10.781 -0.1761  1.8599  0.3938
17109TIP3    H272743   0.673   0.504  10.905 -1.8118  2.6737 -0.7174
17110TIP3   OH272744   3.049   6.410  10.539  0.6041  0.4242 -0.1617
17110TIP3    H172745   3.068   6.501  10.514  1.3287  0.5866  0.9507
17110TIP3    H272746   2.965   6.415  10.584  0.9254  0.6374  0.4202
17111TIP3   OH272747   5.250   5.161   5.095  0.3682 -0.2122 -0.0180
17111TIP3    H172748   5.217   5.089   5.149 -2.5572  1.4336  0.6048
17111TIP3    H272749   5.324   5.196   5.144  1.2464 -2.1593  0.1182
17112TIP3   OH272750   2.308   4.678  14.965 -0.2960 -0.8997 -0.2447
17112TIP3    H172751   2.357   4.759  14.950 -0.7500 -0.5790 -0.0174
17112TIP3    H272752   2.247   4.699  15.036 -0.6240 -1.3535 -0.3859
17113TIP3   OH272753   5.897   2.037   1.496  0.0664  0.2851  0.1384
17113TIP3    H172754   5.847   2.051   1.576 -0.0453 -1.5081  0.4136
17113TIP3    H272755   5.832   2.039   1.426  0.1637  1.8545  0.0638
17114TIP3   OH272756   6.413   4.231  12.124 -0.6693 -0.4304 -0.1675
17114TIP3    H172757   6.360   4.310  12.134  1.1587  0.6743  1.6682
17114TIP3    H272758   6.368   4.165  12.176 -0.6273  0.3156  0.8574
17115TIP3   OH272759   3.776   3.594   1.375 -0.8335 -0.0645 -0.0034
17115TIP3    H172760   3.705   3.649   1.344 -0.7667  0.0279  0.0082
17115TIP3    H272761   3.856   3.636   1.342 -0.8910 -1.4101 -1.9989
17116TIP3   OH272762   1.606   0.249   4.179 -0.3054  0.6686  0.0709
17116TIP3    H172763   1.606   0.344   4.188  0.2815  0.5930  0.9948
17116TIP3    H272764   1.630   0.216   4.266 -2.0507 -0.3743  0.2173
17117TIP3   OH272765   5.305   3.325   1.134 -0.1061 -0.3823 -0.3922
17117TIP3    H172766   5.335   3.402   1.182 -1.6730  0.0277 -0.0215
17117TIP3    H272767   5.352   3.328   1.051  0.5789  0.4139  0.0098
17118TIP3   OH272768   2.798   4.827  15.785 -0.0049 -0.3667 -0.1388
17118TIP3    H172769   2.814   4.921  15.771 -1.9014  0.5503  2.8106
17118TIP3    H272770   2.710   4.813  15.753  0.4665 -1.3173 -1.0634
17119TIP3   OH272771   4.497   0.789   0.339 -0.0312 -0.5015 -1.1353
17119TIP3    H172772   4.481   0.878   0.372 -0.4893 -0.7961 -0.5426
17119TIP3    H272773   4.582   0.795   0.295  0.5028 -0.0166 -0.0961
17120TIP3   OH272774   2.282   0.949  14.954  0.1201 -0.1637 -0.3438
17120TIP3    H172775   2.270   0.922  15.045  2.1241 -0.8583 -0.2498
17120TIP3    H272776   2.235   0.883  14.903 -2.9062  1.4160  0.1748
17121TIP3   OH272777   5.847   5.025  12.812 -0.2316  0.5753  0.6405
17121TIP3    H172778   5.755   5.001  12.803 -0.2823  0.9958 -0.0581
17121TIP3    H272779   5.845   5.117  12.838 -0.0110  0.5751  0.6574
17122TIP3   OH272780   1.494   0.908   4.776 -0.3182 -0.9599 -0.2058
17122TIP3    H172781   1.457   0.996   4.771 -1.8091 -1.5625 -0.2211
17122TIP3    H272782   1.419   0.850   4.789  0.7822 -2.0474  1.9487
17123TIP3   OH272783   0.407   0.886  13.228  0.6290  0.2228 -0.3329
17123TIP3    H172784   0.329   0.836  13.255  1.7251 -1.4379 -0.0895
17123TIP3    H272785   0.387   0.976  13.253 -0.9784 -0.2505  0.2504
17124TIP3   OH272786   5.713   4.886  14.518  0.6733  0.0377  0.6936
17124TIP3    H172787   5.638   4.925  14.474 -0.2172 -3.3182 -1.1094
17124TIP3    H272788   5.785   4.891  14.455  0.5777 -1.0473  0.4795
17125TIP3   OH272789   3.237   5.810  15.711 -0.2850 -0.2403  0.0428
17125TIP3    H172790   3.331   5.813  15.732  0.5025 -0.9878 -2.8756
17125TIP3    H272791   3.217   5.716  15.707 -1.0130 -0.0904  0.0609
17126TIP3   OH272792   1.702   0.363  14.262 -0.5154 -0.0009 -0.4356
17126TIP3    H172793   1.641   0.299  14.226 -0.1747 -0.4015 -0.3116
17126TIP3    H272794   1.724   0.420  14.189  0.4175 -0.9974 -0.9662
17127TIP3   OH272795   5.776   1.727   5.500 -0.2647 -0.1469 -0.0237
17127TIP3    H172796   5.769   1.707   5.594  0.7628  0.0195  0.1017
17127TIP3    H272797   5.747   1.647   5.456  1.0275 -0.9094  0.4547
17128TIP3   OH272798   6.278   1.081   2.466 -0.2080 -0.6665  0.3704
17128TIP3    H172799   6.297   0.998   2.509  1.0111 -1.2852 -1.2476
17128TIP3    H272800   6.316   1.072   2.378 -0.6130  1.3631 -0.0697
17129TIP3   OH272801   2.006   5.457  13.876 -0.1318 -0.0505 -0.1433
17129TIP3    H172802   2.000   5.362  13.867  0.0162 -0.1126  0.3472
17129TIP3    H272803   2.079   5.470  13.937 -0.6363  0.3415  0.3917
17130TIP3   OH272804   6.195   6.157   0.296  0.1056  0.3062 -0.4403
17130TIP3    H172805   6.160   6.078   0.255  0.3471  1.3212 -2.7584
17130TIP3    H272806   6.160   6.229   0.243  0.1970  1.7508  1.3767
17131TIP3   OH272807   3.441   1.662   6.074 -0.0988 -0.4027  0.7205
17131TIP3    H172808   3.459   1.640   6.165  0.8805 -0.0807  0.6156
17131TIP3    H272809   3.503   1.611   6.023 -0.2156 -0.1067  0.2685
17132TIP3   OH272810   0.772   2.957   5.515 -0.3175  0.1666  0.6296
17132TIP3    H172811   0.770   2.911   5.598 -0.6507 -0.0182  0.5214
17132TIP3    H272812   0.682   2.986   5.501 -0.4774 -0.6415 -0.1342
17133TIP3   OH272813   6.822   5.709  10.301 -0.5088 -0.0137  0.3767
17133TIP3    H172814   6.760   5.690  10.230 -0.0684  0.2528 -0.0804
17133TIP3    H272815   6.841   5.623  10.339  0.7128 -0.4124 -1.0535
17134TIP3   OH272816   2.914   3.382  15.384 -0.1855  0.1819  0.9593
17134TIP3    H172817   2.967   3.392  15.463  0.8568 -0.5077  0.3655
17134TIP3    H272818   2.976   3.356  15.316 -0.8024  2.0724 -0.4378
17135TIP3   OH272819   1.739   4.688  10.831  0.0891 -0.0554  0.0030
17135TIP3    H172820   1.708   4.726  10.749  0.0063  1.0211  0.5035
17135TIP3    H272821   1.730   4.594  10.820 -2.2654  0.1556 -0.3075
17136TIP3   OH272822   0.955   3.048  11.699  0.2741  0.6223 -0.5782
17136TIP3    H172823   0.889   3.077  11.763 -0.9962 -2.4930 -0.2955
17136TIP3    H272824   1.021   3.003  11.752 -0.1869 -0.9577 -1.2887
17137TIP3   OH272825   5.283   4.917   0.791  0.1531 -0.0502  0.4577
17137TIP3    H172826   5.328   4.982   0.844  0.8684  0.6016 -0.8883
17137TIP3    H272827   5.353   4.875   0.740 -0.4700 -0.8410  0.2248
17138TIP3   OH272828   6.335   4.521  14.584 -0.7934  0.1800  0.0336
17138TIP3    H172829   6.402   4.460  14.616 -0.4755  0.2028 -0.5863
17138TIP3    H272830   6.263   4.511  14.646 -1.0367 -1.3705 -0.4531
17139TIP3   OH272831   3.449   2.509  15.854 -0.5434 -0.0297  0.1034
17139TIP3    H172832   3.469   2.496  15.946  0.6297 -0.1946 -0.1619
17139TIP3    H272833   3.356   2.533  15.853 -1.1210 -2.0205  1.1515
17140TIP3   OH272834   3.632   3.572  12.315  0.2988  0.1712  0.1517
17140TIP3    H172835   3.711   3.619  12.288  0.3667 -0.8574 -1.6115
17140TIP3    H272836   3.636   3.572  12.411  1.7900  1.2076  0.1262
17141TIP3   OH272837   2.930   4.067   5.407 -0.4212  0.6086 -0.2474
17141TIP3    H172838   2.972   4.087   5.324 -0.1244 -2.3963 -0.9237
17141TIP3    H272839   2.840   4.098   5.396 -0.7162 -0.7789 -2.1886
17142TIP3   OH272840   4.386   3.377   3.123 -0.9504  0.1053 -0.4297
17142TIP3    H172841   4.391   3.340   3.211 -0.3680  0.7493 -0.1810
17142TIP3    H272842   4.325   3.320   3.076 -0.7875 -0.6064  0.2055
17143TIP3   OH272843   3.361   0.450  12.974  0.1306  0.5402  0.0912
17143TIP3    H172844   3.390   0.408  12.893 -3.2469 -0.6613 -0.6484
17143TIP3    H272845   3.380   0.387  13.043  2.4508  1.3122  0.2305
17144TIP3   OH272846   5.177   4.067  12.431  0.4624 -0.5446 -0.3113
17144TIP3    H172847   5.252   4.011  12.415  0.3408 -0.7279 -0.2421
17144TIP3    H272848   5.122   4.018  12.492  0.5297 -0.1988  0.0339
17145TIP3   OH272849   1.346   1.035  16.710 -0.1823  0.2005 -0.1551
17145TIP3    H172850   1.332   1.054  16.617  0.0395 -0.7624 -0.4044
17145TIP3    H272851   1.269   1.071  16.754  0.5442  2.2592 -0.4694
17146TIP3   OH272852   1.143   0.420   0.286  0.0880 -0.1846  0.2008
17146TIP3    H172853   1.223   0.396   0.239  0.0261 -1.3458  0.6365
17146TIP3    H272854   1.072   0.390   0.230 -0.0249  0.0024  0.2432
17147TIP3   OH272855   3.068   4.733  12.222  0.5701  0.2454  0.2513
17147TIP3    H172856   3.089   4.677  12.148 -0.3643  0.9049 -0.5349
17147TIP3    H272857   3.012   4.679  12.278  0.6875 -0.0099  0.1216
17148TIP3   OH272858   1.343   0.267  11.107 -0.1136 -0.6420  0.2989
17148TIP3    H172859   1.378   0.356  11.114  2.1598 -1.5595  1.6733
17148TIP3    H272860   1.275   0.263  11.174  1.3223 -0.5710  1.8077
17149TIP3   OH272861   3.843   0.705  11.219  0.5699  0.2418  0.4155
17149TIP3    H172862   3.906   0.756  11.169  1.5675  1.4049  2.7028
17149TIP3    H272863   3.765   0.761  11.224  0.4630  0.1170  0.1511
17150TIP3   OH272864   4.528   6.794   5.318  0.2337  0.2873  0.1496
17150TIP3    H172865   4.441   6.754   5.316  0.9796 -1.4831  1.0699
17150TIP3    H272866   4.550   6.799   5.411  2.2254 -1.9963 -0.0954
17151TIP3   OH272867   2.735   2.783   4.903 -0.7661 -0.9298  0.4460
17151TIP3    H172868   2.696   2.868   4.884  0.5911 -0.3901  0.0104
17151TIP3    H272869   2.748   2.784   4.998  3.2018  1.2077  0.0932
17152TIP3   OH272870   4.640   5.469  11.784  0.1106  0.0481  0.5948
17152TIP3    H172871   4.561   5.462  11.731 -0.2023  0.6677  0.9651
17152TIP3    H272872   4.700   5.523  11.733  1.0697 -2.0243 -0.5668
17153TIP3   OH272873   1.707   0.297  13.277 -0.5122 -0.1005 -0.0822
17153TIP3    H172874   1.644   0.248  13.330 -1.4893  1.7108  0.5182
17153TIP3    H272875   1.708   0.384  13.315 -0.3149  0.9436 -2.2984
17154TIP3   OH272876   2.244   0.338   0.646  0.1690 -0.0052 -0.0120
17154TIP3    H172877   2.149   0.345   0.655  0.4274  3.1538  1.4359
17154TIP3    H272878   2.276   0.334   0.736  1.4758 -0.1480 -0.4634
17155TIP3   OH272879   6.007   2.380   4.362  0.6408 -0.7695  0.4145
17155TIP3    H172880   6.054   2.452   4.320  0.9045 -1.9208 -1.3824
17155TIP3    H272881   5.930   2.421   4.401  2.2316  0.9056  1.9763
17156TIP3   OH272882   2.642   5.801   3.341  1.0311 -0.1685  0.3955
17156TIP3    H172883   2.708   5.857   3.301 -0.8981  1.3117 -0.9513
17156TIP3    H272884   2.673   5.712   3.326  1.5675  0.3971 -2.3814
17157TIP3   OH272885   3.862   5.041   3.952  0.0309  0.0301  0.2616
17157TIP3    H172886   3.894   5.079   3.870  1.7552  1.0594  1.3472
17157TIP3    H272887   3.915   4.962   3.963  2.3471  1.6557  1.9831
17158TIP3   OH272888   0.909   1.631   4.970 -0.2100  0.3905  0.5310
17158TIP3    H172889   0.959   1.590   5.041 -0.8044 -0.4237  0.5038
17158TIP3    H272890   0.932   1.580   4.892 -0.0309  0.8876  0.2558
17159TIP3   OH272891   5.184   0.669  12.680 -0.0764 -0.0537 -0.4820
17159TIP3    H172892   5.174   0.577  12.703 -0.4840 -0.1068 -0.8456
17159TIP3    H272893   5.268   0.694  12.717  0.2260 -0.6804 -0.7166
17160TIP3   OH272894   4.863   1.624  13.223  0.3870  0.1126  0.7335
17160TIP3    H172895   4.785   1.653  13.175 -0.0489 -0.7468  0.9060
17160TIP3    H272896   4.932   1.619  13.156  0.3307  0.9808  0.6020
17161TIP3   OH272897   6.179   4.869   0.157  0.2842  0.2502 -0.3292
17161TIP3    H172898   6.107   4.900   0.103 -0.4421  0.5640  0.7672
17161TIP3    H272899   6.258   4.893   0.110 -0.3249  0.1276 -1.4312
17162TIP3   OH272900   3.134   4.506  14.605 -0.3818  0.7049 -0.1456
17162TIP3    H172901   3.160   4.473  14.690 -0.2507 -0.9763 -0.8089
17162TIP3    H272902   3.214   4.503  14.552 -1.0880 -1.2438 -1.2006
17163TIP3   OH272903   6.359   4.914   4.079  0.6455 -0.3833 -0.0147
17163TIP3    H172904   6.328   4.999   4.048 -0.0264 -1.2771 -2.0329
17163TIP3    H272905   6.323   4.852   4.015  4.0142 -1.8374 -0.6748
17164TIP3   OH272906   6.811   1.929   4.144 -0.4823 -0.2674  0.2138
17164TIP3    H172907   6.757   2.007   4.156 -0.3355 -0.3084  1.1725
17164TIP3    H272908   6.885   1.960   4.091 -0.5512  0.1870  0.3770
17165TIP3   OH272909   4.871   0.205  13.381 -0.3384  0.0114  0.0966
17165TIP3    H172910   4.839   0.158  13.304 -0.4880 -1.8565  1.2258
17165TIP3    H272911   4.794   0.253  13.413 -0.6983 -0.4780 -0.0213
17166TIP3   OH272912   6.266   4.412  15.320 -1.1184  0.8818  0.1887
17166TIP3    H172913   6.228   4.453  15.242 -2.8218  1.7163  1.3857
17166TIP3    H272914   6.230   4.462  15.393  1.4300  0.9654  1.5213
17167TIP3   OH272915   3.296   2.310   1.225  0.2416 -0.1423  0.1834
17167TIP3    H172916   3.236   2.344   1.291  1.1543  0.9508  0.4875
17167TIP3    H272917   3.383   2.330   1.259  0.7575 -0.7265 -0.7486
17168TIP3   OH272918   0.211   1.886  11.996  0.2267  0.0835  0.0561
17168TIP3    H172919   0.267   1.811  11.974  1.4443  0.4452  1.7066
17168TIP3    H272920   0.227   1.948  11.925  2.1402  0.2528  0.5660
17169TIP3   OH272921   1.978   3.225   0.156  0.6813 -0.0179 -0.4405
17169TIP3    H172922   1.942   3.143   0.188  3.1024 -1.0264 -0.1541
17169TIP3    H272923   2.024   3.263   0.231  0.4116  1.1392 -0.8316
17170TIP3   OH272924   3.424   0.656   2.264  1.1698 -0.4624  0.2379
17170TIP3    H172925   3.463   0.606   2.193  1.3413  0.0505 -0.0326
17170TIP3    H272926   3.495   0.710   2.298  0.4631  1.3395 -1.0166
17171TIP3   OH272927   4.204   2.356  11.820 -0.1693  0.3031 -0.2931
17171TIP3    H172928   4.134   2.421  11.821 -0.9111 -0.4702 -1.1497
17171TIP3    H272929   4.240   2.360  11.732  0.0842 -0.1358 -0.2110
17172TIP3   OH272930   1.710   2.647  13.825  0.1745  0.1753 -0.3783
17172TIP3    H172931   1.647   2.708  13.786  2.0304  2.0948 -0.6124
17172TIP3    H272932   1.713   2.573  13.765 -0.4032  0.9587 -1.4034
17173TIP3   OH272933   0.615   5.753   1.517  0.3206 -0.5480 -0.8316
17173TIP3    H172934   0.670   5.674   1.518  0.7411 -0.2523  0.3456
17173TIP3    H272935   0.532   5.724   1.478  0.7002 -1.4186 -1.0045
17174TIP3   OH272936   2.008   3.437  11.076  0.8411 -0.4859  0.1680
17174TIP3    H172937   2.064   3.392  11.140  1.4258 -0.9831 -0.6750
17174TIP3    H272938   2.065   3.453  11.001  0.7937  2.1395  0.5960
17175TIP3   OH272939   3.712   1.592  10.858  0.0211 -0.2748 -0.8115
17175TIP3    H172940   3.762   1.514  10.834  3.3741  0.9785  1.3103
17175TIP3    H272941   3.757   1.664  10.814 -0.6114  0.8321  0.2941
17176TIP3   OH272942   5.633   1.782   2.145  0.0981 -0.0037  1.0276
17176TIP3    H172943   5.726   1.779   2.122  0.0218 -0.4740  0.7680
17176TIP3    H272944   5.601   1.860   2.100 -0.1407 -1.1483 -0.9010
17177TIP3   OH272945   3.108   1.833  11.599 -0.6211  0.3333 -0.4776
17177TIP3    H172946   3.192   1.866  11.632 -0.8654 -0.0187  0.5307
17177TIP3    H272947   3.123   1.817  11.506 -0.6586  3.9326 -1.2407
17178TIP3   OH272948   3.430   1.902  14.077  0.1370  0.2328  0.0068
17178TIP3    H172949   3.437   1.897  13.982  1.6059 -1.0479  0.1385
17178TIP3    H272950   3.520   1.887  14.108 -0.4902 -0.4310  1.6114
17179TIP3   OH272951   5.612   0.810  11.072 -0.2504 -0.3477 -0.1505
17179TIP3    H172952   5.541   0.793  11.010 -0.7826  2.1223 -0.3537
17179TIP3    H272953   5.572   0.864  11.140  0.7729 -1.4357  1.3584
17180TIP3   OH272954   6.058   1.743   2.387 -0.0693 -0.0023  0.1237
17180TIP3    H172955   6.149   1.727   2.364  0.4469  2.3326  0.3086
17180TIP3    H272956   6.054   1.835   2.410 -2.6807  0.2278 -0.8324
17181TIP3   OH272957   6.098   3.155   3.049  0.7732 -0.3980 -0.1554
17181TIP3    H172958   6.081   3.212   2.974  0.4738  0.0616  0.2509
17181TIP3    H272959   6.021   3.165   3.105  0.2403 -2.0306 -0.5622
17182TIP3   OH272960   2.412   0.344   5.540  0.3742  0.0334  0.1379
17182TIP3    H172961   2.412   0.440   5.543  1.4074  0.0262  1.6113
17182TIP3    H272962   2.340   0.318   5.597  0.8806 -0.0586  0.7451
17183TIP3   OH272963   6.225   0.941   5.914  0.1091 -0.6664 -0.1573
17183TIP3    H172964   6.254   0.998   5.985  0.2188 -1.5381  0.5204
17183TIP3    H272965   6.145   0.901   5.946 -1.5176  1.1381 -1.7205
17184TIP3   OH272966   5.806   6.107  14.278 -0.2545  0.3251  0.1483
17184TIP3    H172967   5.761   6.185  14.311 -1.5958 -0.9343  1.4263
17184TIP3    H272968   5.830   6.058  14.356  1.7246  0.0276 -0.5853
17185TIP3   OH272969   5.072   5.079  13.690 -0.6890  0.0140 -0.1026
17185TIP3    H172970   5.164   5.098  13.708 -0.8786  0.4686  0.4304
17185TIP3    H272971   5.048   5.141  13.620 -0.0834 -1.4200 -1.6344
17186TIP3   OH272972   0.941   1.807  13.382  0.2860 -0.1660 -0.1491
17186TIP3    H172973   0.963   1.748  13.454  1.5296  0.2844 -0.1303
17186TIP3    H272974   0.977   1.891  13.408 -1.1172  0.5209 -0.3555
17187TIP3   OH272975   5.243   0.652  13.363  0.3052 -0.1134  0.0332
17187TIP3    H172976   5.294   0.723  13.404 -1.6248  1.4179 -0.0647
17187TIP3    H272977   5.242   0.583  13.429  1.7635  0.1342  0.3622
17188TIP3   OH272978   4.448   4.354  14.998 -0.2327 -0.1022  0.0333
17188TIP3    H172979   4.389   4.413  15.045  0.1677  1.3037 -1.1516
17188TIP3    H272980   4.523   4.343  15.056 -0.6631 -0.0830  0.5990
17189TIP3   OH272981   6.316   3.091   1.852  0.1371  0.1679  0.0640
17189TIP3    H172982   6.238   3.096   1.908  0.5251  0.1592  0.6013
17189TIP3    H272983   6.282   3.055   1.769 -0.7157  1.5853 -0.2458
17190TIP3   OH272984   6.874   5.744   0.987  0.3501 -0.0017 -0.4790
17190TIP3    H172985   6.903   5.686   0.917  0.6024  0.0862 -0.4471
17190TIP3    H272986   6.792   5.781   0.954  0.4114 -0.0426 -0.6809
17191TIP3   OH272987   4.777   2.567   0.991 -0.3009  0.4677  0.4703
17191TIP3    H172988   4.797   2.592   1.081  1.8225  1.5403 -0.2200
17191TIP3    H272989   4.825   2.486   0.978 -1.9673 -0.6120  0.7568
17192TIP3   OH272990   4.110   0.417  15.030 -0.6697  0.0093 -0.1085
17192TIP3    H172991   4.157   0.492  14.995  0.3079 -0.1198  0.8717
17192TIP3    H272992   4.080   0.369  14.953  1.1480 -0.1023 -0.7985
17193TIP3   OH272993   6.496   4.773  11.920 -0.5854 -0.1926  0.2122
17193TIP3    H172994   6.576   4.794  11.968 -0.3838  1.8600 -0.8936
17193TIP3    H272995   6.520   4.700  11.864  1.1520  1.5331 -1.4360
17194TIP3   OH272996   2.779   6.310  12.482  0.3334 -0.5509 -0.1964
17194TIP3    H172997   2.830   6.344  12.556 -0.1523 -0.9319  0.3265
17194TIP3    H272998   2.706   6.371  12.473 -0.0310 -0.9297  0.1433
17195TIP3   OH272999   4.208   6.421  15.653 -0.3424 -0.2769 -0.4095
17195TIP3    H173000   4.208   6.400  15.560  2.3429  0.4663 -0.6729
17195TIP3    H273001   4.220   6.516  15.656  0.0674 -0.3495  0.6719
17196TIP3   OH273002   1.198   6.616  16.055 -0.2148 -0.5404  0.1685
17196TIP3    H173003   1.144   6.576  16.123  1.2804 -2.3960  0.3347
17196TIP3    H273004   1.165   6.579  15.973 -2.5774  2.3286 -0.3372
17197TIP3   OH273005   0.422   4.525   4.319  0.3943  0.2597  0.1704
17197TIP3    H173006   0.360   4.456   4.344  1.4649 -0.0783  2.1469
17197TIP3    H273007   0.440   4.509   4.227 -1.8083 -0.1125 -0.2526
17198TIP3   OH273008   6.215   2.994   0.388  0.3453  0.2364  0.1672
17198TIP3    H173009   6.231   3.085   0.411  0.2688  0.1130  0.7236
17198TIP3    H273010   6.123   2.980   0.410  0.5507 -0.1797  0.7924
17199TIP3   OH273011   3.156   1.228  16.708  0.5642 -0.0396 -0.5506
17199TIP3    H173012   3.119   1.297  16.652  1.5684  0.4170 -0.6792
17199TIP3    H273013   3.111   1.238  16.792  0.5624  0.6558 -0.6311
17200TIP3   OH273014   3.080   0.478   4.110 -0.3508 -0.2547 -0.4831
17200TIP3    H173015   3.090   0.383   4.114 -2.8834 -0.5766  2.5368
17200TIP3    H273016   2.991   0.492   4.077 -0.8536  0.8781  1.1666
17201TIP3   OH273017   0.694   5.747  12.116  0.2580  0.7334  0.8857
17201TIP3    H173018   0.763   5.735  12.051  0.0043  0.0941  0.7260
17201TIP3    H273019   0.741   5.768  12.197  0.6575  0.0590  0.8393
17202TIP3   OH273020   1.771   2.028  11.562 -0.3508  0.1867 -0.4383
17202TIP3    H173021   1.844   2.060  11.509 -0.8770 -1.2402 -2.1127
17202TIP3    H273022   1.812   1.979  11.633  0.3336  0.5249 -0.5931
17203TIP3   OH273023   0.295   2.951   4.396 -0.0923 -0.6783  0.1224
17203TIP3    H173024   0.284   2.903   4.313  2.4936 -1.4021  0.0921
17203TIP3    H273025   0.270   2.888   4.463  0.3016 -1.0105 -0.0355
17204TIP3   OH273026   4.553   0.073   2.539  0.1075 -0.1457  0.1560
17204TIP3    H173027   4.539   0.156   2.492  1.8246 -0.2556 -0.6471
17204TIP3    H273028   4.637   0.085   2.584 -2.0414  0.4628  4.4999
17205TIP3   OH273029   6.471   6.061  15.760  0.3100 -0.3630 -0.1280
17205TIP3    H173030   6.557   6.030  15.732  0.3792  1.1843 -1.8195
17205TIP3    H273031   6.487   6.109  15.841  0.8852 -0.8607  0.0549
17206TIP3   OH273032   3.139   1.835  12.806 -0.0743 -1.0186 -0.0451
17206TIP3    H173033   3.179   1.793  12.882  2.4042  2.9538  1.1357
17206TIP3    H273034   3.054   1.865  12.838  0.1282 -1.0672  0.5654
17207TIP3   OH273035   6.519   1.989   4.234 -0.5473  0.5768  0.3184
17207TIP3    H173036   6.440   2.042   4.233  0.0497  1.5139 -1.1247
17207TIP3    H273037   6.509   1.928   4.160 -0.8039 -0.7161  1.3767
17208TIP3   OH273038   4.111   2.581   3.073 -0.2006  0.2467 -0.1319
17208TIP3    H173039   4.057   2.651   3.110  0.4970  0.8195 -0.1670
17208TIP3    H273040   4.058   2.544   3.002 -0.2029  1.3891 -0.7472
17209TIP3   OH273041   2.286   3.308  15.516 -0.3195  0.0063 -0.1655
17209TIP3    H173042   2.204   3.353  15.540 -0.5338 -0.4835  0.0416
17209TIP3    H273043   2.267   3.215  15.530  0.4271 -0.0798  0.3562
17210TIP3   OH273044   6.520   3.108   5.259  0.0082 -0.0269 -0.5984
17210TIP3    H173045   6.489   3.051   5.330  0.3160  0.9820  0.3774
17210TIP3    H273046   6.614   3.093   5.256 -0.0066 -0.0764 -0.7989
17211TIP3   OH273047   5.320   5.471   0.235 -0.2033 -0.2490  0.1689
17211TIP3    H173048   5.366   5.545   0.197 -1.0457  0.1889 -0.0110
17211TIP3    H273049   5.238   5.464   0.186 -0.5884 -0.6688  0.8395
17212TIP3   OH273050   6.422   0.571   4.274  0.2189  0.1501 -0.1964
17212TIP3    H173051   6.511   0.534   4.271 -0.5453 -1.7559 -0.3054
17212TIP3    H273052   6.378   0.535   4.197 -0.1950  2.4376 -1.1106
17213TIP3   OH273053   5.741   4.016  11.038  0.6902  0.6166 -0.5042
17213TIP3    H173054   5.700   4.020  11.124 -0.1715  1.8949 -0.9522
17213TIP3    H273055   5.835   4.007  11.057  0.3954 -0.5556  0.5376
17214TIP3   OH273056   3.230   3.120   3.641 -0.3925 -0.3021  0.2874
17214TIP3    H173057   3.264   3.157   3.560 -0.0354  0.2865  0.6977
17214TIP3    H273058   3.136   3.141   3.639 -0.1598  0.8373  0.6117
17215TIP3   OH273059   2.085   2.847   0.918  0.4450  0.3839 -0.2783
17215TIP3    H173060   2.083   2.892   0.834  0.5052  1.3810  0.2403
17215TIP3    H273061   2.022   2.776   0.909  1.0328 -0.0232 -1.4309
17216TIP3   OH273062   4.842   4.095  11.505  0.0351  0.3709  0.2942
17216TIP3    H173063   4.919   4.141  11.471 -0.4550  0.5651 -0.5772
17216TIP3    H273064   4.770   4.124  11.449 -0.6190 -0.0559  0.8949
17217TIP3   OH273065   3.277   0.451   5.303  0.1496 -0.2378  0.2974
17217TIP3    H173066   3.371   0.444   5.318  0.3616  1.0228 -0.2865
17217TIP3    H273067   3.239   0.453   5.391  0.8974  1.5415  0.6306
17218TIP3   OH273068   3.159   6.552   3.196 -0.4341  0.5616  0.2955
17218TIP3    H173069   3.155   6.459   3.217  0.0844  0.8256  1.6447
17218TIP3    H273070   3.179   6.595   3.279  0.5173  1.7762 -0.5254
17219TIP3   OH273071   2.654   0.496   0.817  0.0218 -0.3773  0.3094
17219TIP3    H173072   2.652   0.456   0.731  1.8471 -0.4765  0.2796
17219TIP3    H273073   2.731   0.553   0.816 -0.8088  0.8330  1.3604
17220TIP3   OH273074   1.566   4.255  15.358  0.5116  1.1729  0.0641
17220TIP3    H173075   1.499   4.301  15.409 -0.3742 -0.8222  0.7959
17220TIP3    H273076   1.545   4.276  15.267 -1.2291  0.4779  0.2703
17221TIP3   OH273077   5.069   2.043  15.585  0.0585  0.8306 -0.1345
17221TIP3    H173078   5.129   2.000  15.646 -2.3247 -0.9860  1.0847
17221TIP3    H273079   5.059   1.981  15.513 -0.6177  0.9685 -0.1644
17222TIP3   OH273080   4.053   4.913   3.369  0.3565  0.0859  0.3419
17222TIP3    H173081   4.006   4.950   3.295 -0.0592 -0.8892  0.0942
17222TIP3    H273082   4.145   4.933   3.352  0.3043 -0.4647 -0.6471
17223TIP3   OH273083   1.269   6.320   2.314 -0.2974 -0.2962 -0.4829
17223TIP3    H173084   1.329   6.386   2.279 -1.0737 -0.3730 -2.0314
17223TIP3    H273085   1.202   6.370   2.361  0.3380 -0.1462  0.2899
17224TIP3   OH273086   4.726   2.942  12.097 -0.1636  0.0402 -0.1718
17224TIP3    H173087   4.706   2.955  12.004 -0.0002  0.3668 -0.1613
17224TIP3    H273088   4.742   3.030  12.131  0.4060 -0.1367  0.0256
17225TIP3   OH273089   0.308   4.325  14.972  0.0172  0.2903 -0.9042
17225TIP3    H173090   0.270   4.411  14.948 -1.1033  0.3229  0.8022
17225TIP3    H273091   0.400   4.343  14.988 -0.1062  1.0923 -1.0380
17226TIP3   OH273092   2.128   1.536   0.820  0.5321  0.1232  0.1524
17226TIP3    H173093   2.117   1.443   0.804 -0.7089  0.2676  0.0858
17226TIP3    H273094   2.041   1.567   0.845  0.7384  1.4279 -0.6686
17227TIP3   OH273095   1.893   3.451   4.410 -0.4783 -0.4581  0.2257
17227TIP3    H173096   1.921   3.360   4.406  0.5391 -0.1932  0.9209
17227TIP3    H273097   1.837   3.456   4.488  0.8521 -0.1486  1.1901
17228TIP3   OH273098   0.032   4.795  15.490  0.6965  0.1938  0.2692
17228TIP3    H173099  -0.005   4.732  15.428  0.8512  0.4037 -0.0427
17228TIP3    H273100   0.001   4.880  15.458 -1.7290  0.1427  2.1753
17229TIP3   OH273101   5.973   4.206   5.175  0.2233 -0.6305 -0.3641
17229TIP3    H173102   5.919   4.151   5.120  1.0321 -2.3673  0.5071
17229TIP3    H273103   6.055   4.217   5.127  0.3143 -0.7585 -0.2392
17230TIP3   OH273104   5.930   2.433   0.251  0.3632  0.1353 -0.1414
17230TIP3    H173105   6.011   2.437   0.302 -0.3203  0.0740  0.9876
17230TIP3    H273106   5.861   2.443   0.316 -0.5632 -0.6163 -0.9819
17231TIP3   OH273107   2.925   6.855  15.253 -0.1561 -0.2195  0.1459
17231TIP3    H173108   2.959   6.846  15.343  0.1740  0.0822  0.0527
17231TIP3    H273109   2.854   6.920  15.261  0.3546  0.3582  0.0672
17232TIP3   OH273110   1.168   0.942   1.122  0.2289 -0.2865 -0.8129
17232TIP3    H173111   1.205   1.009   1.179 -0.3636 -0.1810 -0.5406
17232TIP3    H273112   1.103   0.989   1.069 -0.8513 -0.7926  0.0120
17233TIP3   OH273113   3.524   1.796   4.589 -0.4718  0.6753  0.6321
17233TIP3    H173114   3.556   1.768   4.503 -0.7700  2.2233 -0.0142
17233TIP3    H273115   3.599   1.789   4.647  0.0311  0.6941 -0.0103
17234TIP3   OH273116   4.978   3.148   2.042  0.0449 -0.1187  0.3651
17234TIP3    H173117   4.883   3.143   2.046 -0.4271  1.9283 -3.3078
17234TIP3    H273118   4.996   3.235   2.006  3.0980 -1.4263 -1.7381
17235TIP3   OH273119   4.045   1.669  16.044  0.3413 -0.5425 -0.2124
17235TIP3    H173120   4.058   1.685  15.951  0.0206  0.5551 -0.0907
17235TIP3    H273121   3.973   1.606  16.048 -2.6313  2.4872 -0.7168
17236TIP3   OH273122   5.621   2.279  12.927  0.3625 -0.1735  0.1410
17236TIP3    H173123   5.664   2.212  12.873  0.9061 -0.5358  1.0038
17236TIP3    H273124   5.689   2.345  12.941 -0.3368  0.8718 -1.1818
17237TIP3   OH273125   0.692   0.700  14.720 -0.0073 -0.6836 -0.1314
17237TIP3    H173126   0.663   0.667  14.635 -0.0663 -0.6874 -0.1098
17237TIP3    H273127   0.743   0.629  14.757 -0.5636 -0.9429  0.1374
17238TIP3   OH273128   4.802   3.860   5.570  0.0150  0.2472  0.8481
17238TIP3    H173129   4.893   3.842   5.548 -0.4634  0.5464 -1.7048
17238TIP3    H273130   4.782   3.802   5.643  2.1182 -0.0805  1.2168
17239TIP3   OH273131   1.424   0.964  15.426  0.0234 -0.8317  0.2330
17239TIP3    H173132   1.348   0.907  15.417 -0.2906 -0.1789 -1.5119
17239TIP3    H273133   1.396   1.033  15.487 -0.4139 -1.1858  0.4343
17240TIP3   OH273134   2.456   4.416   3.082 -0.7460 -0.1295 -0.5587
17240TIP3    H173135   2.443   4.350   3.014 -0.8335 -1.8398  1.0294
17240TIP3    H273136   2.501   4.369   3.152 -0.2133  1.6959  0.3830
17241TIP3   OH273137   1.976   4.216   3.458  0.2201 -0.1672  0.4888
17241TIP3    H173138   1.891   4.221   3.502  0.5745 -1.7515  1.4325
17241TIP3    H273139   1.963   4.152   3.388 -0.2426  2.0759 -1.6290
17242TIP3   OH273140   5.249   2.120   3.392  0.0427  0.2396  0.4820
17242TIP3    H173141   5.183   2.181   3.424  0.4168  0.9588 -0.0779
17242TIP3    H273142   5.213   2.087   3.309  0.2617  0.4304  0.3096
17243TIP3   OH273143   0.407   2.447   2.274  0.9200  0.6564 -0.1087
17243TIP3    H173144   0.490   2.457   2.226  0.4539  0.4923 -0.9810
17243TIP3    H273145   0.343   2.427   2.206  0.2878  0.0907  0.6415
17244TIP3   OH273146   3.829   2.082  10.440  0.3622  0.1024 -0.6120
17244TIP3    H173147   3.802   1.993  10.416 -0.1393 -0.1699  0.8939
17244TIP3    H273148   3.805   2.135  10.364 -0.1832 -0.8865 -1.1554
17245TIP3   OH273149   2.326   6.660  13.945 -0.0566 -0.6773 -0.7012
17245TIP3    H173150   2.356   6.569  13.935  0.9556 -0.5156  0.6165
17245TIP3    H273151   2.246   6.664  13.893  0.1670 -2.1798 -1.2283
17246TIP3   OH273152   6.135   1.219  11.467  0.2308  0.6490 -0.4532
17246TIP3    H173153   6.097   1.200  11.381  0.8460  2.0286 -1.0650
17246TIP3    H273154   6.216   1.170  11.470 -1.9123 -3.2718  1.3240
17247TIP3   OH273155   3.904   4.561  16.160 -0.1137  0.1790 -0.4771
17247TIP3    H173156   3.921   4.478  16.115  0.9041  1.3091 -2.3083
17247TIP3    H273157   3.987   4.586  16.198  0.0075  1.0959 -1.2934
17248TIP3   OH273158   4.103   6.089  11.267 -0.0577  0.1365  0.6261
17248TIP3    H173159   4.106   6.128  11.180  0.8556  0.0308  0.6089
17248TIP3    H273160   4.176   6.028  11.270  0.5014  0.8258  1.7870
17249TIP3   OH273161   2.202   0.097  11.411  0.2420  0.3948 -0.1215
17249TIP3    H173162   2.228   0.042  11.485 -0.3075 -0.0803 -0.2739
17249TIP3    H273163   2.115   0.130  11.435  0.7923  1.6885  0.2294
17250TIP3   OH273164   5.964   1.557   2.639  0.3003  0.4772  0.1319
17250TIP3    H173165   6.016   1.559   2.559 -1.7344 -0.1095 -1.3040
17250TIP3    H273166   5.967   1.647   2.672  1.9231  0.5174 -0.0372
17251TIP3   OH273167   0.355   1.658   1.620 -0.2282  0.0828  0.4566
17251TIP3    H173168   0.307   1.592   1.571 -0.8548  0.3148  0.7426
17251TIP3    H273169   0.309   1.663   1.704  0.4907  0.0875  0.8523
17252TIP3   OH273170   4.279   5.179   4.743 -0.3213 -0.6907 -0.0055
17252TIP3    H173171   4.212   5.171   4.676 -1.2273 -0.1315  0.8076
17252TIP3    H273172   4.343   5.111   4.722 -0.7071 -0.6760 -1.2824
17253TIP3   OH273173   1.662   6.018   2.170  0.2171 -0.1822  0.5091
17253TIP3    H173174   1.750   5.979   2.166 -0.4131 -1.7028  0.6268
17253TIP3    H273175   1.629   6.012   2.080  0.0920  0.0159  0.5419
17254TIP3   OH273176   5.265   5.842   2.636  0.0970  0.2305  0.3811
17254TIP3    H173177   5.231   5.859   2.724  1.6719 -1.9701  1.5262
17254TIP3    H273178   5.355   5.875   2.639  0.1133  0.2842 -0.4660
17255TIP3   OH273179   4.760   3.940   1.600 -0.0553 -0.3086  0.2326
17255TIP3    H173180   4.833   3.961   1.657 -0.0935  1.9616 -0.4778
17255TIP3    H273181   4.784   3.855   1.561  1.6850 -0.1112  0.7872
17256TIP3   OH273182   2.932   5.382   1.886  0.2423 -0.5215 -0.0588
17256TIP3    H173183   2.877   5.415   1.957  1.2338  0.4472  0.2888
17256TIP3    H273184   2.968   5.461   1.845  3.6893 -1.0766  1.5820
17257TIP3   OH273185   0.114   1.290  14.586 -0.2956 -0.0776  0.3622
17257TIP3    H173186   0.120   1.285  14.681 -0.4233  0.9344  0.4364
17257TIP3    H273187   0.156   1.210  14.555 -0.4254 -0.5131  1.2678
17258TIP3   OH273188   0.937   2.868  14.208  0.4696 -0.3476 -0.3458
17258TIP3    H173189   0.874   2.933  14.237 -0.0391 -0.8561 -0.2946
17258TIP3    H273190   0.891   2.817  14.141  0.0190 -2.1231  1.2026
17259TIP3   OH273191   6.119   2.386   0.438 -0.3043  0.2959 -0.0208
17259TIP3    H173192   6.199   2.414   0.394 -0.2266  1.5110  0.8313
17259TIP3    H273193   6.137   2.401   0.531 -1.7187  1.1732  0.1470
17260TIP3   OH273194   3.671   5.107  13.458 -0.3319  0.3452  0.3867
17260TIP3    H173195   3.661   5.172  13.388 -2.1208  0.5592  0.7745
17260TIP3    H273196   3.719   5.035  13.418 -1.3483  0.4425 -1.1027
17261TIP3   OH273197   6.156   5.302   4.441 -0.7525 -0.4186  0.1885
17261TIP3    H173198   6.098   5.226   4.431 -1.1198 -0.2709  1.0841
17261TIP3    H273199   6.244   5.264   4.439 -0.6454 -0.3900 -3.7715
17262TIP3   OH273200   1.388   6.308  12.829  0.3661 -0.0876 -0.0262
17262TIP3    H173201   1.348   6.326  12.914  2.2967 -0.9576  1.1071
17262TIP3    H273202   1.379   6.213  12.818  1.5740 -0.2038 -0.0398
17263TIP3   OH273203   4.936   5.288  13.928  0.4238  0.0433  0.7698
17263TIP3    H173204   4.983   5.213  13.963 -1.4268 -0.8128  1.5649
17263TIP3    H273205   4.973   5.363  13.974  1.7207 -0.4607  0.5849
17264TIP3   OH273206   6.539   6.824   4.868 -0.3784  0.2459  0.3066
17264TIP3    H173207   6.509   6.794   4.954 -0.9275  0.7313  0.2857
17264TIP3    H273208   6.552   6.918   4.879 -5.5591  1.4628 -1.4860
17265TIP3   OH273209   3.448   1.158   3.946 -0.8198  0.0443  0.1306
17265TIP3    H173210   3.385   1.087   3.960 -0.1812 -0.1698  2.3780
17265TIP3    H273211   3.403   1.236   3.976 -0.0544 -0.1313  1.8995
17266TIP3   OH273212   4.316   4.107  12.200 -0.4070 -0.1288 -0.6081
17266TIP3    H173213   4.259   4.049  12.250  0.7605  0.0298  1.0022
17266TIP3    H273214   4.257   4.155  12.142 -1.7791 -0.6974  0.2756
17267TIP3   OH273215   2.049   4.094  13.867 -0.2480 -0.4519  0.6286
17267TIP3    H173216   2.088   4.118  13.951  1.0652  0.9326 -0.3166
17267TIP3    H273217   2.122   4.063  13.814 -0.9815 -0.9322 -0.1343
17268TIP3   OH273218   3.931   3.685   2.198  0.0095 -0.4651  0.0722
17268TIP3    H173219   4.025   3.683   2.181  0.0237 -1.1897  0.2123
17268TIP3    H273220   3.923   3.736   2.280  0.3570 -1.1377  0.5313
17269TIP3   OH273221   6.424   4.330   0.592 -0.2904  0.1910  0.3588
17269TIP3    H173222   6.465   4.299   0.512 -0.0220 -0.0932  0.6047
17269TIP3    H273223   6.333   4.302   0.585  0.0967 -1.2662  0.8863
17270TIP3   OH273224   4.222   5.408   4.044  0.0061 -0.3021  0.1172
17270TIP3    H173225   4.273   5.360   3.978  0.3189  0.3908 -0.1548
17270TIP3    H273226   4.154   5.346   4.071  0.9394 -1.2276  0.4355
17271TIP3   OH273227   3.775   0.004   2.923 -0.0431 -0.2331 -0.1134
17271TIP3    H173228   3.797   0.031   3.013  1.0099 -2.5917  0.4030
17271TIP3    H273229   3.842   0.043   2.869 -0.2207  0.5457  0.2085
17272TIP3   OH273230   6.172   6.628   4.621  0.5600  0.1193  0.0742
17272TIP3    H173231   6.086   6.669   4.613  0.5043 -0.3733 -3.0430
17272TIP3    H273232   6.234   6.698   4.601  0.7173 -0.1972 -0.5664
17273TIP3   OH273233   2.120   0.008   5.385  0.3880  0.9330  0.6086
17273TIP3    H173234   2.170  -0.041   5.450 -0.3706  1.6010  1.7377
17273TIP3    H273235   2.036   0.026   5.429 -0.3398  0.9721 -0.7415
17274TIP3   OH273236   0.270   3.792  11.397  0.3394  0.3406  0.7565
17274TIP3    H173237   0.260   3.701  11.423  1.2440 -0.2707 -0.8472
17274TIP3    H273238   0.236   3.843  11.470 -3.0676 -1.2814  0.4515
17275TIP3   OH273239   2.149   1.360  10.968 -0.8888  0.1934  0.0799
17275TIP3    H173240   2.209   1.394  10.902 -0.1382 -0.7801  0.2484
17275TIP3    H273241   2.088   1.304  10.920 -0.5649 -0.2282  0.1588
17276TIP3   OH273242   1.126   1.914  11.542 -0.0869 -0.1914  0.1186
17276TIP3    H173243   1.198   1.870  11.587  1.4336  2.2154  0.2107
17276TIP3    H273244   1.165   1.951  11.463 -0.5613  2.9981  1.2035
17277TIP3   OH273245   2.778   1.043  12.138 -0.1644  0.2967  0.4841
17277TIP3    H173246   2.847   1.105  12.162  0.7049 -0.1766 -0.6383
17277TIP3    H273247   2.794   1.025  12.045 -0.3629 -1.6106  0.7678
17278TIP3   OH273248   2.115   2.493  11.892 -1.0451 -0.6268  0.1014
17278TIP3    H173249   2.188   2.486  11.831 -2.1932  0.7224 -1.5240
17278TIP3    H273250   2.111   2.586  11.915 -1.7472 -0.8185  0.8168
17279TIP3   OH273251   3.975   4.242   0.397  0.0176  0.2794 -0.2160
17279TIP3    H173252   4.052   4.263   0.344  2.8623 -1.7596  2.7524
17279TIP3    H273253   3.959   4.149   0.382 -0.4690  0.1667  0.8800
17280TIP3   OH273254   4.776   5.925  10.148  0.5697  0.4302 -0.1667
17280TIP3    H173255   4.741   5.993  10.206 -3.7365 -0.0991 -1.8283
17280TIP3    H273256   4.808   5.858  10.208 -3.4351  0.0053  1.8322
17281TIP3   OH273257   4.746   3.366  11.042 -0.9061 -0.4762 -0.5265
17281TIP3    H173258   4.774   3.430  10.977 -0.7310 -0.7042 -0.6789
17281TIP3    H273259   4.693   3.304  10.992  1.4816 -2.2244 -1.0629
17282TIP3   OH273260   2.858   4.235   0.166  0.2004 -0.2925 -0.0179
17282TIP3    H173261   2.920   4.170   0.133 -0.9371 -1.0583 -0.7017
17282TIP3    H273262   2.868   4.310   0.106 -1.1253 -1.2841 -1.5643
17283TIP3   OH273263   6.371   1.200   4.268 -0.2491  0.1987 -0.0038
17283TIP3    H173264   6.363   1.245   4.352 -0.9065  0.5843 -0.2652
17283TIP3    H273265   6.464   1.179   4.261 -0.1852  0.1487  0.8229
17284TIP3   OH273266   0.793   3.194  11.871 -0.2750 -0.5664  0.0016
17284TIP3    H173267   0.770   3.160  11.957 -0.0377  0.5334  0.5095
17284TIP3    H273268   0.758   3.283  11.869  0.4737 -0.2688 -0.6994
17285TIP3   OH273269   2.549   1.916  13.362  0.2633  0.1445  0.0750
17285TIP3    H173270   2.578   1.987  13.420 -1.0617  0.7623  0.0203
17285TIP3    H273271   2.454   1.921  13.365  0.0609  1.4986 -3.7032
17286TIP3   OH273272   3.966   3.658  12.747  0.6921 -0.3418  0.1398
17286TIP3    H173273   3.941   3.576  12.704 -0.2677  1.5908 -3.4024
17286TIP3    H273274   3.888   3.685  12.795  0.7138 -1.0178  0.5674
17287TIP3   OH273275   4.325   2.147  14.412 -0.1852 -0.1959 -0.5663
17287TIP3    H173276   4.276   2.072  14.379 -0.3448  0.2738 -1.4281
17287TIP3    H273277   4.372   2.114  14.488  1.3575 -1.7099 -2.0911
17288TIP3   OH273278   5.457   4.286   0.083  0.2969 -0.0218  0.5233
17288TIP3    H173279   5.493   4.277  -0.006  0.2331  0.6672  0.4232
17288TIP3    H273280   5.464   4.379   0.102 -1.2845  0.1079  0.5771
17289TIP3   OH273281   5.296   5.410  11.914 -0.0012  0.0672  0.0801
17289TIP3    H173282   5.389   5.401  11.936  0.5619  1.5251 -1.4683
17289TIP3    H273283   5.256   5.447  11.993  1.0356  0.8314  0.2656
17290TIP3   OH273284   3.634   0.841  15.294  0.4089  0.3048  0.4050
17290TIP3    H173285   3.706   0.782  15.312 -1.6058 -2.0846  1.1920
17290TIP3    H273286   3.616   0.830  15.200 -0.3884 -0.8911  0.6867
17291TIP3   OH273287   0.693   5.398  10.457  0.3145 -0.4549  0.4046
17291TIP3    H173288   0.757   5.448  10.508 -1.7814  0.8656  1.8823
17291TIP3    H273289   0.609   5.435  10.481 -0.9195 -0.4784 -3.3138
17292TIP3   OH273290   6.147   3.514   2.117  0.3420 -0.0667 -0.1734
17292TIP3    H173291   6.217   3.456   2.145 -0.5924 -1.2059 -0.1035
17292TIP3    H273292   6.109   3.548   2.198  0.4369  0.0767 -0.1897
17293TIP3   OH273293   3.384   2.044   4.223  0.5432 -0.0154 -0.2911
17293TIP3    H173294   3.378   2.008   4.135  1.1318 -0.0142 -0.3390
17293TIP3    H273295   3.465   2.005   4.259 -0.3321 -1.0057  0.6926
17294TIP3   OH273296   6.492   0.266   2.599 -0.0701 -0.1274 -0.0231
17294TIP3    H173297   6.487   0.266   2.694  0.2769  2.6748  0.0885
17294TIP3    H273298   6.418   0.320   2.570 -0.3749 -1.2140 -1.3812
17295TIP3   OH273299   5.899   5.260  13.257 -0.1146  0.0424 -0.0735
17295TIP3    H173300   5.919   5.337  13.310 -1.8356  0.9054 -0.6099
17295TIP3    H273301   5.804   5.262  13.246 -0.2793 -2.4136  0.2493
17296TIP3   OH273302   3.358   4.178  12.256  0.2206  0.2375 -0.7921
17296TIP3    H173303   3.327   4.196  12.345 -1.1087  2.3834 -1.5850
17296TIP3    H273304   3.426   4.243  12.241  0.7602 -0.4122 -1.1966
17297TIP3   OH273305   6.692   5.046   6.100 -0.6133  0.9595  0.0100
17297TIP3    H173306   6.734   5.126   6.130 -1.9658  1.1921  1.4152
17297TIP3    H273307   6.621   5.031   6.163 -1.1060 -0.7155 -0.8807
17298TIP3   OH273308   5.474   5.674   3.818  0.0179  0.1276  0.2957
17298TIP3    H173309   5.448   5.720   3.738 -0.2950  0.1188  0.3907
17298TIP3    H273310   5.417   5.710   3.886  0.9561  0.8574  0.7206
17299TIP3   OH273311   1.377   1.903   5.398  0.2376 -0.3586 -0.0492
17299TIP3    H173312   1.336   1.971   5.344 -1.6483 -1.7114 -0.4225
17299TIP3    H273313   1.444   1.949   5.448 -1.2505  1.8828  0.0344
17300TIP3   OH273314   2.780   4.325  14.415 -0.9307  0.1970  0.1518
17300TIP3    H173315   2.862   4.277  14.408 -0.7186  0.7951 -3.6582
17300TIP3    H273316   2.721   4.266  14.462  1.1149 -1.0089  1.3201
17301TIP3   OH273317   0.836   0.126  14.351 -0.6324 -0.1038  0.2603
17301TIP3    H173318   0.897   0.200  14.355 -0.7639  0.1074 -1.1807
17301TIP3    H273319   0.885   0.053  14.390  0.9131 -0.1616 -1.6558
17302TIP3   OH273320   0.376   2.647  13.803  0.5273 -0.3433  0.0181
17302TIP3    H173321   0.392   2.565  13.756  2.4384 -0.6043  1.0471
17302TIP3    H273322   0.288   2.637  13.839  0.1728 -1.3289 -1.0523
17303TIP3   OH273323   6.090   3.725  14.074 -0.8605  0.0652  0.1012
17303TIP3    H173324   6.119   3.745  13.985 -1.0242 -0.8846 -0.1803
17303TIP3    H273325   6.011   3.672  14.061 -2.9849  2.8110  0.8285
17304TIP3   OH273326   2.612   4.471  16.680  0.0543 -0.4704 -0.7153
17304TIP3    H173327   2.595   4.425  16.598 -2.0443  0.2504 -0.7467
17304TIP3    H273328   2.667   4.544  16.655 -0.8182 -0.0782 -1.5795
17305TIP3   OH273329   1.535   2.429   5.706 -0.2370 -0.1204 -0.0300
17305TIP3    H173330   1.621   2.405   5.742  0.5075 -0.0688 -1.6830
17305TIP3    H273331   1.508   2.352   5.656 -0.2963  0.5279 -1.0132
17306TIP3   OH273332   3.683   0.155  11.486  0.1015 -0.5978  0.3655
17306TIP3    H173333   3.694   0.220  11.417  0.3863 -0.7102  0.3008
17306TIP3    H273334   3.772   0.127  11.506 -0.0591 -1.4707 -0.0917
17307TIP3   OH273335   1.257   0.097   0.344  0.3799 -0.3789 -0.1359
17307TIP3    H173336   1.201   0.172   0.365 -0.5652 -0.7510 -1.2410
17307TIP3    H273337   1.231   0.030   0.406 -1.8955 -1.2306 -1.8810
17308TIP3   OH273338   2.673   6.408  14.558  0.2471  0.3520  0.3211
17308TIP3    H173339   2.649   6.435  14.646  0.4437  0.5439  0.3161
17308TIP3    H273340   2.761   6.371  14.567  0.5985  1.1103  0.0744
17309TIP3   OH273341   0.650   0.235  12.867 -0.1167  0.2255  0.1236
17309TIP3    H173342   0.557   0.260  12.871 -0.9322 -2.4144 -0.7459
17309TIP3    H273343   0.683   0.280  12.790 -0.8415  0.6734  0.0621
17310TIP3   OH273344   1.674   6.324   3.208  0.0085  0.2115 -0.0056
17310TIP3    H173345   1.700   6.343   3.298 -0.1409 -0.5567  0.2095
17310TIP3    H273346   1.707   6.236   3.191 -0.9273 -0.1014 -0.3143
17311TIP3   OH273347   3.356   0.178  15.041  0.5445  0.5341  0.2525
17311TIP3    H173348   3.292   0.129  14.988  0.1328  0.8032  0.4945
17311TIP3    H273349   3.302   0.234  15.097  0.9812  0.4435  0.7715
17312TIP3   OH273350   6.633   3.605   2.898  0.2273 -0.8052  0.3554
17312TIP3    H173351   6.666   3.630   2.985  0.5732 -0.5120  0.1418
17312TIP3    H273352   6.657   3.513   2.889  2.1447 -0.2910 -0.3082
17313TIP3   OH273353   1.356   1.320  16.225 -0.2449 -0.4479 -0.0897
17313TIP3    H173354   1.397   1.342  16.309  2.5505 -0.5181 -1.3295
17313TIP3    H273355   1.278   1.375  16.221 -1.1718 -1.2978  3.0255
17314TIP3   OH273356   6.420   3.479  14.773  0.3489  0.7595  0.3939
17314TIP3    H173357   6.381   3.400  14.734  0.9251  0.2494  0.8173
17314TIP3    H273358   6.431   3.539  14.700  0.2265  0.3088 -0.0014
17315TIP3   OH273359   1.966   6.226   4.069  0.2199 -0.1837  0.1747
17315TIP3    H173360   1.970   6.189   3.981 -0.0855 -0.6998  0.3726
17315TIP3    H273361   2.058   6.235   4.095  0.3735  1.3008 -0.7290
17316TIP3   OH273362   3.174   0.505   0.847 -0.3623 -0.1454  0.4309
17316TIP3    H173363   3.193   0.563   0.773  1.4938 -1.5101 -0.2320
17316TIP3    H273364   3.147   0.423   0.806 -0.9876 -0.3835  1.3119
17317TIP3   OH273365   2.268   5.400  13.244 -0.0383  0.5880 -0.6987
17317TIP3    H173366   2.277   5.370  13.154  1.8505  0.9600 -0.6734
17317TIP3    H273367   2.345   5.365  13.289  0.4674  2.5868  0.1191
17318TIP3   OH273368   3.968   0.554  10.130  0.0909  0.4488 -0.0186
17318TIP3    H173369   3.894   0.532  10.186 -0.0041  2.4663  0.7230
17318TIP3    H273370   3.932   0.615  10.066  1.2097  2.0462  0.8047
17319TIP3   OH273371   4.890   1.293   2.432 -0.6389  0.2204 -0.1684
17319TIP3    H173372   4.879   1.200   2.452  2.5293 -0.5367 -1.4199
17319TIP3    H273373   4.940   1.328   2.505 -0.7873  0.6620 -0.2773
17320TIP3   OH273374   5.130   5.915  13.560  0.2034  0.4604  0.4521
17320TIP3    H173375   5.115   5.899  13.653  0.1309 -0.6421  0.2586
17320TIP3    H273376   5.076   5.991  13.539  0.8376  1.2151  1.4804
17321TIP3   OH273377   5.666   0.209  14.412 -0.1149 -0.0194  0.1128
17321TIP3    H173378   5.723   0.270  14.458 -0.1807 -1.4925  2.3033
17321TIP3    H273379   5.585   0.208  14.463 -1.5203  0.7350 -1.9694
17322TIP3   OH273380   0.506   3.528   2.572 -0.0696  0.0327 -0.0619
17322TIP3    H173381   0.437   3.478   2.529 -0.3374  1.5498 -1.4772
17322TIP3    H273382   0.522   3.481   2.654 -1.6098 -1.2789 -0.4665
17323TIP3   OH273383   5.214   4.048   1.157 -0.5122 -0.3976  0.1247
17323TIP3    H173384   5.187   4.126   1.109 -0.5881  0.0537  0.8794
17323TIP3    H273385   5.308   4.040   1.137 -0.5750 -0.3107 -0.2224
17324TIP3   OH273386   4.762   4.958  15.621 -0.3397 -0.1423  0.2776
17324TIP3    H173387   4.845   4.928  15.657  0.4333  0.0189 -1.2917
17324TIP3    H273388   4.786   5.021  15.552 -1.6713 -1.1507 -1.2050
17325TIP3   OH273389   5.928   0.675  16.217 -0.5388 -0.0942 -0.5704
17325TIP3    H173390   5.996   0.651  16.154  0.4877  0.4820  0.2710
17325TIP3    H273391   5.853   0.698  16.163 -0.1563 -0.9868 -1.5225
17326TIP3   OH273392   6.476   4.692   3.686  0.3244  0.6606 -0.2860
17326TIP3    H173393   6.409   4.654   3.629 -0.1028 -0.8854  1.1307
17326TIP3    H273394   6.447   4.669   3.774  1.1445  2.6537  0.5462
17327TIP3   OH273395   3.920   2.628  14.860 -0.7370  0.5260 -0.3506
17327TIP3    H173396   3.981   2.644  14.932 -0.4153  0.1243 -0.5274
17327TIP3    H273397   3.863   2.704  14.859 -0.9857  0.3699  0.5780
17328TIP3   OH273398   1.561   2.369   0.018 -0.1406 -0.1464 -0.1641
17328TIP3    H173399   1.643   2.329   0.049 -0.2826 -1.1460 -1.0210
17328TIP3    H273400   1.518   2.401   0.097  1.2554  0.7589  0.2669
17329TIP3   OH273401   5.586   4.450   4.009  0.1355 -0.0106 -0.7031
17329TIP3    H173402   5.600   4.472   3.916 -0.3586 -1.1981 -1.0719
17329TIP3    H273403   5.504   4.494   4.031 -1.1479 -1.8210 -1.5987
17330TIP3   OH273404   0.794   6.586  12.308 -0.3936  0.3475 -0.2913
17330TIP3    H173405   0.855   6.512  12.300 -1.6593 -0.7433 -0.1052
17330TIP3    H273406   0.721   6.552  12.360 -0.3765  2.1533  1.0097
17331TIP3   OH273407   6.090   1.298   5.299 -0.1209  0.1700 -0.1416
17331TIP3    H173408   6.185   1.309   5.294 -0.1150 -0.3131 -1.8005
17331TIP3    H273409   6.077   1.203   5.309 -0.4351  0.0576 -1.4372
17332TIP3   OH273410   6.880   6.399  13.402 -0.1261  0.3479  0.5612
17332TIP3    H173411   6.903   6.307  13.402  0.9359  0.5682  2.1919
17332TIP3    H273412   6.802   6.405  13.346  1.0932 -1.1472 -1.4093
17333TIP3   OH273413   4.403   1.374   3.858 -0.4813 -0.1946 -0.4292
17333TIP3    H173414   4.312   1.355   3.879 -0.5794 -0.7968 -1.3158
17333TIP3    H273415   4.408   1.470   3.858 -0.8071 -0.1615  0.8166
17334TIP3   OH273416   1.649   1.852   4.566 -0.4649 -0.2028  0.3296
17334TIP3    H173417   1.722   1.843   4.628 -1.3940 -0.7773  1.3646
17334TIP3    H273418   1.673   1.796   4.492  0.5984  0.4021  0.1856
17335TIP3   OH273419   5.349   2.625  15.691 -0.0789  0.6019  0.2229
17335TIP3    H173420   5.302   2.618  15.774 -0.6011 -0.2798 -0.1334
17335TIP3    H273421   5.284   2.603  15.625  1.3988 -3.5867 -0.1408
17336TIP3   OH273422   4.851   0.052   5.840 -0.1478 -0.2944 -0.2812
17336TIP3    H173423   4.857   0.148   5.841 -1.3366 -0.1934  1.0189
17336TIP3    H273424   4.940   0.022   5.823  0.2117  1.0376 -0.8486
17337TIP3   OH273425   4.701   4.250  14.261 -0.4165  0.3299 -0.5538
17337TIP3    H173426   4.714   4.239  14.167  0.4069  1.4647 -0.6043
17337TIP3    H273427   4.767   4.193  14.301 -2.4297 -2.1577 -0.5592
17338TIP3   OH273428   1.401   1.742   1.897 -0.1620  0.0176 -0.3527
17338TIP3    H173429   1.394   1.832   1.929 -2.3351 -0.9774  2.4111
17338TIP3    H273430   1.362   1.745   1.810 -1.3088  1.5448  0.1660
17339TIP3   OH273431   4.073   3.233   0.150  0.4072  0.5365  0.5001
17339TIP3    H173432   4.107   3.280   0.226 -0.5805 -2.5486  3.0494
17339TIP3    H273433   4.041   3.302   0.092 -1.0153  3.0630  3.9514
17340TIP3   OH273434   1.344   0.242   0.080  0.7991  0.1648  0.3910
17340TIP3    H173435   1.398   0.277   0.010  0.6235 -0.7534 -0.2128
17340TIP3    H273436   1.406   0.201   0.140  0.9113  0.5607  0.5468
17341TIP3   OH273437   5.685   6.009  13.234  0.4071  0.0882  0.3775
17341TIP3    H173438   5.628   6.010  13.157  2.6530  2.7219 -1.4391
17341TIP3    H273439   5.628   6.037  13.306 -1.2343 -0.1732 -0.7594
17342TIP3   OH273440   6.284   0.893   1.236 -0.3439  0.2158 -0.4855
17342TIP3    H173441   6.227   0.969   1.244 -0.5314  0.1527 -1.1426
17342TIP3    H273442   6.358   0.924   1.184 -0.5994 -0.1422 -1.0707
17343TIP3   OH273443   2.905   4.939   4.933 -0.2534 -0.2127 -0.0750
17343TIP3    H173444   2.899   5.028   4.898 -0.8825  0.6339  2.0138
17343TIP3    H273445   2.853   4.941   5.014  2.7676 -1.3764  2.0999
17344TIP3   OH273446   1.927   3.848   2.212  0.5182 -0.0177  0.2845
17344TIP3    H173447   1.868   3.895   2.271 -0.2463 -0.9990  0.3423
17344TIP3    H273448   1.918   3.892   2.128  0.9503  0.8485  0.6776
17345TIP3   OH273449   4.095   2.207  15.583 -0.0328  0.1514  0.1298
17345TIP3    H173450   4.092   2.191  15.489 -0.5875 -0.5007  0.2456
17345TIP3    H273451   4.151   2.137  15.618  0.1122  0.3457  0.2870
17346TIP3   OH273452   2.152   1.314   2.357 -0.2815  0.2971  0.3708
17346TIP3    H173453   2.191   1.228   2.374  0.2450 -0.1916 -2.5968
17346TIP3    H273454   2.224   1.375   2.366  0.2334 -0.0752 -0.8754
17347TIP3   OH273455   2.779   4.110   2.163 -0.2735  0.2148 -0.0644
17347TIP3    H173456   2.744   4.135   2.077 -2.1866 -0.0437  0.5962
17347TIP3    H273457   2.740   4.024   2.180  0.5994 -0.0243  0.7967
17348TIP3   OH273458   2.631   2.397   0.868  0.5605 -0.1476 -0.2719
17348TIP3    H173459   2.666   2.317   0.907 -0.9553  0.4079  2.4961
17348TIP3    H273460   2.611   2.453   0.942  0.4149  2.3400 -2.0741
17349TIP3   OH273461   1.184   0.651  15.818 -0.7453  0.5907 -0.0600
17349TIP3    H173462   1.213   0.740  15.799  0.0678 -0.0095 -1.9499
17349TIP3    H273463   1.226   0.629  15.901  2.8531  0.4651 -1.7045
17350TIP3   OH273464   2.612   4.849  11.298  0.2166 -0.2972 -0.2798
17350TIP3    H173465   2.520   4.873  11.290  0.0042 -1.3257 -1.1216
17350TIP3    H273466   2.654   4.928  11.334 -0.4934  1.2409 -2.5780
17351TIP3   OH273467   0.621   3.519   1.991  0.3811  0.3839 -1.2230
17351TIP3    H173468   0.716   3.521   1.977  0.8811  0.9836  1.6219
17351TIP3    H273469   0.610   3.542   2.083 -2.5180 -0.2798 -1.3070
17352TIP3   OH273470   2.797   2.322   6.505  0.0478  0.5061 -0.0965
17352TIP3    H173471   2.828   2.249   6.451 -0.8225 -0.0291  0.1082
17352TIP3    H273472   2.717   2.289   6.546 -2.4919  2.7560 -2.8140
17353TIP3   OH273473   1.007   0.918  13.965  0.7512  0.1141 -0.1793
17353TIP3    H173474   0.991   0.845  13.905 -1.1142  0.5440 -0.2506
17353TIP3    H273475   1.098   0.906  13.992  0.8638 -1.5398 -1.1145
17354TIP3   OH273476   3.718   3.125  16.275 -0.2363 -0.1137 -0.2228
17354TIP3    H173477   3.711   3.073  16.195 -1.3228  1.1068 -0.9642
17354TIP3    H273478   3.644   3.095  16.328 -0.3197  0.0410 -0.2539
17355TIP3   OH273479   5.847   2.425   4.780 -0.1238  0.3563 -0.6637
17355TIP3    H173480   5.781   2.369   4.740 -0.4878  0.8891 -0.8275
17355TIP3    H273481   5.890   2.468   4.706  0.2793  0.1525 -0.5498
17356TIP3   OH273482   1.859   2.924  11.923  0.5181 -0.2626 -0.0635
17356TIP3    H173483   1.870   2.843  11.873 -1.6716 -0.2255 -0.7249
17356TIP3    H273484   1.847   2.992  11.857 -1.2791 -0.0311  0.4342
17357TIP3   OH273485   3.015   4.055   5.946  0.6735 -0.0526  0.2549
17357TIP3    H173486   3.053   4.050   5.859  1.6244  0.6473  0.6026
17357TIP3    H273487   3.025   4.147   5.971  0.4404 -0.2450  1.1050
17358TIP3   OH273488   3.483   6.880  11.407 -0.0794 -0.5039 -0.7310
17358TIP3    H173489   3.534   6.955  11.438 -1.5686  0.0472  0.5263
17358TIP3    H273490   3.396   6.916  11.389 -0.1530 -1.4741 -2.5113
17359TIP3   OH273491   5.595   4.740   1.579 -0.2511 -0.6020 -0.1204
17359TIP3    H173492   5.630   4.652   1.587 -1.1261 -1.0722 -1.1716
17359TIP3    H273493   5.626   4.786   1.657  2.0994 -1.1534 -0.6827
17360TIP3   OH273494   1.071   1.312   0.089  0.3691 -0.1168  0.4892
17360TIP3    H173495   1.143   1.308   0.026  2.1693 -1.5952  2.4844
17360TIP3    H273496   1.098   1.378   0.153  1.6748 -2.8208  3.0022
17361TIP3   OH273497   2.085   6.102   0.317 -0.1286 -0.0689  0.2295
17361TIP3    H173498   2.098   6.181   0.265  1.2586 -0.3604  0.0922
17361TIP3    H273499   2.119   6.031   0.262 -3.2262 -1.1060 -0.5459
17362TIP3   OH273500   3.724   1.187   4.019  0.7239 -0.0583 -0.0971
17362TIP3    H173501   3.633   1.179   3.989  0.5167 -1.5863  0.8276
17362TIP3    H273502   3.717   1.215   4.110  1.2273  0.7309 -0.2889
17363TIP3   OH273503   0.024   0.357   5.938 -0.0713  0.1838 -0.0061
17363TIP3    H173504   0.065   0.442   5.955  0.5369  0.0086 -0.5914
17363TIP3    H273505   0.070   0.296   5.996 -0.0698  0.1324 -0.0618
17364TIP3   OH273506   1.223   5.990   4.549  0.4447  0.2445 -0.0267
17364TIP3    H173507   1.264   5.921   4.497 -0.2934  0.6022 -1.1054
17364TIP3    H273508   1.234   5.961   4.640 -1.2863 -2.1153 -0.4902
17365TIP3   OH273509   0.236   5.248   1.090 -0.3545 -0.6350 -0.0492
17365TIP3    H173510   0.249   5.301   1.169  0.9120  0.5620 -1.0057
17365TIP3    H273511   0.155   5.200   1.107 -0.8191  0.5741  1.4328
17366TIP3   OH273512   5.525   4.192  10.966  0.2486 -0.3184  0.6265
17366TIP3    H173513   5.583   4.117  10.952  1.3698  0.6589 -0.1618
17366TIP3    H273514   5.462   4.189  10.894  0.0408 -0.7268  0.8257
17367TIP3   OH273515   5.156   6.456  11.670 -0.4042  0.0737  0.6675
17367TIP3    H173516   5.144   6.368  11.635 -0.0549 -0.2126  1.2614
17367TIP3    H273517   5.089   6.508  11.625 -0.7413 -0.5283  0.4564
17368TIP3   OH273518   4.624   5.887  14.643 -0.5123 -0.5876  0.7176
17368TIP3    H173519   4.539   5.889  14.598 -1.1014  0.3851  1.8257
17368TIP3    H273520   4.602   5.874  14.735  0.3811  1.6231  1.2983
17369TIP3   OH273521   6.709   0.410   6.222 -0.3261  0.1347  0.2514
17369TIP3    H173522   6.636   0.385   6.166  1.0508  0.5353 -1.8475
17369TIP3    H273523   6.745   0.489   6.181  2.2743 -0.9708  0.1963
17370TIP3   OH273524   0.542   2.957  10.256  0.0943  0.2666  0.7448
17370TIP3    H173525   0.621   2.919  10.295  1.0898 -2.2855 -3.1355
17370TIP3    H273526   0.491   2.881  10.226 -0.8383  1.8514 -2.0931
17371TIP3   OH273527   3.580   3.801   3.186 -0.2809  0.1294 -0.4679
17371TIP3    H173528   3.663   3.772   3.225  0.8835  0.4609 -2.5066
17371TIP3    H273529   3.523   3.820   3.260 -0.6729 -5.7313  1.2355
17372TIP3   OH273530   4.254   1.921   0.804  0.2517  0.5342 -0.6282
17372TIP3    H173531   4.266   1.911   0.898  3.4396  0.3945 -0.9564
17372TIP3    H273532   4.209   1.840   0.777  1.8483 -0.7609  0.4228
17373TIP3   OH273533   6.793   2.013  14.214  0.0779  0.3918 -0.4192
17373TIP3    H173534   6.743   2.094  14.210 -0.1604  0.4934  2.4889
17373TIP3    H273535   6.733   1.946  14.183 -0.6039  0.9905 -0.4051
17374TIP3   OH273536   6.777   0.026   0.934 -0.1118 -0.4475  0.0174
17374TIP3    H173537   6.805   0.095   0.874 -2.8022 -0.4288 -1.3630
17374TIP3    H273538   6.842  -0.044   0.923  1.3790  0.9376 -0.2635
17375TIP3   OH273539   3.572   1.521  11.337  0.2496  0.2221  0.0005
17375TIP3    H173540   3.661   1.521  11.374  0.6660 -1.4708 -0.8964
17375TIP3    H273541   3.586   1.510  11.243 -0.9091  0.9689 -0.2745
17376TIP3   OH273542   6.240   6.175   3.214  0.2900 -0.1374  0.3048
17376TIP3    H173543   6.166   6.235   3.215 -0.3319 -0.8851  1.9670
17376TIP3    H273544   6.213   6.104   3.156 -0.2791 -0.3702  0.8439
17377TIP3   OH273545   0.678   2.503  10.004  0.1569 -0.2413 -0.3397
17377TIP3    H173546   0.758   2.451  10.007 -0.4080 -1.1299 -0.1037
17377TIP3    H273547   0.705   2.588   9.969  1.2855 -0.3480  0.2236
17378TIP3   OH273548   5.408   6.003  14.854 -0.4481  0.3336 -0.3601
17378TIP3    H173549   5.490   6.039  14.887 -0.6751  2.2933 -1.8186
17378TIP3    H273550   5.341   6.041  14.911 -0.5872  1.3255 -1.1637
17379TIP3   OH273551   0.361   3.912  15.848 -0.4884 -0.1962 -0.4620
17379TIP3    H173552   0.455   3.928  15.862 -0.6909  0.7373 -0.0927
17379TIP3    H273553   0.325   3.999  15.830 -1.4230 -0.4402  0.1952
17380TIP3   OH273554   2.108   0.251  14.290  0.5530  0.1371 -0.8088
17380TIP3    H173555   2.193   0.250  14.247  0.4302  0.0912 -1.0539
17380TIP3    H273556   2.055   0.190  14.239  0.9009 -1.2502  0.4130
17381TIP3   OH273557   2.174   2.108   4.173  0.3388  0.0738 -0.4088
17381TIP3    H173558   2.230   2.042   4.130 -0.8827  0.4700 -2.7622
17381TIP3    H273559   2.127   2.059   4.240  2.6316 -0.4906  0.9110
17382TIP3   OH273560   6.365   3.542  13.266 -0.1044  0.1726 -0.2265
17382TIP3    H173561   6.373   3.452  13.298  2.7064  0.2919 -0.3691
17382TIP3    H273562   6.421   3.546  13.189  1.0263  2.3675  0.6090
17383TIP3   OH273563   1.577   3.446   5.815  0.0406  0.3278  0.1947
17383TIP3    H173564   1.661   3.427   5.857  0.2113  0.1511 -0.2209
17383TIP3    H273565   1.560   3.538   5.834  0.4951  0.4543 -0.0042
17384TIP3   OH273566   1.684   0.615  14.479  0.2310  0.1643 -1.0121
17384TIP3    H173567   1.695   0.548  14.411  1.9620 -1.2672  0.5876
17384TIP3    H273568   1.605   0.588  14.527  1.4392 -1.3638  0.2173
17385TIP3   OH273569   6.020   3.690  11.778  0.1818  1.0616  0.6079
17385TIP3    H173570   6.019   3.670  11.684  1.3273  0.2906  0.7347
17385TIP3    H273571   5.928   3.696  11.802 -0.3533 -2.6600  0.1852
17386TIP3   OH273572   6.743   2.755  14.776  0.0031  1.0031 -0.1791
17386TIP3    H173573   6.650   2.758  14.800 -0.1531 -0.2101 -0.6034
17386TIP3    H273574   6.775   2.843  14.797 -0.9873  1.1226  0.9806
17387TIP3   OH273575   4.288   5.213  13.482 -0.2750  0.1745 -0.4998
17387TIP3    H173576   4.200   5.177  13.485  0.0468 -0.8200 -1.9399
17387TIP3    H273577   4.325   5.195  13.568 -0.5039 -2.0087 -0.8153
17388TIP3   OH273578   3.548   4.497   1.712  0.1089  0.6875  0.1167
17388TIP3    H173579   3.528   4.573   1.657 -0.0065  0.6959  0.1710
17388TIP3    H273580   3.478   4.495   1.777  0.2720  0.7060  0.2934
17389TIP3   OH273581   4.100   5.542   2.747  0.5583 -0.6551 -0.4279
17389TIP3    H173582   4.109   5.627   2.789 -2.9561 -0.5752  0.4221
17389TIP3    H273583   4.184   5.529   2.702  1.2115  3.2460 -0.6667
17390TIP3   OH273584   0.058   4.955  11.750  0.3329  0.1264 -0.2716
17390TIP3    H173585   0.085   4.941  11.841 -1.7108 -0.1188  0.3451
17390TIP3    H273586   0.124   5.015  11.715  1.1579  0.2493  1.3622
17391TIP3   OH273587   4.467   4.317  16.157 -0.0736 -0.2053 -0.2736
17391TIP3    H173588   4.429   4.234  16.128 -1.4317  0.0694  0.6559
17391TIP3    H273589   4.414   4.343  16.232  0.1428  1.6529 -0.7211
17392TIP3   OH273590   5.502   3.365   0.065 -0.1090  0.0305 -0.5693
17392TIP3    H173591   5.541   3.437   0.115 -1.5177  0.1377  0.4333
17392TIP3    H273592   5.572   3.337   0.005  0.3755  2.4065 -1.2214
17393TIP3   OH273593   2.218   1.529  11.190  0.6335 -0.6659  0.1695
17393TIP3    H173594   2.199   1.467  11.121  1.2039 -1.4390  0.6957
17393TIP3    H273595   2.133   1.543  11.233  0.4832 -0.9923 -0.0186
17394TIP3   OH273596   2.404   2.292  10.972 -0.0701  0.0079 -0.0276
17394TIP3    H173597   2.408   2.387  10.973  0.5485  0.0461 -1.7743
17394TIP3    H273598   2.471   2.266  10.909 -1.2834 -1.4828 -0.7686
17395TIP3   OH273599   3.257   2.289  13.731 -0.2662  0.1997  0.2698
17395TIP3    H173600   3.322   2.300  13.661  0.1721  0.2328  0.6754
17395TIP3    H273601   3.256   2.373  13.776  0.4326 -0.2264  1.1258
17396TIP3   OH273602   2.854   2.680   0.943 -0.5099  0.2651  0.1057
17396TIP3    H173603   2.792   2.754   0.943 -0.7496  0.0794 -0.8387
17396TIP3    H273604   2.885   2.675   0.853 -1.4067 -1.5330 -0.1479
17397TIP3   OH273605   5.040   3.640  15.275  0.5808  0.1751 -0.3564
17397TIP3    H173606   5.022   3.682  15.191 -0.0194 -1.0780 -0.8868
17397TIP3    H273607   5.016   3.548  15.262 -2.8814  0.4992  2.1486
17398TIP3   OH273608   6.755   3.795  13.997  0.0703  0.3688 -0.6828
17398TIP3    H173609   6.774   3.820  14.087 -0.1803 -0.7543 -0.2988
17398TIP3    H273610   6.731   3.877  13.953 -0.5300  0.8204  0.4559
17399TIP3   OH273611   5.894   4.946   4.610  0.0564 -0.7633 -0.2736
17399TIP3    H173612   5.867   4.955   4.701  0.6889 -0.4840 -0.1060
17399TIP3    H273613   5.833   4.883   4.573  0.0948 -1.2540  0.4704
17400TIP3   OH273614   0.420   4.318   2.656 -0.5516 -0.1884  0.0026
17400TIP3    H173615   0.469   4.380   2.602  0.1042 -0.2842  0.4852
17400TIP3    H273616   0.422   4.356   2.744  0.2561 -1.1324  0.3956
17401TIP3   OH273617   5.653   5.309  16.065 -0.0247 -0.0212 -0.4274
17401TIP3    H173618   5.684   5.345  15.982 -0.3198 -1.6441 -1.2859
17401TIP3    H273619   5.732   5.298  16.118  0.2742  0.2046 -0.8202
17402TIP3   OH273620   3.798   2.428   1.700 -0.3037  0.0475  0.0587
17402TIP3    H173621   3.881   2.412   1.744  0.2454  0.5780 -0.7506
17402TIP3    H273622   3.733   2.431   1.770  0.6758  1.8672  0.9586
17403TIP3   OH273623   4.033   3.978  11.321 -0.1786  0.3567 -0.1016
17403TIP3    H173624   3.955   3.940  11.283 -0.9170 -0.0491  1.7072
17403TIP3    H273625   4.087   3.903  11.348  0.6121  0.6304 -0.8575
17404TIP3   OH273626   6.282   4.045   5.744 -0.4235 -0.0101  0.9176
17404TIP3    H173627   6.260   4.081   5.830  0.5067  0.8772  0.7982
17404TIP3    H273628   6.303   3.953   5.762 -1.5680 -0.1975  1.4130
17405TIP3   OH273629   0.692   4.487   5.040  0.1003 -0.0752 -0.4672
17405TIP3    H173630   0.682   4.413   4.980 -1.0338  0.1067 -0.5163
17405TIP3    H273631   0.664   4.453   5.125 -1.1898  0.4980 -0.6421
17406TIP3   OH273632   0.731   5.461   6.294 -0.2035  0.3809 -0.2810
17406TIP3    H173633   0.796   5.528   6.315 -1.4320  1.9535 -1.2967
17406TIP3    H273634   0.777   5.400   6.237  0.5526  1.1221 -0.4858
17407TIP3   OH273635   2.545   0.355   1.803  0.4833  0.2441  0.2677
17407TIP3    H173636   2.632   0.348   1.763  0.7284 -2.1881  1.0213
17407TIP3    H273637   2.492   0.292   1.754 -0.3338  0.2967  1.0746
17408TIP3   OH273638   4.599   5.434   5.580 -0.1039  0.1860 -0.0911
17408TIP3    H173639   4.555   5.474   5.654  0.1291 -1.7495  1.1518
17408TIP3    H273640   4.680   5.398   5.616  1.2937  1.3849 -1.8091
17409TIP3   OH273641   2.993   3.922  14.610  0.1478  0.1973 -0.0267
17409TIP3    H173642   2.902   3.944  14.593 -0.2896 -0.7261  1.0042
17409TIP3    H273643   3.003   3.833  14.577  0.7040  0.3145 -0.1970
17410TIP3   OH273644   3.762   2.844   1.367 -0.3057  0.1561  0.0481
17410TIP3    H173645   3.842   2.894   1.355 -0.5499  0.5413  0.0029
17410TIP3    H273646   3.791   2.757   1.396  0.0676  0.7320  1.4680
17411TIP3   OH273647   0.194   2.560   4.416  0.1819 -0.2979  0.0423
17411TIP3    H173648   0.223   2.646   4.447 -1.9490 -0.1062  1.7740
17411TIP3    H273649   0.232   2.498   4.478 -0.4901 -0.3283  0.4344
17412TIP3   OH273650   6.055   2.508   3.900 -0.0825 -1.1770  0.3823
17412TIP3    H173651   5.971   2.462   3.892 -0.7428 -0.0621  0.6445
17412TIP3    H273652   6.111   2.467   3.834 -0.6158 -2.3808  0.6360
17413TIP3   OH273653   0.121   0.344   0.018 -0.6332 -0.5230  0.5710
17413TIP3    H173654   0.139   0.257  -0.016 -1.2838  0.3561 -2.2540
17413TIP3    H273655   0.206   0.375   0.050  0.2896 -1.0350 -1.2590
17414TIP3   OH273656   3.020   0.699  12.062 -0.3800  0.0611 -0.5099
17414TIP3    H173657   2.980   0.731  12.142 -0.1300  0.3651 -0.5044
17414TIP3    H273658   3.100   0.750  12.053 -0.7709  0.5501 -1.3430
17415TIP3   OH273659   0.283   6.732  15.303  0.4037  0.1872  0.4043
17415TIP3    H173660   0.197   6.750  15.341  0.1904 -1.9267  1.0449
17415TIP3    H273661   0.343   6.790  15.349 -0.6438  1.6943 -0.0527
17416TIP3   OH273662   4.178   6.404  12.972 -0.0775  0.2247  0.0837
17416TIP3    H173663   4.126   6.323  12.976  0.6645 -0.2733 -0.1234
17416TIP3    H273664   4.134   6.464  13.032 -1.0468 -0.0893 -0.2950
17417TIP3   OH273665   6.448   0.896   5.743  0.3630 -0.2089 -0.2604
17417TIP3    H173666   6.421   0.832   5.677  0.1414  0.2314 -0.5985
17417TIP3    H273667   6.372   0.904   5.801  0.0527  0.4194 -0.7412
17418TIP3   OH273668   3.639   2.849  11.437 -0.6396 -0.3673  0.3304
17418TIP3    H173669   3.612   2.787  11.505  1.0444 -1.7538 -0.1895
17418TIP3    H273670   3.605   2.811  11.356 -0.7151  0.0806  0.1513
17419TIP3   OH273671   5.512   2.197   3.706 -0.2988  0.3911  0.5189
17419TIP3    H173672   5.608   2.194   3.698 -0.3858 -1.1744 -0.3560
17419TIP3    H273673   5.483   2.113   3.670 -1.9049  0.1837  2.1677
17420TIP3   OH273674   5.690   4.779   1.823 -0.0585  0.6779  0.8322
17420TIP3    H173675   5.648   4.706   1.869 -0.0841  0.1010 -0.0868
17420TIP3    H273676   5.778   4.746   1.803  0.1622  1.1549  1.0066
17421TIP3   OH273677   4.706   6.309   5.014  0.2756 -0.0205 -0.6087
17421TIP3    H173678   4.637   6.349   5.067 -0.1293 -0.0010 -1.1382
17421TIP3    H273679   4.771   6.378   5.004 -0.5867  0.6736 -1.8258
17422TIP3   OH273680   3.560   4.344   0.035  0.2170  0.0209 -0.0064
17422TIP3    H173681   3.630   4.350   0.100  1.0659  2.5228 -1.0177
17422TIP3    H273682   3.597   4.288  -0.034  0.4391 -0.2883  0.3577
17423TIP3   OH273683   3.289   2.370   5.161 -0.2453  0.4101 -0.3758
17423TIP3    H173684   3.202   2.367   5.202  0.5563  0.1241  1.4072
17423TIP3    H273685   3.326   2.454   5.189  1.1712 -0.7327  1.4283
17424TIP3   OH273686   4.918   0.926  12.167 -0.1575  0.1526 -0.3017
17424TIP3    H173687   4.983   0.974  12.219  0.2273 -0.1276 -0.5182
17424TIP3    H273688   4.846   0.988  12.155 -0.9873 -0.3021  1.9402
17425TIP3   OH273689   0.238   5.353   1.791 -0.7573  0.5521 -0.0088
17425TIP3    H173690   0.266   5.423   1.731 -1.6320  2.1292  1.3482
17425TIP3    H273691   0.313   5.341   1.850  0.0570 -0.9166 -1.2654
17426TIP3   OH273692   5.260   0.808   0.382 -0.2126 -0.0410 -0.3413
17426TIP3    H173693   5.317   0.875   0.345  1.5420 -0.3018  1.6920
17426TIP3    H273694   5.208   0.854   0.448  0.2850 -0.4776  0.3651
17427TIP3   OH273695   1.014   2.070   3.353 -0.0538  0.2808 -0.2115
17427TIP3    H173696   0.998   2.147   3.298 -1.4415  1.0406  1.1941
17427TIP3    H273697   1.002   2.101   3.442 -0.6193 -1.5667  0.3978
17428TIP3   OH273698   1.504   6.726   9.749 -0.3423 -0.1219 -0.3020
17428TIP3    H173699   1.433   6.790   9.744 -1.4028 -1.3501 -1.8354
17428TIP3    H273700   1.544   6.728   9.661  0.3538 -0.7351 -0.0096
17429TIP3   OH273701   4.111   1.353  14.755  0.7848 -0.1831 -0.6397
17429TIP3    H173702   4.091   1.260  14.757  2.1410 -0.5178 -1.4654
17429TIP3    H273703   4.149   1.372  14.841 -0.2477 -0.1798 -0.1623
17430TIP3   OH273704   6.688   1.433   2.512  1.1072  0.0166  0.1602
17430TIP3    H173705   6.680   1.338   2.504  0.7006 -0.0326  1.0291
17430TIP3    H273706   6.599   1.464   2.528  1.4669  0.3285  1.7652
17431TIP3   OH273707   5.209   5.797  14.366 -0.0550 -0.3582 -0.6281
17431TIP3    H173708   5.296   5.828  14.340  0.2428 -0.1238  0.5788
17431TIP3    H273709   5.204   5.816  14.460 -1.7419  0.4092 -0.8357
17432TIP3   OH273710   1.910   4.423  12.284  0.3493 -0.0939  0.1004
17432TIP3    H173711   1.892   4.474  12.362  1.1540 -0.6593  0.6790
17432TIP3    H273712   1.824   4.399  12.249 -0.0174 -0.6579  1.3635
17433TIP3   OH273713   5.000   5.432  10.494  0.0332  0.0850 -0.1109
17433TIP3    H173714   5.040   5.387  10.419  1.4864 -4.3627  2.8885
17433TIP3    H273715   4.909   5.403  10.492 -0.3640  1.3332 -0.9898
17434TIP3   OH273716   1.070   0.840   0.462  0.7285 -0.3835 -0.6747
17434TIP3    H173717   1.117   0.894   0.525  0.2737 -1.9352  1.0621
17434TIP3    H273718   1.107   0.753   0.471 -1.0919 -1.2153 -0.6803
17435TIP3   OH273719   1.504   0.315  14.771 -0.2575 -0.0901 -0.0907
17435TIP3    H173720   1.424   0.362  14.795  0.4254  0.2139  1.7047
17435TIP3    H273721   1.475   0.225  14.756 -0.8738 -0.1002  1.0362
17436TIP3   OH273722   4.717   0.308  14.630 -0.0754  0.0974 -0.1886
17436TIP3    H173723   4.746   0.217  14.635  2.6927  0.9284  0.4022
17436TIP3    H273724   4.708   0.335  14.721  0.2169  0.7158 -0.3389
17437TIP3   OH273725   0.883   0.661   4.256 -0.2879 -0.5499 -0.2777
17437TIP3    H173726   0.928   0.679   4.173 -0.0443 -0.1274 -0.0532
17437TIP3    H273727   0.800   0.621   4.229  0.1012 -1.0824 -0.7008
17438TIP3   OH273728   4.171   5.025  16.252 -0.5906 -0.2995 -0.6163
17438TIP3    H173729   4.117   5.094  16.289  2.4699  1.2523  1.3835
17438TIP3    H273730   4.172   4.956  16.319  0.0465 -0.2014 -0.5113
17439TIP3   OH273731   6.366   3.467  11.249  0.1422 -0.5063 -0.4881
17439TIP3    H173732   6.285   3.514  11.265 -0.8529 -2.2737 -0.0632
17439TIP3    H273733   6.433   3.516  11.298 -0.6329  0.9938 -0.8900
17440TIP3   OH273734   6.425   2.878  11.102  0.0215  0.2693  0.4126
17440TIP3    H173735   6.509   2.838  11.123  0.5129  0.6457 -0.7171
17440TIP3    H273736   6.439   2.972  11.113  0.3553  0.5070 -1.5562
17441TIP3   OH273737   6.447   4.537  13.455 -0.3274 -0.3839 -1.0080
17441TIP3    H173738   6.428   4.462  13.512  0.6694 -1.3364 -1.8766
17441TIP3    H273739   6.521   4.581  13.497  0.0945 -0.8025 -1.3092
17442TIP3   OH273740   3.551   0.331   4.299 -0.4354  0.6648 -0.0988
17442TIP3    H173741   3.491   0.299   4.367 -4.7902 -0.3951 -3.9692
17442TIP3    H273742   3.536   0.426   4.297 -0.5381  0.6557  0.2012
17443TIP3   OH273743   3.490   0.085  16.710 -0.3452  0.0884 -0.3600
17443TIP3    H173744   3.555   0.115  16.646  0.9006 -0.9829  0.3525
17443TIP3    H273745   3.514   0.130  16.791  0.5985 -1.5713  0.3334
17444TIP3   OH273746   3.579   0.621   1.099 -0.3020  0.1329 -0.2173
17444TIP3    H173747   3.592   0.553   1.033 -0.7543  0.5072 -0.7038
17444TIP3    H273748   3.485   0.638   1.098 -0.8488 -1.9691  2.6698
17445TIP3   OH273749   0.016   6.231  15.554  0.0470  0.0835  0.0070
17445TIP3    H173750   0.007   6.324  15.573 -0.4267  0.2657 -1.0083
17445TIP3    H273751   0.098   6.205  15.595  1.1063  1.3730 -1.2044
17446TIP3   OH273752   6.756   2.268  12.329 -0.1205 -0.4578  0.4090
17446TIP3    H173753   6.673   2.304  12.359  0.1346  1.2094 -0.7479
17446TIP3    H273754   6.732   2.213  12.254 -0.1665  0.3271 -0.1639
17447TIP3   OH273755   0.917   1.907   4.970 -0.1198  0.4872  0.3840
17447TIP3    H173756   0.915   1.812   4.955 -0.0935  0.6095 -0.4456
17447TIP3    H273757   0.827   1.929   4.996 -0.3714  0.3775 -0.3787
17448TIP3   OH273758   4.095   5.451   4.355  0.5978  0.2749 -0.2851
17448TIP3    H173759   4.118   5.410   4.271  2.4894 -1.4644  0.9905
17448TIP3    H273760   4.177   5.489   4.386  0.1740 -0.0505  1.2800
17449TIP3   OH273761   6.370   5.903   0.953 -0.1113  0.5110 -0.2886
17449TIP3    H173762   6.323   5.943   1.027 -1.5259  1.2358 -1.5178
17449TIP3    H273763   6.352   5.962   0.880  1.8184  0.1745 -1.0844
17450TIP3   OH273764   4.481   2.686  12.955 -0.2631 -0.0591 -0.4169
17450TIP3    H173765   4.487   2.619  12.886  0.1429  2.4656 -3.0543
17450TIP3    H273766   4.548   2.750  12.931 -0.7746  1.4169  1.8410
17451TIP3   OH273767   5.774   3.595  16.090 -0.3886 -0.0777 -0.5254
17451TIP3    H173768   5.858   3.554  16.109 -0.5621  0.0850  0.6885
17451TIP3    H273769   5.781   3.683  16.127 -0.1821  0.8791 -2.7052
17452TIP3   OH273770   1.163   2.805   0.479  0.5561 -0.4246  0.2869
17452TIP3    H173771   1.251   2.769   0.484  0.4594 -0.6481  0.3797
17452TIP3    H273772   1.167   2.887   0.528  0.7538 -0.3544  0.1523
17453TIP3   OH273773   2.037   4.216   5.199  0.3692 -0.2475  0.3215
17453TIP3    H173774   2.014   4.233   5.290 -0.2956 -0.5713  0.2178
17453TIP3    H273775   2.115   4.269   5.184 -0.2838  0.8600  0.6975
17454TIP3   OH273776   1.392   2.740  15.365 -0.3141  0.1219  0.7946
17454TIP3    H173777   1.328   2.704  15.304 -2.1145  0.6831  2.2679
17454TIP3    H273778   1.476   2.731  15.319 -1.1965 -2.1082 -0.5546
17455TIP3   OH273779   5.636   1.737   0.581  0.0820 -0.1807 -0.0433
17455TIP3    H173780   5.712   1.794   0.571  1.5214 -1.9833  0.1879
17455TIP3    H273781   5.575   1.788   0.634 -0.4267  2.6802 -3.0270
17456TIP3   OH273782   6.284   0.528  13.275 -0.2563  0.5171 -0.0097
17456TIP3    H173783   6.273   0.500  13.184 -1.9065  0.0310  0.3118
17456TIP3    H273784   6.284   0.447  13.325  2.3537  0.6535  0.3292
17457TIP3   OH273785   5.849   1.844   3.666  0.2140 -0.0231  0.2906
17457TIP3    H173786   5.938   1.864   3.694  1.4133 -1.3254 -2.2368
17457TIP3    H273787   5.825   1.767   3.717  1.4166 -0.9332 -0.4513
17458TIP3   OH273788   0.373   1.435   4.298 -0.2547 -0.1023 -0.3105
17458TIP3    H173789   0.314   1.510   4.308 -1.2198 -0.9090  0.3242
17458TIP3    H273790   0.450   1.458   4.350  0.2039  1.1383 -1.4746
17459TIP3   OH273791   2.187   3.634  15.612  0.0539  0.5564  0.1503
17459TIP3    H173792   2.272   3.608  15.578  1.9733  2.1352  3.3141
17459TIP3    H273793   2.171   3.720  15.574 -0.5213 -0.0298 -0.9816
17460TIP3   OH273794   1.717   3.289   4.846  0.4979  0.0157  0.7485
17460TIP3    H173795   1.768   3.217   4.809 -0.1797 -0.7929  1.3394
17460TIP3    H273796   1.644   3.245   4.891  0.0504  1.0789  1.0797
17461TIP3   OH273797   3.504   0.684  13.548  0.3408 -0.0485  0.4109
17461TIP3    H173798   3.505   0.747  13.620  3.2208 -0.1858  0.5751
17461TIP3    H273799   3.538   0.732  13.473  0.1478 -0.7220 -0.1238
17462TIP3   OH273800   3.431   1.956  13.773 -0.1798  0.9516 -0.2373
17462TIP3    H173801   3.435   1.957  13.677 -1.8959 -0.7413 -0.3989
17462TIP3    H273802   3.354   2.009  13.795  0.2583  1.4094  0.2324
17463TIP3   OH273803   0.443   2.148   1.272 -0.2859 -0.1301 -0.2750
17463TIP3    H173804   0.497   2.188   1.340  0.8420 -0.8531 -0.7323
17463TIP3    H273805   0.389   2.084   1.319  0.5013 -0.6366 -0.0571
17464TIP3   OH273806   2.976   1.455   2.368  0.7170 -0.4591  0.4795
17464TIP3    H173807   3.050   1.397   2.387 -0.1315 -1.0326  2.1743
17464TIP3    H273808   2.907   1.426   2.427  0.1034  1.9822  1.0486
17465TIP3   OH273809   2.027   3.581   2.999  0.8497  0.2184  0.3442
17465TIP3    H173810   2.068   3.666   3.018  0.2498  0.5521  0.1477
17465TIP3    H273811   2.010   3.582   2.905 -0.9733  0.7076  0.6411
17466TIP3   OH273812   4.749   5.050  10.979  0.1439  0.2671  0.1304
17466TIP3    H173813   4.677   5.108  10.954 -0.9720 -1.1536 -0.1074
17466TIP3    H273814   4.712   4.962  10.971  2.0812 -0.5270 -0.4954
17467TIP3   OH273815   1.406   4.212   3.981  0.1223 -0.3035 -0.2177
17467TIP3    H173816   1.427   4.298   4.018  0.0170  0.7218 -2.4003
17467TIP3    H273817   1.310   4.206   3.988  0.0387  0.1658 -0.8620
17468TIP3   OH273818   2.463   3.000  15.294 -0.1616 -0.5890 -0.4016
17468TIP3    H173819   2.480   3.091  15.318  0.2906 -0.8543  0.3420
17468TIP3    H273820   2.501   2.990  15.207  0.0074 -0.1218 -0.3824
17469TIP3   OH273821   1.799   2.846  16.707  0.0704 -0.3366 -0.9132
17469TIP3    H173822   1.737   2.830  16.778 -1.1012  0.0749 -1.8119
17469TIP3    H273823   1.805   2.942  16.702  1.9442 -0.3471  0.1119
17470TIP3   OH273824   1.148   1.228  12.163  0.3512  0.6269  0.4141
17470TIP3    H173825   1.229   1.270  12.193 -0.2184  1.0765  1.4094
17470TIP3    H273826   1.083   1.299  12.163 -0.4146 -0.0468  1.2133
17471TIP3   OH273827   1.907   6.329  11.272 -0.1012  1.1722  0.0124
17471TIP3    H173828   1.878   6.335  11.363 -0.4862  2.7732 -0.1920
17471TIP3    H273829   1.840   6.376  11.222 -0.1095 -0.0164 -1.1699
17472TIP3   OH273830   2.254   3.120   2.093 -0.5377 -0.1542  0.4109
17472TIP3    H173831   2.323   3.066   2.056  0.0739 -1.1337  2.7807
17472TIP3    H273832   2.260   3.203   2.045  2.5821 -0.0387  0.7669
17473TIP3   OH273833   3.228   2.425   4.550 -0.8908  0.8700 -0.2327
17473TIP3    H173834   3.135   2.422   4.569 -0.7029  0.7529  0.7009
17473TIP3    H273835   3.237   2.383   4.464 -1.6345  0.4441 -0.1056
17474TIP3   OH273836   2.225   0.105  11.909  0.0523  0.3938 -0.1028
17474TIP3    H173837   2.291   0.169  11.882  0.6244 -0.9987 -2.2416
17474TIP3    H273838   2.176   0.087  11.829  0.2588 -2.2161  0.2864
17475TIP3   OH273839   0.170   0.862   4.190  0.1220  0.3225 -1.0771
17475TIP3    H173840   0.166   0.923   4.117  1.1834 -0.2719 -1.6441
17475TIP3    H273841   0.079   0.853   4.218 -0.1189  1.7309 -1.3259
17476TIP3   OH273842   0.892   0.330  14.692 -0.1533 -0.5776  0.8268
17476TIP3    H173843   0.898   0.330  14.596  1.1378  0.8839  0.8626
17476TIP3    H273844   0.959   0.392  14.720 -2.1426  0.9283  2.5883
17477TIP3   OH273845   6.230   0.804  14.738 -0.1827 -0.0160 -0.1522
17477TIP3    H173846   6.227   0.711  14.762  2.0080 -0.1252 -0.1159
17477TIP3    H273847   6.215   0.804  14.644  1.4769 -0.6266 -0.4597
17478TIP3   OH273848   4.784   2.440  11.285  0.0788 -0.7663 -0.1978
17478TIP3    H173849   4.856   2.497  11.314 -0.6619  0.7377 -1.1550
17478TIP3    H273850   4.803   2.423  11.193 -0.7564 -0.3529 -0.4607
17479TIP3   OH273851   4.301   4.575   1.667  0.6480  0.3830  0.1112
17479TIP3    H173852   4.224   4.599   1.719  1.0967 -1.5006  1.7779
17479TIP3    H273853   4.364   4.645   1.684  0.6182  0.0353  1.8307
17480TIP3   OH273854   2.355   4.947   4.936 -0.0400 -0.3765 -0.0020
17480TIP3    H173855   2.321   5.031   4.905  1.6713  0.9954  1.5451
17480TIP3    H273856   2.291   4.917   5.000 -1.1886 -0.8236 -1.3169
17481TIP3   OH273857   6.466   1.245  15.749 -0.2693 -0.0574  0.3024
17481TIP3    H173858   6.413   1.289  15.816  1.8262  0.9007  1.4440
17481TIP3    H273859   6.496   1.165  15.791 -1.7634 -1.2394 -0.7859
17482TIP3   OH273860   0.871   5.098   0.609  0.4521  0.0436 -0.4691
17482TIP3    H173861   0.811   5.081   0.537 -1.3156  0.0326  0.9495
17482TIP3    H273862   0.854   5.188   0.635  3.4672  1.2374 -2.1474
17483TIP3   OH273863   0.829   6.339   1.187 -0.0517 -0.3539 -0.0581
17483TIP3    H173864   0.740   6.372   1.193  0.4748  1.4590 -1.2735
17483TIP3    H273865   0.830   6.287   1.107  0.2083  0.5785 -0.6891
17484TIP3   OH273866   0.664   3.395  13.348  0.9631  0.0738  0.1763
17484TIP3    H173867   0.598   3.393  13.279 -0.4006  2.9236  1.2355
17484TIP3    H273868   0.648   3.315  13.398 -0.0715 -0.5045 -1.0071
17485TIP3   OH273869   4.635   1.855  14.604 -0.4871 -0.3189 -0.2383
17485TIP3    H173870   4.676   1.804  14.534 -0.9421  0.1361 -0.8526
17485TIP3    H273871   4.581   1.792  14.652  0.3053 -0.7554  0.0848
17486TIP3   OH273872   0.430   2.173   4.242  0.3883  0.3719 -0.5679
17486TIP3    H173873   0.408   2.088   4.204  0.8944 -0.4322  0.8616
17486TIP3    H273874   0.462   2.153   4.330  1.1278  1.9933 -0.4221
17487TIP3   OH273875   2.589   3.030   4.820  0.3054  0.4637 -0.4324
17487TIP3    H173876   2.524   3.044   4.888 -1.1731  0.8845 -1.8761
17487TIP3    H273877   2.544   3.051   4.739  2.1949  0.5758 -1.5115
17488TIP3   OH273878   2.766   0.358   1.654 -0.0389 -0.5005 -0.0696
17488TIP3    H173879   2.777   0.325   1.564  1.4110  0.0069 -0.1110
17488TIP3    H273880   2.811   0.442   1.654 -2.2070  0.7398  0.4936
17489TIP3   OH273881   3.964   6.470  15.949  0.6090  0.3887  1.2050
17489TIP3    H173882   3.902   6.449  16.020 -0.4879 -0.8742 -0.0513
17489TIP3    H273883   3.969   6.389  15.898  0.7953  1.4729 -0.5771
17490TIP3   OH273884   1.964   4.743  12.139  0.5313 -0.2682 -0.0882
17490TIP3    H173885   1.930   4.729  12.227  1.4678 -2.7271 -0.0481
17490TIP3    H273886   1.889   4.729  12.082 -0.0101  1.0419  0.2731
17491TIP3   OH273887   0.378   3.401   5.143 -0.2801  0.6087  0.0099
17491TIP3    H173888   0.413   3.488   5.161 -0.6441  0.7656 -0.0257
17491TIP3    H273889   0.439   3.363   5.080 -0.1402  0.8510 -0.0026
17492TIP3   OH273890   2.510   3.317   2.689 -0.0831  0.0969 -0.1810
17492TIP3    H173891   2.531   3.373   2.614  0.2274  0.2110 -0.0146
17492TIP3    H273892   2.591   3.316   2.741 -0.2556 -0.0799  0.0869
17493TIP3   OH273893   0.506   3.861   2.427 -0.0595 -0.4071  0.0756
17493TIP3    H173894   0.575   3.925   2.442  0.5744 -0.5228 -2.0444
17493TIP3    H273895   0.524   3.791   2.490  2.2240 -0.7821 -0.9304
17494TIP3   OH273896   0.335   6.007   6.226 -0.2324 -0.0074 -0.4205
17494TIP3    H173897   0.304   5.922   6.257 -0.1772 -0.0793 -0.5608
17494TIP3    H273898   0.430   6.004   6.238 -0.1512 -0.2445 -1.1033
17495TIP3   OH273899   2.367   3.874   2.505  0.3471 -0.2215 -0.3713
17495TIP3    H173900   2.405   3.954   2.469  0.7673 -1.0415 -1.8367
17495TIP3    H273901   2.273   3.882   2.487  0.1577  0.6217  0.8903
17496TIP3   OH273902   6.422   0.167  12.147  0.2668 -0.4944 -0.4493
17496TIP3    H173903   6.498   0.178  12.089  0.3704  2.9035  0.0799
17496TIP3    H273904   6.367   0.103  12.102  1.9403 -0.6215 -2.5222
17497TIP3   OH273905   5.179   3.289   2.232  0.0744  0.1188 -0.2651
17497TIP3    H173906   5.119   3.228   2.276  0.6638 -1.0504 -1.0062
17497TIP3    H273907   5.138   3.304   2.146  0.2539  0.2563 -0.3265
17498TIP3   OH273908   5.721   0.172   2.457 -0.1025 -0.3739  0.2540
17498TIP3    H173909   5.694   0.102   2.398 -1.7493  0.6511 -0.2856
17498TIP3    H273910   5.652   0.176   2.523  0.4248  0.1691  0.7925
17499TIP3   OH273911   2.896   0.283   0.993 -0.2197  0.3470  0.2880
17499TIP3    H173912   2.984   0.246   0.985  0.3487  1.7885 -0.7204
17499TIP3    H273913   2.855   0.268   0.907 -0.8519 -0.0515  0.6528
17500TIP3   OH273914   0.517   0.533   0.320 -0.5070  0.0213  0.4236
17500TIP3    H173915   0.594   0.556   0.268  0.5522 -2.6831  0.6763
17500TIP3    H273916   0.548   0.533   0.410 -0.2036 -2.9918  0.3892
17501TIP3   OH273917   2.089   2.143   3.898  0.2931  0.4791  0.1537
17501TIP3    H173918   2.181   2.167   3.895  0.7739 -1.2727 -0.2368
17501TIP3    H273919   2.074   2.116   3.989  0.7646 -1.2551 -0.2377
17502TIP3   OH273920   0.642   5.420  12.453  0.8475  0.3218 -0.3691
17502TIP3    H173921   0.574   5.484  12.475  1.3538  0.8124 -0.2108
17502TIP3    H273922   0.613   5.339  12.495 -1.7228 -0.6329 -3.6029
17503TIP3   OH273923   6.070   2.263   2.613 -1.0000  0.2752  0.0441
17503TIP3    H173924   6.123   2.288   2.688 -0.4558 -2.1018  0.5282
17503TIP3    H273925   5.990   2.227   2.652 -1.6438  0.9649 -0.6038
17504TIP3   OH273926   0.291   2.890  12.689  0.2734 -0.4820 -0.0616
17504TIP3    H173927   0.222   2.839  12.732 -1.2038  1.1926 -0.2868
17504TIP3    H273928   0.368   2.877  12.743 -1.0354  0.0215  2.0644
17505TIP3   OH273929   0.751   3.996  16.657  0.5007 -0.0443  0.1618
17505TIP3    H173930   0.768   3.971  16.748  3.1915  1.6131  0.2204
17505TIP3    H273931   0.716   4.085  16.662  1.6509  0.4648 -0.4181
17506TIP3   OH273932   4.023   2.381  14.767  0.2146  0.2337  0.1260
17506TIP3    H173933   4.005   2.473  14.789  0.5256  0.5722 -0.9622
17506TIP3    H273934   4.065   2.385  14.681 -2.3677 -1.0814 -1.3292
17507TIP3   OH273935   3.144   1.123  14.937  0.2605  0.1308 -0.1546
17507TIP3    H173936   3.231   1.156  14.912 -0.0739  0.2270 -1.2602
17507TIP3    H273937   3.089   1.201  14.941  0.5342  0.2606  2.0464
17508TIP3   OH273938   6.843   5.027   9.887 -0.6717  0.9278  0.1678
17508TIP3    H173939   6.917   5.077   9.856 -1.5141  1.8305 -0.4442
17508TIP3    H273940   6.766   5.071   9.850 -1.5970  0.8200  1.8462
17509TIP3   OH273941   6.294   2.635  15.046  0.0890 -0.4880 -0.1351
17509TIP3    H173942   6.258   2.712  15.003 -0.8796 -0.7085  0.2533
17509TIP3    H273943   6.384   2.630  15.015  0.2080  0.8695 -0.0593
17510TIP3   OH273944   1.014   0.668  15.313 -0.2100 -0.2937  0.0391
17510TIP3    H173945   0.994   0.575  15.306 -0.1378 -0.2380 -1.0566
17510TIP3    H273946   1.097   0.678  15.266  0.2533  0.1722  0.9431
17511TIP3   OH273947   6.199   4.424  13.624  0.1826 -0.1412 -0.4535
17511TIP3    H173948   6.227   4.371  13.698  0.4014 -0.0267 -0.4538
17511TIP3    H273949   6.204   4.514  13.657 -0.2614 -0.1230 -0.4260
17512TIP3   OH273950   6.393   2.162  13.997 -0.6464  0.4489 -0.3694
17512TIP3    H173951   6.414   2.150  14.089  0.5012  1.0986 -0.5182
17512TIP3    H273952   6.321   2.225  13.997 -0.1418  1.0370  0.0626
17513TIP3   OH273953   6.087   6.059  16.150  0.7021 -0.0411  0.0420
17513TIP3    H173954   6.030   6.127  16.113 -0.2754 -1.2803 -0.8633
17513TIP3    H273955   6.158   6.107  16.192 -0.6412  1.5706  0.6161
17514TIP3   OH273956   5.007   2.368   3.818  0.1285  0.0882 -0.5844
17514TIP3    H173957   5.100   2.350   3.803  0.2852  0.4762 -0.0998
17514TIP3    H273958   5.006   2.451   3.865 -0.4886  0.2910 -0.9556
17515TIP3   OH273959   6.698   3.182  12.445  0.3996  0.0450 -0.9018
17515TIP3    H173960   6.792   3.198  12.448  0.8529 -2.2705 -1.0908
17515TIP3    H273961   6.683   3.144  12.358 -0.3058 -1.6733 -0.0650
17516TIP3   OH273962   1.190   0.756   4.308 -0.4703  0.0614 -0.0626
17516TIP3    H173963   1.148   0.674   4.284 -2.1162  0.6267  0.7828
17516TIP3    H273964   1.208   0.748   4.401  2.5055 -0.6376 -0.5905
17517TIP3   OH273965   4.731   1.034  15.260  0.2325 -0.6927  0.7153
17517TIP3    H173966   4.821   1.040  15.290 -0.2987  1.3781  2.0213
17517TIP3    H273967   4.731   1.078  15.175  0.6573 -1.8128  0.1077
17518TIP3   OH273968   6.274   1.177  11.973  0.1591  0.2569  0.5000
17518TIP3    H173969   6.310   1.259  11.940  0.6750 -0.0680  0.2358
17518TIP3    H273970   6.350   1.119  11.982 -0.1334 -0.0358  1.1446
17519TIP3   OH273971   4.781   0.127   2.718 -0.0453 -0.2821  0.4831
17519TIP3    H173972   4.862   0.079   2.736  1.0503  0.8631 -1.0874
17519TIP3    H273973   4.805   0.219   2.729 -1.5356  0.0315  1.3453
17520TIP3   OH273974   2.469   5.643   4.248 -0.0636 -0.1934 -0.2909
17520TIP3    H173975   2.516   5.687   4.177 -0.8832  0.2570 -0.5695
17520TIP3    H273976   2.422   5.572   4.205 -1.4079  0.7180 -0.4034
17521TIP3   OH273977   1.093   5.195  16.122  0.2329  0.2185  0.1770
17521TIP3    H173978   1.119   5.117  16.172  0.2287 -0.6749 -1.1614
17521TIP3    H273979   1.067   5.161  16.037 -1.5035  1.5113  0.1393
17522TIP3   OH273980   3.879   3.213  12.010  0.4018 -0.0665  0.3330
17522TIP3    H173981   3.807   3.224  11.948  1.8025 -1.0913 -1.5753
17522TIP3    H273982   3.956   3.245  11.963  1.8435 -2.6534  0.7782
17523TIP3   OH273983   1.166   6.745   1.693  0.4782 -0.4673  0.3487
17523TIP3    H173984   1.175   6.837   1.718 -0.2058 -0.2895 -0.0412
17523TIP3    H273985   1.098   6.711   1.751  1.9718 -1.2285  1.7621
17524TIP3   OH273986   6.514   6.135   5.242 -0.3726 -0.3982  0.1644
17524TIP3    H173987   6.426   6.119   5.276 -0.2541 -0.6631  0.3542
17524TIP3    H273988   6.500   6.156   5.149 -0.5262 -2.0679 -0.2332
17525TIP3   OH273989   1.068   4.475  15.213 -0.0210 -0.1960  0.6243
17525TIP3    H173990   1.068   4.568  15.235 -1.0003  0.0098 -0.1929
17525TIP3    H273991   1.009   4.436  15.278 -0.8427  0.0039  0.0073
17526TIP3   OH273992   0.364   3.650   4.079  0.2076 -0.4086 -0.1002
17526TIP3    H173993   0.277   3.613   4.094 -1.2963  2.8039 -0.1823
17526TIP3    H273994   0.403   3.654   4.167 -0.7733  0.4640  0.3113
17527TIP3   OH273995   0.587   3.569  13.932 -0.2041  0.0165 -0.1088
17527TIP3    H173996   0.671   3.610  13.911 -0.4897  2.3538  2.6667
17527TIP3    H273997   0.523   3.617  13.879 -0.1549  0.7030  0.4489
17528TIP3   OH273998   3.919   3.109  11.210  0.0532 -0.5812  0.3238
17528TIP3    H173999   3.917   3.019  11.243  0.5613 -0.0547  1.9193
17528TIP3    H274000   3.936   3.101  11.117 -0.1114 -2.1424  0.4090
17529TIP3   OH274001   0.732   1.823  11.712  0.2192  0.5232  0.0943
17529TIP3    H174002   0.643   1.833  11.678  0.9059  0.9933 -1.6624
17529TIP3    H274003   0.779   1.773  11.645  1.1199 -0.3327  1.3150
17530TIP3   OH274004   2.855   2.709   5.557 -0.2351  0.0132  0.1488
17530TIP3    H174005   2.793   2.676   5.491  0.1204 -0.4792  0.0602
17530TIP3    H274006   2.847   2.648   5.630  2.1410 -1.7407 -0.9231
17531TIP3   OH274007   6.530   1.521  13.515  0.0633 -0.0784  0.6929
17531TIP3    H174008   6.460   1.543  13.453  0.6677 -0.7793 -0.2680
17531TIP3    H274009   6.545   1.602  13.564 -0.6199  0.4122  0.1069
17532TIP3   OH274010   0.755   0.126   3.468  0.4100  0.1950 -0.3775
17532TIP3    H174011   0.795   0.173   3.394 -0.7182  1.2722 -0.3343
17532TIP3    H274012   0.759   0.187   3.541  0.8504 -0.5921  0.2713
17533TIP3   OH274013   4.861   2.865   1.408 -0.4715  0.7600  0.4592
17533TIP3    H174014   4.852   2.952   1.446 -0.7210  0.3557  1.3717
17533TIP3    H274015   4.868   2.807   1.484  2.5654  0.2406 -0.0792
17534TIP3   OH274016   1.960   3.122  16.514 -0.0783  0.5062  0.5601
17534TIP3    H174017   1.878   3.139  16.559 -0.1724  3.2801 -0.5044
17534TIP3    H274018   1.944   3.146  16.423  1.2824 -1.1182 -0.1776
17535TIP3   OH274019   0.163   5.589  15.842  0.0142 -0.3694 -0.1153
17535TIP3    H174020   0.169   5.676  15.881  0.2316 -0.6734  0.5404
17535TIP3    H274021   0.236   5.540  15.880 -0.1635 -0.8716 -0.4052
17536TIP3   OH274022   0.379   6.390   1.890  0.5892 -0.0320 -0.7095
17536TIP3    H174023   0.330   6.464   1.855  1.1485  0.2571 -0.8878
17536TIP3    H274024   0.323   6.314   1.875 -0.2474  0.4249 -0.0090
17537TIP3   OH274025   0.969   6.765  10.849  0.3313 -0.4124 -0.0268
17537TIP3    H174026   0.989   6.792  10.759  3.0491 -0.3410  0.5260
17537TIP3    H274027   0.993   6.673  10.853 -2.3403 -1.1980 -0.0182
17538TIP3   OH274028   1.969   3.311   3.019 -0.3538 -0.2605  0.4099
17538TIP3    H174029   1.959   3.282   2.929 -1.3986 -1.3171  0.8238
17538TIP3    H274030   1.986   3.405   3.014  0.3386 -0.4418 -0.9016
17539TIP3   OH274031   3.320   1.213  15.331  0.2217  0.1534  0.7655
17539TIP3    H174032   3.406   1.246  15.359 -0.3794  1.5915  1.0322
17539TIP3    H274033   3.338   1.126  15.296  2.2560  1.4405 -1.7631
17540TIP3   OH274034   3.490   1.907  11.398 -0.2079 -0.4993 -0.7935
17540TIP3    H174035   3.533   1.976  11.346  1.3790 -2.0195 -1.6100
17540TIP3    H274036   3.457   1.846  11.333 -2.7102  0.0381 -0.1183
17541TIP3   OH274037   2.878   1.676  10.908  0.4245  0.7036  0.3835
17541TIP3    H174038   2.927   1.605  10.950  0.2442  0.8977  0.9246
17541TIP3    H274039   2.894   1.664  10.814  0.6087  0.1072  0.4900
17542TIP3   OH274040   6.369   3.757   9.921  0.1549 -0.2148  0.6641
17542TIP3    H174041   6.354   3.832   9.978 -0.7777  0.2355 -0.1372
17542TIP3    H274042   6.402   3.688   9.980  3.7932  1.5799  1.0205
17543TIP3   OH274043   5.364   1.280  14.530 -0.2040 -0.0725 -0.0385
17543TIP3    H174044   5.282   1.322  14.505  0.1729  0.8501  0.2291
17543TIP3    H274045   5.397   1.241  14.449  0.0902  1.2928 -0.6000
17544TIP3   OH274046   5.653   2.806  13.539 -0.0258  0.5128  0.2323
17544TIP3    H174047   5.618   2.738  13.482 -1.1042  1.4303 -0.2300
17544TIP3    H274048   5.685   2.759  13.616 -1.7385 -0.4336  0.4104
17545TIP3   OH274049   6.102   4.445   2.472  0.0160  0.0836 -0.6251
17545TIP3    H174050   6.121   4.356   2.440  1.9191  0.1058  0.3120
17545TIP3    H274051   6.147   4.450   2.556  0.3187  2.1094 -0.8748
17546TIP3   OH274052   0.483   1.448   9.784 -0.5885 -0.0209 -0.6426
17546TIP3    H174053   0.444   1.523   9.739 -1.0358  0.0440 -0.1540
17546TIP3    H274054   0.575   1.448   9.756 -0.5037  0.9188 -0.3741
17547TIP3   OH274055   0.163   6.374   2.189 -0.5348 -0.2705  0.9622
17547TIP3    H174056   0.129   6.289   2.218 -2.1532  0.0728  0.1742
17547TIP3    H274057   0.185   6.419   2.270 -1.3566 -0.7699  1.4827
17548TIP3   OH274058   6.242   4.902  14.758 -0.2967 -0.1506 -0.2728
17548TIP3    H174059   6.226   4.988  14.719  0.5245  0.2300  0.1928
17548TIP3    H274060   6.204   4.907  14.845  1.5226  0.4860  0.5373
17549TIP3   OH274061   1.972   4.887  12.570  0.0713  0.2563 -0.3573
17549TIP3    H174062   2.061   4.912  12.593  0.4523 -1.6402  0.3831
17549TIP3    H274063   1.923   4.892  12.652 -0.3867  0.7381 -0.6496
17550TIP3   OH274064   4.335   2.992   3.781 -0.4893  0.3543  0.2117
17550TIP3    H174065   4.268   2.927   3.762  0.4341 -0.7090  0.5083
17550TIP3    H274066   4.391   2.993   3.703  0.3673 -0.3241  0.7981
17551TIP3   OH274067   0.316   4.571   1.096 -0.0738  0.2801 -0.6008
17551TIP3    H174068   0.243   4.631   1.109  0.2713  0.2690  1.7151
17551TIP3    H274069   0.380   4.621   1.046 -0.4960  1.2532 -0.1828
17552TIP3   OH274070   6.282   2.710   2.055 -0.3930 -0.4220  0.1164
17552TIP3    H174071   6.340   2.661   2.115 -0.5532  0.7686  1.2970
17552TIP3    H274072   6.316   2.690   1.968  2.4216  0.9268  0.7943
17553TIP3   OH274073   3.220   2.981  11.931  0.1319  0.2374 -0.2613
17553TIP3    H174074   3.283   3.015  11.994 -0.5229  1.2711 -0.1541
17553TIP3    H274075   3.248   3.017  11.847 -0.9647  1.6608 -0.0470
17554TIP3   OH274076   0.978   5.511  12.178 -0.8577  0.3003  0.1602
17554TIP3    H174077   0.885   5.489  12.167 -0.3623 -1.0568 -1.9660
17554TIP3    H274078   1.000   5.476  12.264 -2.0063 -0.6494  0.1019
17555TIP3   OH274079   3.419   4.489   5.195  0.1632  0.5895  0.4382
17555TIP3    H174080   3.427   4.527   5.107  0.4922  0.8852  0.5966
17555TIP3    H274081   3.469   4.548   5.251  0.5871 -0.0117  0.7018
17556TIP3   OH274082   6.299   1.594  13.352 -0.0192  0.1489 -0.0144
17556TIP3    H174083   6.282   1.502  13.335  0.8101 -0.4794  2.2228
17556TIP3    H274084   6.249   1.641  13.285 -3.1867 -1.8058  0.7942
17557TIP3   OH274085   6.595   2.432  10.013  0.0571  0.6843  1.2023
17557TIP3    H174086   6.680   2.404   9.979  0.2479  0.5312  1.8067
17557TIP3    H274087   6.552   2.352  10.041  0.1367  0.8744  1.8698
17558TIP3   OH274088   6.254   3.054  12.219 -0.3894  0.0259  0.2669
17558TIP3    H174089   6.290   2.988  12.278 -1.2967 -0.4451  0.3211
17558TIP3    H274090   6.195   3.106  12.274  1.0693  1.5483  0.4589
17559TIP3   OH274091   5.367   6.082  11.782  0.8989  0.1940  0.7500
17559TIP3    H174092   5.286   6.041  11.813  2.3492 -0.9320  3.3961
17559TIP3    H274093   5.431   6.011  11.780  2.3623  1.4423  0.8711
17560TIP3   OH274094   4.497   2.657   3.925  0.1700 -0.1724 -0.5781
17560TIP3    H174095   4.464   2.745   3.946  2.4542  0.2269  1.9286
17560TIP3    H274096   4.574   2.647   3.981 -0.7270 -4.3045  0.2275
17561TIP3   OH274097   0.866   4.848   5.635 -0.3525  0.2120 -0.0263
17561TIP3    H174098   0.825   4.915   5.580 -0.2930  0.0724 -0.2388
17561TIP3    H274099   0.952   4.884   5.657  0.4297 -0.5854 -1.6501
17562TIP3   OH274100   5.271   6.452   3.473 -0.0595  0.7666 -0.1942
17562TIP3    H174101   5.246   6.518   3.538  0.9693  1.2620 -0.2757
17562TIP3    H274102   5.327   6.500   3.412  0.4280 -0.1183 -0.4471
17563TIP3   OH274103   2.200   3.339   5.001  0.6805 -0.0794  0.7029
17563TIP3    H174104   2.138   3.387   5.055  0.1240  0.7942 -0.6518
17563TIP3    H274105   2.279   3.393   4.999 -0.2072  1.2766 -1.4490
17564TIP3   OH274106   2.704   3.278   3.532  0.3946  0.1515  0.5996
17564TIP3    H174107   2.696   3.207   3.468  1.7130  1.2746 -0.9158
17564TIP3    H274108   2.766   3.339   3.492  1.1200  1.0377  2.8815
17565TIP3   OH274109   2.084   2.267  10.429 -0.1000 -0.2462 -0.7467
17565TIP3    H174110   2.125   2.217  10.358 -0.5750  0.0157 -1.2049
17565TIP3    H274111   1.998   2.227  10.440 -0.0232 -0.2939 -0.3081
17566TIP3   OH274112   1.233   2.188  12.251 -0.0544 -0.2490 -0.0122
17566TIP3    H174113   1.201   2.187  12.161  0.6376  0.2710 -0.2747
17566TIP3    H274114   1.244   2.095  12.274  0.6935 -0.3699 -0.8089
17567TIP3   OH274115   5.169   5.026  14.637 -0.3642 -0.6329  0.1645
17567TIP3    H174116   5.255   5.059  14.611 -0.5614  0.5909  1.0012
17567TIP3    H274117   5.185   4.934  14.660  0.4469 -0.7944 -0.9330
17568TIP3   OH274118   0.659   0.669  12.136  0.3168  0.0378  0.3091
17568TIP3    H174119   0.654   0.652  12.041  0.6500 -0.9178  0.4534
17568TIP3    H274120   0.585   0.620  12.172  0.2666  0.2996  0.5638
17569TIP3   OH274121   4.169   3.023   3.098 -0.1995 -0.4912 -0.1136
17569TIP3    H174122   4.181   3.117   3.082  0.4193 -0.3310  1.2066
17569TIP3    H274123   4.209   2.981   3.022  0.6014  0.2914 -0.1451
17570TIP3   OH274124   4.508   5.592  15.147  0.2287  0.4689  0.1039
17570TIP3    H174125   4.431   5.568  15.095 -0.3196  0.7724  0.7521
17570TIP3    H274126   4.471   5.626  15.228  1.0600  0.4919  0.4773
17571TIP3   OH274127   5.239   2.042  14.271  0.8768 -0.2501  0.1116
17571TIP3    H174128   5.252   1.952  14.301  0.6307 -0.2571  0.1956
17571TIP3    H274129   5.210   2.032  14.180  0.9545 -0.2508  0.0867
17572TIP3   OH274130   6.609   3.616  13.449 -0.2290  0.2952 -0.3167
17572TIP3    H174131   6.651   3.631  13.534 -0.5472  0.6653 -0.2204
17572TIP3    H274132   6.623   3.523  13.431 -1.2912 -0.0909  0.7673
17573TIP3   OH274133   0.762   6.309  12.530  0.2221  0.5127 -0.4121
17573TIP3    H174134   0.714   6.351  12.602  0.8026  1.0274 -0.3100
17573TIP3    H274135   0.698   6.298  12.460  0.0319  1.4852 -0.3976
17574TIP3   OH274136   1.105   6.040   5.403  0.6596 -0.4837 -0.0402
17574TIP3    H174137   1.186   6.054   5.453  1.2380 -2.1305 -0.4689
17574TIP3    H274138   1.082   5.949   5.419 -0.0352 -0.5806 -1.4919
17575TIP3   OH274139   3.681   1.428  13.894 -0.6928  0.4543  0.1575
17575TIP3    H174140   3.754   1.450  13.952  0.2029 -2.4541  0.2961
17575TIP3    H274141   3.715   1.356  13.840 -2.4303  1.1828 -2.0546
17576TIP3   OH274142   4.608   0.186   1.384  0.4082  0.3834  0.1409
17576TIP3    H174143   4.686   0.159   1.432  0.3005 -1.8189 -0.8221
17576TIP3    H274144   4.535   0.167   1.442  0.4570  0.6222  0.2825
17577TIP3   OH274145   2.623   5.010  10.178  0.5212 -0.6114 -0.0618
17577TIP3    H174146   2.693   5.051  10.126  0.3375  0.8104  0.7724
17577TIP3    H274147   2.669   4.949  10.236  1.1804  0.7559  0.9070
17578TIP3   OH274148   5.852   4.293  13.080  0.3283  0.6488  0.2678
17578TIP3    H174149   5.808   4.313  13.163 -0.1163 -2.0217  0.7509
17578TIP3    H274150   5.939   4.332  13.089 -0.0798  1.3214  1.5491
17579TIP3   OH274151   1.299   2.656   2.192 -0.7918  0.4593  0.3011
17579TIP3    H174152   1.223   2.621   2.239 -1.2626 -0.1839 -0.8879
17579TIP3    H274153   1.264   2.730   2.142 -1.0755 -0.8413 -1.5563
17580TIP3   OH274154   5.629   4.134   5.788  0.1373 -0.1284  0.2260
17580TIP3    H174155   5.628   4.179   5.703 -0.5016 -0.7113 -0.0937
17580TIP3    H274156   5.666   4.048   5.768 -0.9699 -0.6448  0.3258
17581TIP3   OH274157   6.518   5.433  15.596  0.3193  0.1955  0.3357
17581TIP3    H174158   6.549   5.523  15.605  1.7716 -0.2054 -0.4069
17581TIP3    H274159   6.480   5.429  15.508 -1.4596  0.5368  1.0382
17582TIP3   OH274160   0.275   5.347  10.352  0.0356 -0.2224  0.0426
17582TIP3    H174161   0.220   5.424  10.367  0.1965 -0.0932 -0.0176
17582TIP3    H274162   0.266   5.329  10.258 -1.0484 -1.0874  0.2951
17583TIP3   OH274163   2.112   0.317  10.703  0.8277  0.0679 -0.3104
17583TIP3    H174164   2.041   0.309  10.640  0.6615 -0.3758 -0.0703
17583TIP3    H274165   2.070   0.352  10.782  1.1134  1.0377 -0.5821
17584TIP3   OH274166   6.748   2.240   2.734 -0.4403  0.3306  0.6789
17584TIP3    H174167   6.744   2.334   2.715 -0.2617  0.3295  0.6374
17584TIP3    H274168   6.833   2.212   2.700 -1.2383 -0.2095 -0.9833
17585TIP3   OH274169   1.509   0.188  10.921 -0.1751 -0.2790 -0.0257
17585TIP3    H174170   1.561   0.107  10.924  0.2059 -0.0777 -0.7692
17585TIP3    H274171   1.458   0.187  11.002  0.1266 -1.0620  0.1683
17586TIP3   OH274172   6.153   4.525   6.160  0.0892  0.3986  0.4694
17586TIP3    H174173   6.089   4.477   6.109 -0.3242 -0.1703  1.4953
17586TIP3    H274174   6.193   4.459   6.217  2.2691  0.5420 -0.7765
17587TIP3   OH274175   6.880   4.495   0.817  0.7495 -0.1043 -0.2081
17587TIP3    H174176   6.814   4.529   0.878  0.9077 -0.4348  0.1511
17587TIP3    H274177   6.944   4.565   0.809  1.6024 -0.6734  1.3199
17588TIP3   OH274178   2.439   6.406  13.497 -0.0188 -0.3860 -0.2033
17588TIP3    H174179   2.462   6.315  13.478  0.4571 -0.1594 -0.7337
17588TIP3    H274180   2.469   6.419  13.587  0.5656 -0.5485 -0.3652
17589TIP3   OH274181   6.150   1.986   2.480 -0.3583  0.6753 -0.1638
17589TIP3    H174182   6.145   2.045   2.406  1.2267  0.0701 -0.7950
17589TIP3    H274183   6.242   1.988   2.507 -0.5454 -0.4433  0.6552
17590TIP3   OH274184   2.845   4.318  12.487 -0.2334  0.0530  0.0367
17590TIP3    H174185   2.835   4.297  12.580  0.5358  0.9352  0.3371
17590TIP3    H274186   2.864   4.412  12.485 -1.4955  0.3203 -1.1103
17591TIP3   OH274187   2.221   2.897  10.261 -0.5136  0.5167  0.4882
17591TIP3    H174188   2.202   2.815  10.215 -2.7746  0.6339  1.1251
17591TIP3    H274189   2.264   2.952  10.195  1.3467 -1.2416  0.1361
17592TIP3   OH274190   5.600   1.204  15.776  0.2391  0.0237 -0.2864
17592TIP3    H174191   5.517   1.230  15.735  0.7314 -0.3726 -1.6025
17592TIP3    H274192   5.661   1.274  15.751 -0.0812  1.2701  2.1951
17593TIP3   OH274193   5.250   3.268   5.449 -0.2509  0.2175 -0.3655
17593TIP3    H174194   5.291   3.264   5.535 -0.2700  1.6764 -0.2689
17593TIP3    H274195   5.233   3.176   5.426 -0.5944 -0.1747  1.3383
17594TIP3   OH274196   1.222   3.154   5.567  0.7548 -0.3870 -0.3028
17594TIP3    H174197   1.239   3.239   5.608  0.8952  0.5114 -2.0996
17594TIP3    H274198   1.139   3.166   5.521  0.8777 -1.1671 -0.7459
17595TIP3   OH274199   5.505   1.629   1.978  0.0286  0.1119  0.1152
17595TIP3    H174200   5.555   1.652   1.899  1.6143  1.6558  1.4658
17595TIP3    H274201   5.556   1.668   2.050 -1.4642 -1.0581  1.8853
17596TIP3   OH274202   2.586   4.435   5.815 -0.0142  0.3013 -0.6195
17596TIP3    H174203   2.624   4.490   5.884 -1.5428  1.2608 -0.4781
17596TIP3    H274204   2.577   4.349   5.855 -0.7478  0.8127  0.3599
17597TIP3   OH274205   4.167   3.286  14.280 -0.5708  0.2136 -0.1993
17597TIP3    H174206   4.214   3.308  14.360 -1.4078  0.0965  0.3376
17597TIP3    H274207   4.105   3.358  14.267 -0.6928  0.0519 -0.5378
17598TIP3   OH274208   0.825   3.864  10.347  0.0043  0.4011 -0.2072
17598TIP3    H174209   0.800   3.774  10.326  1.1779 -0.0344  0.1622
17598TIP3    H274210   0.841   3.863  10.441  1.3827  0.6245 -0.4128
17599TIP3   OH274211   6.302   2.791   5.410 -0.8347  0.2136  1.1905
17599TIP3    H174212   6.396   2.807   5.399 -0.8599 -1.1274 -2.7134
17599TIP3    H274213   6.295   2.696   5.418 -1.8729  0.2874  1.2669
17600TIP3   OH274214   1.467   6.240   4.088 -0.1618 -0.3277  0.1750
17600TIP3    H174215   1.509   6.156   4.107  1.3743  0.0996 -1.1087
17600TIP3    H274216   1.485   6.294   4.165 -1.4037 -1.2206  1.1329
17601TIP3   OH274217   2.900   6.439  12.248 -0.2130  0.2063 -0.3553
17601TIP3    H174218   2.984   6.399  12.227  0.0203  0.6580 -0.2947
17601TIP3    H274219   2.878   6.403  12.334 -0.1752 -0.0600 -0.4555
17602TIP3   OH274220   1.271   3.061  10.743  0.1382  0.0263 -0.4211
17602TIP3    H174221   1.305   3.085  10.656 -1.0398 -0.6351 -1.0910
17602TIP3    H274222   1.218   3.137  10.769 -1.4005 -0.6973 -1.3411
17603TIP3   OH274223   2.353   2.528  12.478 -0.4022 -0.8616  0.0366
17603TIP3    H174224   2.339   2.549  12.385 -0.3266 -1.9489 -0.2350
17603TIP3    H274225   2.311   2.600  12.525  2.7709  1.8011 -0.7902
17604TIP3   OH274226   0.862   2.221  11.346 -0.1633  0.5392 -0.1217
17604TIP3    H174227   0.784   2.167  11.338  0.4135 -0.1125 -1.7482
17604TIP3    H274228   0.885   2.244  11.255  1.5974  0.6072  0.3055
17605TIP3   OH274229   0.298   5.632  11.657 -0.2543  0.3928 -0.0658
17605TIP3    H174230   0.388   5.603  11.671 -0.1360  1.1968  0.9033
17605TIP3    H274231   0.249   5.551  11.642  0.4833 -0.1167  0.2368
17606TIP3   OH274232   5.276   2.231   2.345 -0.0494 -0.3000 -0.1530
17606TIP3    H174233   5.250   2.211   2.255  0.0333 -0.5230 -0.1292
17606TIP3    H274234   5.199   2.206   2.398  0.4489 -1.6294 -0.0120
17607TIP3   OH274235   2.264   4.466  15.947  0.2864  0.2844 -0.0851
17607TIP3    H174236   2.170   4.448  15.953  0.3577 -0.1868 -0.2864
17607TIP3    H274237   2.293   4.477  16.037 -0.0619  0.9661 -0.0567
17608TIP3   OH274238   6.771   5.549   3.480  0.6202  0.2355  0.3391
17608TIP3    H174239   6.844   5.602   3.510  0.1859 -0.0749  2.0711
17608TIP3    H274240   6.693   5.590   3.518  0.1931 -1.0841  0.9787
17609TIP3   OH274241   5.175   1.211   2.863  0.3112 -0.0877 -0.4052
17609TIP3    H174242   5.200   1.302   2.875  1.3232 -0.2018 -1.4621
17609TIP3    H274243   5.243   1.161   2.908  0.6307 -0.3501 -1.1660
17610TIP3   OH274244   5.138   5.854   0.054 -0.4486 -0.0611 -0.5176
17610TIP3    H174245   5.131   5.880  -0.038  1.3510  3.8976  0.2680
17610TIP3    H274246   5.232   5.838   0.067 -0.8527 -2.0009  0.4073
17611TIP3   OH274247   4.574   6.891   2.886 -0.0958  0.0602 -0.1630
17611TIP3    H174248   4.525   6.958   2.838 -1.1465 -1.0397 -0.6701
17611TIP3    H274249   4.644   6.865   2.825  0.2038  0.5526 -0.0349
17612TIP3   OH274250   6.283   4.936   4.582  0.1659 -0.0090  1.0886
17612TIP3    H174251   6.334   5.001   4.534 -1.8405  0.5016 -0.4677
17612TIP3    H274252   6.271   4.974   4.668  0.3580  0.9465  0.7063
17613TIP3   OH274253   2.302   1.078   3.701  0.2782  0.2710  0.2346
17613TIP3    H174254   2.378   1.039   3.745  1.3944 -1.4471 -2.9106
17613TIP3    H274255   2.228   1.024   3.730  1.0514 -1.0955 -0.2459
17614TIP3   OH274256   2.104   5.297  11.337  0.0495 -0.2360 -0.1021
17614TIP3    H174257   2.193   5.283  11.367  0.6929 -1.4074 -2.3390
17614TIP3    H274258   2.052   5.232  11.384  0.4933 -0.0741  0.6227
17615TIP3   OH274259   1.801   4.591  14.446  0.2131 -0.3649  0.5229
17615TIP3    H174260   1.754   4.667  14.478  0.1809 -0.6803  1.2282
17615TIP3    H274261   1.736   4.543  14.394  0.1820 -0.0147  0.2350
17616TIP3   OH274262   1.980   6.133  12.014 -0.0469 -0.0972 -0.1825
17616TIP3    H174263   1.953   6.057  11.961  1.2091 -1.1826  0.6512
17616TIP3    H274264   1.904   6.154  12.066  0.0778 -1.9553  0.8437
17617TIP3   OH274265   0.798   5.416  10.005 -0.0743  0.2165  0.2239
17617TIP3    H174266   0.856   5.492  10.000 -1.0421  0.9410 -0.1748
17617TIP3    H274267   0.830   5.367  10.081  1.6152  0.1089 -0.5070
17618TIP3   OH274268   5.793   0.802   0.866 -0.1561  1.4485  0.1997
17618TIP3    H174269   5.774   0.724   0.814 -0.8177  2.1117 -0.5777
17618TIP3    H274270   5.887   0.795   0.885  0.1609  1.2813 -1.2784
17619TIP3   OH274271   4.232   3.625   2.408 -0.5782  0.2032  0.1058
17619TIP3    H174272   4.321   3.642   2.438 -0.7644 -1.2171  1.6054
17619TIP3    H274273   4.179   3.692   2.451 -0.3057  0.7878 -0.4533
17620TIP3   OH274274   4.027   4.461  15.266 -0.2745 -0.1371  0.1642
17620TIP3    H174275   4.052   4.516  15.340 -0.7878  1.0281 -0.4935
17620TIP3    H274276   4.083   4.490  15.194  0.3482 -1.3802  0.1176
17621TIP3   OH274277   0.308   1.813   3.315  0.7075 -0.1056 -0.0763
17621TIP3    H174278   0.375   1.839   3.252  0.7818  1.8914  0.7591
17621TIP3    H274279   0.303   1.886   3.377 -2.3845 -0.0615 -0.2160
17622TIP3   OH274280   0.275   4.587  16.672 -0.6977 -0.0755  0.0533
17622TIP3    H174281   0.363   4.560  16.701 -1.5659  0.0402  3.0601
17622TIP3    H274282   0.286   4.604  16.578  1.8356 -2.7347 -0.2855
17623TIP3   OH274283   2.436   3.754   1.117 -0.1502 -0.1281 -0.4574
17623TIP3    H174284   2.430   3.846   1.144  1.9694  0.3323 -1.3564
17623TIP3    H274285   2.440   3.757   1.021 -2.4254 -1.3761 -0.6751
17624TIP3   OH274286   6.610   0.931   2.733 -0.7459  0.4034  0.1343
17624TIP3    H174287   6.627   0.891   2.648  0.6060 -0.1341  0.6152
17624TIP3    H274288   6.614   1.025   2.717 -1.3973  0.3185 -0.5544
17625TIP3   OH274289   6.282   3.831  14.774  0.3349 -0.4120 -0.3116
17625TIP3    H174290   6.275   3.920  14.809  0.8065 -0.9184  1.1033
17625TIP3    H274291   6.375   3.812  14.775  0.0788 -1.8449  1.8455
17626TIP3   OH274292   5.821   1.791  12.371  0.1736  0.7068 -0.2177
17626TIP3    H174293   5.902   1.747  12.398  0.3286  2.0952  1.7802
17626TIP3    H274294   5.850   1.876  12.339 -0.3703  0.5250 -1.2349
17627TIP3   OH274295   6.741   5.034  14.561  0.4885 -0.4066 -0.3325
17627TIP3    H174296   6.747   5.031  14.465 -1.8830 -1.1969 -0.5306
17627TIP3    H274297   6.809   4.974  14.591  0.3225 -1.2709 -1.5919
17628TIP3   OH274298   4.963   2.527   6.644  0.3691  0.1491 -0.3370
17628TIP3    H174299   5.015   2.563   6.573 -2.1396  0.7990 -1.9830
17628TIP3    H274300   4.872   2.538   6.615 -0.9240  2.0862  3.6994
17629TIP3   OH274301   3.519   1.070  13.013  0.2593 -0.3108 -0.1453
17629TIP3    H174302   3.533   1.136  12.945 -0.2296  0.4207  0.4582
17629TIP3    H274303   3.431   1.087  13.046  0.4102 -0.8016  0.5214
17630TIP3   OH274304   6.679   5.731   0.356  0.0851 -0.3137 -0.6506
17630TIP3    H174305   6.666   5.781   0.437  0.4933 -0.8320 -0.2585
17630TIP3    H274306   6.772   5.708   0.356 -0.1583 -1.3432 -0.6593
17631TIP3   OH274307   1.759   1.189  10.763 -0.2899 -0.2396 -0.7105
17631TIP3    H174308   1.735   1.100  10.789 -0.7783 -0.2543 -1.1879
17631TIP3    H274309   1.685   1.219  10.710 -1.2880  1.3619  1.4464
17632TIP3   OH274310   3.659   0.581   3.066  0.5584  0.2907 -0.0894
17632TIP3    H174311   3.640   0.509   3.126  1.5832 -0.2165 -0.3380
17632TIP3    H274312   3.586   0.642   3.077 -0.6230 -1.0471 -0.2973
17633TIP3   OH274313   1.588   3.921  13.848 -0.1073  0.2493 -0.1727
17633TIP3    H174314   1.657   3.918  13.913  0.3923 -0.4333 -0.7294
17633TIP3    H274315   1.510   3.889  13.894  0.4555 -1.1761 -0.1713
17634TIP3   OH274316   3.578   5.610  15.204  0.2727 -0.5713  0.4115
17634TIP3    H174317   3.651   5.601  15.143  0.3246 -0.9942  0.5373
17634TIP3    H274318   3.583   5.702  15.232  0.3939 -0.4365 -0.0299
17635TIP3   OH274319   3.242   0.403  14.040  0.5955 -0.7419 -0.2803
17635TIP3    H174320   3.202   0.456  14.109 -0.4189 -1.0000 -0.6433
17635TIP3    H274321   3.297   0.341  14.087  2.5531  1.1859  0.1124
17636TIP3   OH274322   6.736   1.388  16.086  0.1706  0.2035 -0.4380
17636TIP3    H174323   6.698   1.473  16.066 -0.8485 -0.0360  0.3733
17636TIP3    H274324   6.745   1.388  16.181 -0.2155 -0.7345 -0.3912
17637TIP3   OH274325   1.755   2.187   3.245  0.2733 -0.4979  0.7783
17637TIP3    H174326   1.802   2.227   3.171 -0.9703 -1.1403 -0.3953
17637TIP3    H274327   1.786   2.096   3.245 -2.2656 -1.4920 -1.2546
17638TIP3   OH274328   3.881   0.747  15.386  0.0175  0.1427 -0.5052
17638TIP3    H174329   3.952   0.683  15.387  0.8299  0.8811 -2.9220
17638TIP3    H274330   3.926   0.832  15.390 -0.7377  0.6137 -1.4607
17639TIP3   OH274331   4.320   5.155   2.453 -0.4260  0.3057 -0.2535
17639TIP3    H174332   4.405   5.132   2.415 -0.7013  0.2387 -0.8366
17639TIP3    H274333   4.275   5.071   2.463  0.3435  0.1095  1.9693
17640TIP3   OH274334   3.247   1.311   1.871 -0.4072  0.2197 -0.6895
17640TIP3    H174335   3.271   1.233   1.920  1.4728 -0.0302 -1.9011
17640TIP3    H274336   3.152   1.320   1.884  0.0063  0.4791  3.3437
17641TIP3   OH274337   1.856   0.243  12.619 -0.6063 -0.2545 -0.4482
17641TIP3    H174338   1.809   0.177  12.568  0.3520 -1.4158  0.1115
17641TIP3    H274339   1.938   0.199  12.645 -0.7000  0.5634  1.3942
17642TIP3   OH274340   5.678   1.463  12.978  0.1964 -0.1377  0.5014
17642TIP3    H174341   5.654   1.516  12.902 -0.2166  1.0352  1.4074
17642TIP3    H274342   5.774   1.466  12.979  0.1845  0.5124  0.4658
17643TIP3   OH274343   3.563   5.216  12.981 -0.1630 -0.0573 -0.5289
17643TIP3    H174344   3.657   5.197  12.973  0.1247  0.5260  1.1670
17643TIP3    H274345   3.520   5.134  12.957  0.6573  0.1645 -3.1378
17644TIP3   OH274346   5.747   1.355   2.186  0.0822 -0.1100 -0.2744
17644TIP3    H174347   5.778   1.435   2.228 -0.4057  0.2377 -0.5743
17644TIP3    H274348   5.825   1.300   2.180  0.5741  0.6185 -0.7031
17645TIP3   OH274349   5.151   0.211  12.117 -0.0927 -0.4478 -0.3585
17645TIP3    H174350   5.140   0.116  12.114 -2.9520 -0.1872  0.0077
17645TIP3    H274351   5.097   0.244  12.045 -0.7473  0.9944  0.7463
17646TIP3   OH274352   0.939   0.800  14.623  0.0045  0.7869  0.6572
17646TIP3    H174353   0.855   0.783  14.665  0.0877  2.4857  1.6007
17646TIP3    H274354   0.949   0.729  14.559 -0.5545 -1.4279  2.8339
17647TIP3   OH274355   0.159   0.119   2.737  0.8165 -0.4077  0.2237
17647TIP3    H174356   0.188   0.034   2.770 -2.7014 -1.5303  0.8620
17647TIP3    H274357   0.065   0.107   2.719  0.2885  3.2067 -0.1278
17648TIP3   OH274358   4.939   0.446  15.189 -0.0710 -0.4884 -0.0430
17648TIP3    H174359   4.987   0.527  15.204  2.2789 -1.7344 -0.2559
17648TIP3    H274360   4.911   0.418  15.276 -1.3423  0.7595 -0.0218
17649TIP3   OH274361   2.242   1.910   4.748  0.5879 -0.3229  0.1905
17649TIP3    H174362   2.243   1.836   4.687  0.1924 -0.2029  0.0305
17649TIP3    H274363   2.153   1.945   4.741  0.8930  0.4304 -0.0532
17650TIP3   OH274364   4.964   6.397   3.569 -0.2307 -0.0939  0.0028
17650TIP3    H174365   5.041   6.452   3.588  0.5636 -1.7345  1.9045
17650TIP3    H274366   4.986   6.352   3.488  0.0631  0.6989 -0.3726
17651TIP3   OH274367   4.767   4.469  13.511 -0.2690 -0.0228 -0.1386
17651TIP3    H174368   4.707   4.541  13.493  0.5286  0.4464 -1.0009
17651TIP3    H274369   4.849   4.512  13.535  0.0535 -0.6536 -0.0942
17652TIP3   OH274370   3.828   2.084  11.396  0.9650  0.2172 -0.3711
17652TIP3    H174371   3.897   2.132  11.350  0.7047 -1.2393 -2.4122
17652TIP3    H274372   3.749   2.101  11.345  0.3973 -0.4191  0.2755
17653TIP3   OH274373   4.460   0.644  12.665  0.0645  0.0071  0.6192
17653TIP3    H174374   4.464   0.662  12.571  0.8248 -1.3983  0.3500
17653TIP3    H274375   4.549   0.616  12.688 -0.2398 -0.1574  1.6441
17654TIP3   OH274376   1.446   6.647  11.578 -0.1582  0.3497  0.2004
17654TIP3    H174377   1.368   6.642  11.633  0.0171  1.9945  0.6509
17654TIP3    H274378   1.518   6.629  11.638 -0.1848 -2.0807 -0.3927
17655TIP3   OH274379   6.425   2.923  14.652  0.4140  0.5268 -1.0343
17655TIP3    H174380   6.417   2.830  14.631  1.8971  0.6618 -2.3865
17655TIP3    H274381   6.363   2.966  14.594 -0.3050  0.3979 -0.3765
17656TIP3   OH274382   6.279   3.586  10.421  0.3314 -0.1946 -0.1357
17656TIP3    H174383   6.283   3.649  10.349 -1.9656 -0.4585 -0.5651
17656TIP3    H274384   6.357   3.604  10.474  1.5992  0.6022 -2.1772
17657TIP3   OH274385   0.666   5.792  15.720  0.1616 -0.0364 -0.3556
17657TIP3    H174386   0.599   5.723  15.715 -0.5750  0.7318 -1.2495
17657TIP3    H274387   0.653   5.844  15.641  0.1848  1.6131  0.6933
17658TIP3   OH274388   3.566   5.391   4.748 -0.0217  0.1959  0.0439
17658TIP3    H174389   3.616   5.320   4.707 -0.6964 -0.5725  0.5144
17658TIP3    H274390   3.621   5.419   4.821  0.3021  0.2318 -0.2107
17659TIP3   OH274391   1.663   2.895   0.495  0.3575 -0.2735  0.3167
17659TIP3    H174392   1.626   2.973   0.454  0.7965 -0.3162 -0.1800
17659TIP3    H274393   1.621   2.822   0.449  1.7772 -0.3336 -0.9904
17660TIP3   OH274394   2.568   3.612   1.702 -0.4071 -0.2333 -0.3963
17660TIP3    H174395   2.541   3.531   1.658  1.2740 -1.2676  0.3607
17660TIP3    H274396   2.532   3.605   1.790  0.0795 -0.3682 -0.2039
17661TIP3   OH274397   4.513   5.389  15.424  0.5502 -0.5051 -0.2573
17661TIP3    H174398   4.501   5.302  15.385  1.2731  0.5690 -3.1024
17661TIP3    H274399   4.603   5.412  15.404  0.1855  1.1761 -0.1159
17662TIP3   OH274400   5.240   3.440  11.543 -0.7241  0.5568  0.1852
17662TIP3    H174401   5.311   3.470  11.600  0.6277  1.1884 -1.7317
17662TIP3    H274402   5.206   3.521  11.503  0.8985 -0.0352 -2.6952
17663TIP3   OH274403   0.490   1.281   1.672 -0.0370 -0.8567  0.5123
17663TIP3    H174404   0.486   1.342   1.746 -1.5579  0.1058 -0.3198
17663TIP3    H274405   0.500   1.195   1.713  0.4197 -0.2315  1.7783
17664TIP3   OH274406   3.811   0.848   1.471  0.1414  0.3384  0.3227
17664TIP3    H174407   3.730   0.898   1.467  1.1064  1.9567  0.0990
17664TIP3    H274408   3.843   0.858   1.560 -0.3544 -1.1019  0.6955
17665TIP3   OH274409   5.572   4.529  12.517 -0.8240 -0.1562  0.0975
17665TIP3    H174410   5.553   4.554  12.608 -1.2863  1.5119 -0.4064
17665TIP3    H274411   5.616   4.445  12.523  0.1946  0.4518  1.9530
17666TIP3   OH274412   0.123   0.860   2.939  0.3834 -0.7387  0.2859
17666TIP3    H174413   0.080   0.812   3.010 -0.1607  0.6506  0.9361
17666TIP3    H274414   0.086   0.823   2.859 -0.6277 -0.8441  0.7901
17667TIP3   OH274415   3.780   1.776   1.894 -0.4509  0.0496 -0.3227
17667TIP3    H174416   3.825   1.780   1.979 -0.6400  2.4772 -0.2746
17667TIP3    H274417   3.843   1.810   1.831 -0.3670 -1.5962 -1.1800
17668TIP3   OH274418   6.165   4.973   5.898  0.3141  0.3393 -0.1273
17668TIP3    H174419   6.255   4.954   5.924  0.3526  0.9162  0.1867
17668TIP3    H274420   6.163   4.959   5.803  0.3642 -1.0749  0.0615
17669TIP3   OH274421   3.731   0.314  16.372  0.2009  0.3361  0.2847
17669TIP3    H174422   3.763   0.374  16.439  0.6714 -0.2378  0.5851
17669TIP3    H274423   3.769   0.346  16.290  1.7082 -0.4208  0.6525
17670TIP3   OH274424   6.340   6.668  14.146 -0.5649 -0.0993 -0.0527
17670TIP3    H174425   6.258   6.650  14.101 -0.9843  0.8395  0.3194
17670TIP3    H274426   6.328   6.754  14.186  0.5782  0.0319  0.0529
17671TIP3   OH274427   5.381   4.161   5.609 -0.4307  0.0048  0.8571
17671TIP3    H174428   5.360   4.250   5.638 -0.1705  0.6340 -0.7558
17671TIP3    H274429   5.476   4.163   5.595 -0.5405 -0.2566  0.0157
17672TIP3   OH274430   6.041   3.827  15.101 -0.2938 -0.4929 -0.3619
17672TIP3    H174431   6.083   3.901  15.144  0.0294 -1.8316  1.7791
17672TIP3    H274432   6.057   3.841  15.008  0.8519  1.4463  0.0755
17673TIP3   OH274433   3.336   2.179   0.730 -0.4028 -0.1133  0.0448
17673TIP3    H174434   3.341   2.260   0.679 -0.8186 -0.4296 -0.5043
17673TIP3    H274435   3.325   2.110   0.665  1.3283 -0.7687  0.4046
17674TIP3   OH274436   3.347   5.314  13.825 -0.0007  0.4148  0.6094
17674TIP3    H174437   3.334   5.403  13.793 -2.6624  1.0310  2.9427
17674TIP3    H274438   3.264   5.270  13.807  0.2515 -0.6992  2.0251
17675TIP3   OH274439   1.140   6.083   1.484 -0.5247 -0.0678 -0.5291
17675TIP3    H174440   1.128   5.988   1.483 -2.9525  0.0998  1.8932
17675TIP3    H274441   1.158   6.104   1.576 -0.9972  1.9235 -0.8428
17676TIP3   OH274442   6.340   2.774  10.801  0.1272  0.5764 -0.2670
17676TIP3    H174443   6.339   2.838  10.872  2.0596  0.5941 -0.2142
17676TIP3    H274444   6.386   2.818  10.729 -0.8201  0.1615 -1.1599
17677TIP3   OH274445   2.072   3.696   0.229  0.5494  0.2096  0.4464
17677TIP3    H174446   2.160   3.697   0.265  0.5603  0.8928  0.4233
17677TIP3    H274447   2.038   3.783   0.247  0.7355  0.7715 -1.6045
17678TIP3   OH274448   2.543   5.093  16.026 -0.1892  0.3207  0.0962
17678TIP3    H174449   2.632   5.115  16.052 -0.6007  1.8416  0.3079
17678TIP3    H274450   2.487   5.136  16.091 -1.1103  0.5316 -0.8019
17679TIP3   OH274451   3.550   1.544   2.989 -0.3697  0.0582 -0.4966
17679TIP3    H174452   3.499   1.463   2.986  1.1188 -0.9268 -2.9473
17679TIP3    H274453   3.524   1.591   2.910  0.6846  0.7075 -0.4754
17680TIP3   OH274454   6.522   3.793   1.302  0.1633 -0.0415 -0.0644
17680TIP3    H174455   6.485   3.725   1.246  2.2931 -0.2152 -1.3525
17680TIP3    H274456   6.592   3.749   1.351 -0.2107  0.6275  1.1201
17681TIP3   OH274457   4.876   1.197   4.286 -0.4021  0.0249 -0.2157
17681TIP3    H174458   4.843   1.199   4.196 -0.2219  1.4473 -0.2750
17681TIP3    H274459   4.912   1.285   4.300 -2.7587  0.7304  2.1102
17682TIP3   OH274460   3.020   0.407  11.234  0.1320  0.2027 -0.5457
17682TIP3    H174461   3.042   0.314  11.240 -1.2426 -0.2491 -1.7040
17682TIP3    H274462   2.926   0.410  11.252  0.0814  1.3214 -0.9194
17683TIP3   OH274463   1.554   1.568   2.666  0.2047  0.4288 -0.0440
17683TIP3    H174464   1.555   1.492   2.608  1.7451  0.0881  0.3662
17683TIP3    H274465   1.471   1.562   2.713  0.2025 -0.8899 -0.1806
17684TIP3   OH274466   5.410   4.313   5.376 -0.1036  0.4935 -0.4058
17684TIP3    H174467   5.500   4.333   5.400 -1.1147  3.3148  1.5603
17684TIP3    H274468   5.383   4.246   5.439  0.5699 -0.3255 -0.9712
17685TIP3   OH274469   2.929   2.548   1.582 -0.0813  0.2558  0.0580
17685TIP3    H174470   2.838   2.520   1.572 -0.3021  0.2313  1.8072
17685TIP3    H274471   2.975   2.508   1.509 -1.5335  0.5655 -1.0705
17686TIP3   OH274472   2.398   4.235  12.989  0.1516  0.1008 -0.3001
17686TIP3    H174473   2.443   4.195  12.914  0.7120 -2.3662  1.2325
17686TIP3    H274474   2.429   4.325  12.990  2.4556 -0.6007 -1.3147
17687TIP3   OH274475   4.493   0.215   1.142  0.1411  0.6566 -0.1408
17687TIP3    H174476   4.452   0.130   1.157 -0.5156  0.6720 -1.6563
17687TIP3    H274477   4.545   0.231   1.220 -0.6707 -0.5875  0.6810
17688TIP3   OH274478   2.504   4.687   2.037 -0.3276 -0.4649 -1.2687
17688TIP3    H174479   2.525   4.608   2.087  1.4477  0.6952 -0.0309
17688TIP3    H274480   2.539   4.670   1.950  1.2461 -0.5777 -0.6462
17689TIP3   OH274481   2.770   1.179  10.779  0.0125  0.1902 -0.2253
17689TIP3    H174482   2.784   1.267  10.815 -0.1943  0.9808 -1.9413
17689TIP3    H274483   2.829   1.175  10.703  0.5153 -1.4249  0.2088
17690TIP3   OH274484   0.758   2.769  10.006 -0.1750 -0.3738  0.1245
17690TIP3    H174485   0.844   2.729  10.001 -0.2569 -0.5370  0.0300
17690TIP3    H274486   0.768   2.854   9.963  0.4888  0.5479  1.9996
17691TIP3   OH274487   1.177   5.539   4.716 -0.1302 -0.1486 -0.1655
17691TIP3    H174488   1.181   5.444   4.707 -4.0973 -0.3043 -2.7035
17691TIP3    H274489   1.207   5.573   4.632 -0.2876  0.7557  0.1217
17692TIP3   OH274490   5.353   4.853   2.662 -0.3214  0.7997 -0.3328
17692TIP3    H174491   5.278   4.904   2.692 -0.1388  0.2760  1.0810
17692TIP3    H274492   5.424   4.916   2.654 -0.2567  0.8852  0.8126
17693TIP3   OH274493   2.465   2.320   5.988  0.6625  1.0009 -0.3359
17693TIP3    H174494   2.388   2.290   5.939  0.6496 -1.5753  1.0539
17693TIP3    H274495   2.429   2.363   6.065  0.5939  0.0711  0.1596
17694TIP3   OH274496   5.333   1.915  13.811  0.0499 -0.1578 -0.1392
17694TIP3    H174497   5.253   1.877  13.775 -0.9820  0.4372  1.4284
17694TIP3    H274498   5.312   2.007  13.825  0.7570 -0.1505  0.9610
17695TIP3   OH274499   3.639   3.484  13.834 -0.0540  0.2145  0.1888
17695TIP3    H174500   3.649   3.457  13.925  0.2576 -0.7764 -0.1306
17695TIP3    H274501   3.662   3.407  13.783 -0.3974  0.7031 -0.7341
17696TIP3   OH274502   0.777   4.402   0.422 -0.0624 -0.5611  0.5139
17696TIP3    H174503   0.729   4.328   0.384 -1.2809 -1.0371  2.8319
17696TIP3    H274504   0.848   4.418   0.359 -1.4483 -1.7990 -1.5096
17697TIP3   OH274505   1.370   0.281   1.046 -0.2905  0.3420 -0.4790
17697TIP3    H174506   1.310   0.348   1.078  0.4085  0.5693  0.3645
17697TIP3    H274507   1.366   0.212   1.112  2.6128  1.6261  1.2373
17698TIP3   OH274508   6.797   5.452  10.435 -0.3291  0.0636 -0.3476
17698TIP3    H174509   6.720   5.396  10.434  0.7740 -1.6368  1.5237
17698TIP3    H274510   6.834   5.440  10.523  2.1125  0.7420 -1.2018
17699TIP3   OH274511   2.497   0.765  15.757 -0.6104  0.2126 -1.1809
17699TIP3    H174512   2.412   0.747  15.798 -0.5121  0.7952 -0.7019
17699TIP3    H274513   2.488   0.853  15.722  0.3101  0.9341  0.2903
17700TIP3   OH274514   6.683   1.337   1.749 -0.0590  0.0211  0.4057
17700TIP3    H174515   6.732   1.338   1.831  0.0614 -0.0775  0.3356
17700TIP3    H274516   6.610   1.278   1.765  0.0940 -0.1799  0.3690
17701TIP3   OH274517   2.253   3.540  15.923 -0.1189 -0.4600 -0.3995
17701TIP3    H174518   2.243   3.506  15.835  0.4905  0.7343 -0.9619
17701TIP3    H274519   2.341   3.578  15.925 -0.7490  1.0630  0.1531
17702TIP3   OH274520   0.603   2.590   4.067  0.2110 -0.0207  0.0657
17702TIP3    H174521   0.663   2.637   4.009 -0.6898  0.0453 -0.8446
17702TIP3    H274522   0.541   2.547   4.008  0.4480 -1.6037  0.9158
17703TIP3   OH274523   4.167   5.578  14.096 -0.0310 -0.2599  0.2187
17703TIP3    H174524   4.147   5.565  14.188 -1.4486  1.0396  0.1170
17703TIP3    H274525   4.085   5.604  14.056  1.0165  1.4239 -0.9804
17704TIP3   OH274526   3.799   0.693  14.139  0.3805  0.0759  0.0576
17704TIP3    H174527   3.893   0.707  14.152  0.7598 -1.3450 -0.8583
17704TIP3    H274528   3.777   0.749  14.065  0.2608  1.1876  0.9143
17705TIP3   OH274529   1.743   5.067  15.529  0.7456  0.1096 -0.4128
17705TIP3    H174530   1.670   5.130  15.532 -0.1101 -0.8821  2.8142
17705TIP3    H274531   1.755   5.050  15.435 -1.5988  2.0801 -1.1835
17706TIP3   OH274532   6.728   4.744  15.641  0.5090  0.0644  0.0278
17706TIP3    H174533   6.683   4.818  15.682  0.6847 -0.3623  1.0301
17706TIP3    H274534   6.809   4.782  15.607 -2.2405  1.9263 -5.9204
17707TIP3   OH274535   6.798   4.686   2.846 -0.1580  0.9112 -0.1303
17707TIP3    H174536   6.777   4.596   2.874  0.2677 -0.2291 -3.1065
17707TIP3    H274537   6.860   4.717   2.911  0.9110 -1.5666  0.1597
17708TIP3   OH274538   3.514   3.819  13.117  0.2194  0.1774  0.1724
17708TIP3    H174539   3.487   3.752  13.054 -2.3788  1.0848  0.2177
17708TIP3    H274540   3.562   3.883  13.066 -0.2616 -0.0139 -0.5263
17709TIP3   OH274541   2.495   6.043  15.695 -0.4196 -0.7302 -0.4967
17709TIP3    H174542   2.567   6.038  15.758  0.1550 -0.7758 -1.1370
17709TIP3    H274543   2.424   6.086  15.742  0.2780 -0.0098 -0.0741
17710TIP3   OH274544   5.731   6.306   4.156 -0.1948  0.0549  0.2058
17710TIP3    H174545   5.762   6.375   4.214 -0.2616 -0.8946  1.4058
17710TIP3    H274546   5.639   6.327   4.140 -0.0248  0.6312 -0.0207
17711TIP3   OH274547   3.825   1.410  10.149  0.6462  0.0841  0.1290
17711TIP3    H174548   3.890   1.461  10.198  1.3791 -0.0464 -0.6915
17711TIP3    H274549   3.875   1.363  10.083  0.4787 -4.1320  2.6451
17712TIP3   OH274550   6.685   1.053  14.831  0.5690  0.4142 -0.1863
17712TIP3    H174551   6.671   1.145  14.852  1.1190  0.9944 -2.0814
17712TIP3    H274552   6.608   1.008  14.864 -0.6479  1.8709 -0.9357
17713TIP3   OH274553   4.946   5.609  12.249  0.4628 -0.3389 -0.1479
17713TIP3    H174554   4.930   5.697  12.216 -0.7675 -0.2547  0.6109
17713TIP3    H274555   5.032   5.585  12.214  1.6005  1.7965  1.0049
17714TIP3   OH274556   1.222   5.476  12.398 -0.3016  0.5473 -0.1742
17714TIP3    H174557   1.199   5.515  12.482 -1.6765  0.4458 -0.4819
17714TIP3    H274558   1.139   5.448  12.361 -0.0265  2.5946 -2.5824
17715TIP3   OH274559   2.678   4.930   0.084 -0.2724  0.3020  0.5110
17715TIP3    H174560   2.737   4.902   0.155 -0.6388  0.9389  1.0704
17715TIP3    H274561   2.730   4.990   0.032  0.4274 -1.1355 -0.5324
17716TIP3   OH274562   3.591   4.706   1.375 -0.4352 -0.0538  0.1133
17716TIP3    H174563   3.615   4.741   1.290  0.3071 -0.8369 -0.0133
17716TIP3    H274564   3.571   4.614   1.359 -0.0854 -0.2624  0.8058
17717TIP3   OH274565   5.938   2.398  16.102 -0.0947  0.2391  0.3765
17717TIP3    H174566   5.994   2.452  16.047 -0.2779  0.7833  0.7205
17717TIP3    H274567   5.968   2.308  16.086  0.0762  0.4199 -0.3428
17718TIP3   OH274568   6.636   1.488  14.078  0.0114 -0.7644 -0.1161
17718TIP3    H174569   6.631   1.394  14.061  1.3432 -0.5261 -2.1217
17718TIP3    H274570   6.729   1.505  14.096 -0.1424  0.2323 -0.1892
17719TIP3   OH274571   2.267   0.311   4.270  0.2587 -0.2727 -0.3641
17719TIP3    H174572   2.359   0.314   4.243  0.1353 -0.7878 -0.8591
17719TIP3    H274573   2.260   0.231   4.322 -0.0272 -0.5164 -0.7742
17720TIP3   OH274574   4.404   4.344   3.667  0.6250  0.1801 -0.8927
17720TIP3    H174575   4.398   4.433   3.631  1.9270 -0.2671 -2.3080
17720TIP3    H274576   4.491   4.314   3.643  0.9439 -0.7936  1.2577
17721TIP3   OH274577   6.221   4.097   5.362 -0.1957  0.6698  0.2691
17721TIP3    H174578   6.257   4.055   5.284 -0.2785  1.1347 -0.0258
17721TIP3    H274579   6.200   4.025   5.421 -0.0606  0.3187 -0.1082
17722TIP3   OH274580   6.865   1.918   0.611 -0.7250 -0.6206  0.0596
17722TIP3    H174581   6.781   1.905   0.569 -0.9255 -2.8571  1.0295
17722TIP3    H274582   6.930   1.906   0.542 -1.1457 -0.7466 -0.3109
17723TIP3   OH274583   0.411   1.183  14.873 -0.3524  0.1364  0.1355
17723TIP3    H174584   0.433   1.095  14.842 -0.5344  0.4009 -0.7940
17723TIP3    H274585   0.416   1.177  14.968  0.5216 -0.6517  0.0613
17724TIP3   OH274586   2.564   3.685  14.436 -0.1327 -0.0691 -0.4006
17724TIP3    H174587   2.497   3.699  14.369 -0.5654 -0.3271 -0.0331
17724TIP3    H274588   2.623   3.619  14.398  0.2144  0.5434 -0.9367
17725TIP3   OH274589   2.189   0.940  15.917  0.1913  0.0765  0.3534
17725TIP3    H174590   2.100   0.939  15.881  0.8748  1.6037 -1.5585
17725TIP3    H274591   2.233   0.868  15.873 -0.3127 -1.3394  2.0624
17726TIP3   OH274592   2.283   6.537  16.546 -0.2706  0.1356  0.2407
17726TIP3    H174593   2.221   6.511  16.478 -0.5236  0.8786  0.1788
17726TIP3    H274594   2.352   6.471  16.542 -1.3786 -1.0662  0.7485
17727TIP3   OH274595   1.054   6.305  13.988 -0.0082  0.2774  0.3807
17727TIP3    H174596   1.026   6.383  14.035 -0.5179  0.8532 -0.8248
17727TIP3    H274597   1.149   6.314  13.980 -0.1968  1.4480 -0.8604
17728TIP3   OH274598   0.996   1.861   1.322 -0.6535 -0.0118  0.1579
17728TIP3    H174599   1.035   1.939   1.282 -0.0045 -0.1642  0.4729
17728TIP3    H274600   1.010   1.792   1.258  1.1635 -0.4530  0.9527
17729TIP3   OH274601   4.264   5.539  14.998  0.2044 -0.1301 -0.1166
17729TIP3    H174602   4.172   5.514  14.989  0.3332  0.0226 -2.7072
17729TIP3    H274603   4.279   5.603  14.928  2.0431  0.6391  0.8947
17730TIP3   OH274604   1.106   4.984   1.216  0.1204  0.3361  0.5495
17730TIP3    H174605   1.104   5.063   1.270  0.3194  1.2093 -0.6915
17730TIP3    H274606   1.197   4.955   1.219 -0.1156 -0.3366  1.6723
17731TIP3   OH274607   5.458   3.027  16.340 -0.3750  0.2237  0.4736
17731TIP3    H174608   5.497   2.968  16.275 -1.0015 -0.5866  0.8169
17731TIP3    H274609   5.483   2.989  16.425  2.9366  2.8330  0.8826
17732TIP3   OH274610   5.145   0.451  13.110 -0.3945  0.2201  0.3584
17732TIP3    H174611   5.172   0.393  13.182  2.0441 -0.2491 -0.8400
17732TIP3    H274612   5.160   0.539  13.144  0.5398  0.0045  0.5491
17733TIP3   OH274613   6.460   5.980  11.204  0.7129 -0.1205  0.0886
17733TIP3    H174614   6.441   6.074  11.198 -1.0090 -0.2767  2.0259
17733TIP3    H274615   6.487   5.956  11.116 -1.8564  1.5932 -1.2936
17734TIP3   OH274616   5.764   6.500   4.360  0.3260  0.0722  0.0400
17734TIP3    H174617   5.736   6.591   4.353 -1.8332 -0.6679 -1.8115
17734TIP3    H274618   5.711   6.464   4.431  0.7599  0.0699  0.3739
17735TIP3   OH274619   0.950   6.073  13.775  0.0850  0.1841  0.4223
17735TIP3    H174620   0.989   6.142  13.722 -2.0222 -0.5711 -2.3191
17735TIP3    H274621   0.951   5.995  13.720 -0.0819 -1.3146  2.4067
17736TIP3   OH274622   2.459   1.335  12.400 -0.7552  0.3286  0.4306
17736TIP3    H174623   2.527   1.287  12.447  0.8035  2.4911  0.4969
17736TIP3    H274624   2.467   1.305  12.309 -0.4944 -0.2701  0.6461
17737TIP3   OH274625   5.807   2.884  16.412 -0.1444  0.1327  0.2595
17737TIP3    H174626   5.784   2.850  16.499 -4.4381  2.4354  0.3053
17737TIP3    H274627   5.792   2.978  16.419  1.7047  0.7239 -2.4344
17738TIP3   OH274628   2.813   5.030  13.333  0.2980 -0.0715 -0.3005
17738TIP3    H174629   2.891   5.030  13.278 -0.3319  1.8425 -1.3104
17738TIP3    H274630   2.740   5.039  13.271 -0.3418  4.0302  0.7685
17739TIP3   OH274631   5.682   3.289   3.036  0.1541  0.1797 -0.1509
17739TIP3    H174632   5.629   3.347   2.981  0.2535 -0.2971 -0.7623
17739TIP3    H274633   5.698   3.212   2.981  0.9588  0.0536  0.2427
17740TIP3   OH274634   4.338   3.230   0.416 -0.6497 -0.5079  0.3396
17740TIP3    H174635   4.299   3.311   0.386 -0.4177  0.0051  1.3794
17740TIP3    H274636   4.429   3.253   0.434 -0.5441 -1.0384  0.5007
17741TIP3   OH274637   0.010   4.889  12.978  0.0586 -0.2708 -0.1122
17741TIP3    H174638   0.056   4.810  13.005 -1.9955 -1.0332  1.4382
17741TIP3    H274639  -0.083   4.865  12.979 -0.8662  2.6474  2.5334
17742TIP3   OH274640   1.191   2.486  11.915 -0.3917 -0.3580 -0.0574
17742TIP3    H174641   1.248   2.438  11.855 -2.0467 -2.1666 -0.2996
17742TIP3    H274642   1.112   2.505  11.863 -0.5263  1.0355  0.6026
17743TIP3   OH274643   3.027   5.473   4.094 -0.2001  0.6489  0.5796
17743TIP3    H174644   3.054   5.553   4.050  0.4997 -0.6891 -1.5997
17743TIP3    H274645   3.102   5.414   4.085 -1.9654 -1.5350 -1.3519
17744TIP3   OH274646   1.294   3.267  15.325 -0.1368 -0.1667  0.0870
17744TIP3    H174647   1.292   3.363  15.331 -1.6579 -0.1815  0.0084
17744TIP3    H274648   1.321   3.249  15.235  1.6311  0.1458  0.5061
17745TIP3   OH274649   5.984   2.747  16.268  0.1375 -0.3297 -0.0940
17745TIP3    H174650   5.938   2.686  16.211  0.7058  0.0864 -1.0251
17745TIP3    H274651   5.915   2.801  16.307 -0.3348 -1.2676  0.4088
17746TIP3   OH274652   0.820   5.665  13.725 -0.0345  0.6098 -0.3002
17746TIP3    H174653   0.729   5.670  13.696  0.8405 -0.6050 -3.6540
17746TIP3    H274654   0.847   5.576  13.704  1.4668  0.2847  2.4399
17747TIP3   OH274655   5.030   2.513  12.816 -0.1906 -0.4795 -0.8023
17747TIP3    H174656   5.035   2.589  12.758  0.2343  0.0423 -0.1079
17747TIP3    H274657   4.981   2.545  12.892  2.6138  0.0700  0.8954
17748TIP3   OH274658   2.217   0.942  16.446 -0.2229 -0.0255 -0.1676
17748TIP3    H174659   2.133   0.988  16.444  0.5123  1.5023  1.1451
17748TIP3    H274660   2.199   0.864  16.499 -0.8581  0.1926 -0.0403
17749TIP3   OH274661   4.884   0.130  13.835  0.2163 -0.2613 -0.4096
17749TIP3    H174662   4.966   0.083  13.844 -0.3301 -0.8550  5.2560
17749TIP3    H274663   4.817   0.061  13.834 -0.3538 -0.0502  3.5982
17750TIP3   OH274664   0.811   4.617  12.418  0.2914  0.4086 -0.1488
17750TIP3    H174665   0.853   4.703  12.426 -0.3885  0.8882 -1.4061
17750TIP3    H274666   0.725   4.636  12.381  1.3154 -1.0019 -3.6548
17751TIP3   OH274667   6.703   6.097  15.462  0.1179  0.3057  0.3505
17751TIP3    H174668   6.787   6.140  15.474 -0.4573  1.7063 -0.3673
17751TIP3    H274669   6.641   6.169  15.449 -1.2716 -0.6688  1.2921
17752TIP3   OH274670   3.128   3.563   2.366 -0.2478  0.5146 -0.4523
17752TIP3    H174671   3.090   3.505   2.433 -0.0338 -0.8797 -1.5085
17752TIP3    H274672   3.052   3.605   2.326 -0.4341  0.6311  0.0096
17753TIP3   OH274673   1.996   0.024  13.058  0.1432 -0.1006 -0.3536
17753TIP3    H174674   2.002  -0.020  12.974 -0.4904 -0.9034  0.0160
17753TIP3    H274675   2.083   0.063  13.071 -0.8537  3.8620 -3.4092
17754TIP3   OH274676   3.375   3.641   0.454 -0.6789 -0.5297 -0.4955
17754TIP3    H174677   3.459   3.655   0.499 -1.3342  0.6920  0.4268
17754TIP3    H274678   3.312   3.691   0.506 -1.8757 -0.9210 -1.5262
17755TIP3   OH274679   6.752   3.700   0.951  0.1174 -0.5917 -0.0285
17755TIP3    H174680   6.806   3.779   0.941 -1.9695  0.8330 -0.5546
17755TIP3    H274681   6.669   3.722   0.908 -0.6141 -3.0036  0.0426
17756TIP3   OH274682   0.241   2.035   4.605 -0.0814 -0.0134  0.1031
17756TIP3    H174683   0.188   2.111   4.582 -0.4944  0.0718  1.2665
17756TIP3    H274684   0.246   2.037   4.700 -1.3027 -2.2376  0.2807
17757TIP3   OH274685   5.436   4.155   2.394 -0.1317  0.2037  0.3856
17757TIP3    H174686   5.400   4.213   2.461 -2.0653  0.5315 -0.8389
17757TIP3    H274687   5.522   4.191   2.374 -0.9077  2.1634  0.3008
17758TIP3   OH274688   1.107   1.031   2.603  0.0179  0.8593  0.1302
17758TIP3    H174689   1.056   1.049   2.681 -0.6635  1.0800 -0.3558
17758TIP3    H274690   1.148   1.115   2.581  0.7048  0.6488  0.5989
17759TIP3   OH274691   5.736   3.570  16.524 -0.4387 -0.2796  0.5763
17759TIP3    H174692   5.681   3.646  16.502  1.3501  0.6859 -0.7985
17759TIP3    H274693   5.760   3.583  16.616  0.0784  0.9967  0.2801
17760TIP3   OH274694   2.039   6.556  12.451 -0.3343 -0.1248 -0.2206
17760TIP3    H174695   2.024   6.647  12.477  0.1053  0.3471 -1.5695
17760TIP3    H274696   2.094   6.561  12.373  0.3678 -1.5830  0.1337
17761TIP3   OH274697   1.848   1.555   1.539 -0.4740 -0.2913  0.1291
17761TIP3    H174698   1.857   1.593   1.451 -2.4236  0.0601  0.0352
17761TIP3    H274699   1.762   1.585   1.569 -0.0380 -0.7807  1.9930
17762TIP3   OH274700   3.631   2.522  11.371  0.0847  0.3746 -0.6605
17762TIP3    H174701   3.674   2.490  11.292 -1.1879 -1.6833 -0.5945
17762TIP3    H274702   3.540   2.493  11.362 -0.0257 -0.2235  1.6829
17763TIP3   OH274703   4.661   0.471  15.124  0.3366  0.3898 -0.1759
17763TIP3    H174704   4.656   0.557  15.166  1.7101  1.0784 -1.3304
17763TIP3    H274705   4.715   0.419  15.183 -1.5080 -0.1320  1.1573
17764TIP3   OH274706   0.729   5.159   5.753  0.3292 -0.5206  0.7309
17764TIP3    H174707   0.646   5.189   5.715  0.9678 -1.9470 -2.0356
17764TIP3    H274708   0.708   5.143   5.845 -1.8896  1.1665  0.6205
17765TIP3   OH274709   0.355   0.951  12.971  0.4354  0.6697 -0.0321
17765TIP3    H174710   0.446   0.975  12.953  0.5191  1.0119  0.8165
17765TIP3    H274711   0.359   0.893  13.047 -0.2608  3.1840  2.0495
17766TIP3   OH274712   5.378   2.598   0.787 -0.6119 -0.3995  1.3363
17766TIP3    H174713   5.404   2.513   0.823  0.5672 -0.6231  0.0621
17766TIP3    H274714   5.425   2.662   0.840 -1.7423 -0.4886  2.4993
17767TIP3   OH274715   0.631   1.401   4.656  0.0835  0.2687  0.5905
17767TIP3    H174716   0.576   1.334   4.614  1.1779 -0.6273  0.5109
17767TIP3    H274717   0.662   1.455   4.583  2.4524 -1.6375  0.0568
17768TIP3   OH274718   4.915   5.362  11.565 -0.2391 -0.5802 -0.0627
17768TIP3    H174719   4.872   5.345  11.649  0.0819 -1.6707 -0.1111
17768TIP3    H274720   4.873   5.302  11.504  0.1744 -0.4420 -0.4895
17769TIP3   OH274721   6.856   1.716  12.866 -0.3614 -0.0938 -0.0990
17769TIP3    H174722   6.906   1.653  12.814 -0.5469 -0.0216 -0.3667
17769TIP3    H274723   6.796   1.757  12.804  0.0702  0.6800 -0.0233
17770TIP3   OH274724   2.615   4.600   1.791 -0.6082 -0.1171  0.1740
17770TIP3    H174725   2.647   4.664   1.728  0.3523 -0.4733  0.2725
17770TIP3    H274726   2.643   4.515   1.755 -2.0092 -0.5038 -0.0469
17771TIP3   OH274727   2.117   0.866  14.728  0.2674  0.7226  0.3992
17771TIP3    H174728   2.180   0.843  14.660  0.4987  3.0431 -0.2598
17771TIP3    H274729   2.031   0.855  14.686  0.3269  0.2388  0.3971
17772TIP3   OH274730   2.926   6.553   3.733 -0.1787  0.3948 -0.2565
17772TIP3    H174731   2.934   6.567   3.827  1.3142 -2.7368  0.2152
17772TIP3    H274732   2.864   6.481   3.725 -0.8121  1.0649 -1.7645
17773TIP3   OH274733   3.214   5.326   1.857 -0.1765  0.0121 -0.2064
17773TIP3    H174734   3.119   5.317   1.871 -0.2856 -1.8301 -1.7181
17773TIP3    H274735   3.249   5.239   1.876  1.0681  0.3825 -0.7398
17774TIP3   OH274736   6.734   3.588  13.085  0.4631  0.8219  0.1315
17774TIP3    H174737   6.802   3.656  13.087  1.2279  0.1771 -1.6712
17774TIP3    H274738   6.776   3.513  13.043 -0.9826 -0.0533  0.1809
17775TIP3   OH274739   2.896   3.113   2.979 -0.1225  0.0129 -0.0029
17775TIP3    H174740   2.989   3.094   2.968 -0.6043 -2.6847 -0.1228
17775TIP3    H274741   2.890   3.157   3.064  1.1931 -0.3528  0.2909
17776TIP3   OH274742   6.440   0.470   4.638  0.0886  0.1486 -0.1764
17776TIP3    H174743   6.499   0.535   4.600 -0.5495  0.3529 -0.8438
17776TIP3    H274744   6.356   0.516   4.646  0.1611  0.0781  1.3913
17777TIP3   OH274745   6.201   5.265  15.642  0.5254 -0.3075 -0.0101
17777TIP3    H174746   6.202   5.356  15.671 -0.9127 -0.5485  0.8630
17777TIP3    H274747   6.246   5.217  15.712  1.3377 -0.2730 -0.4989
17778TIP3   OH274748   3.108   6.256  16.444  0.4401 -0.1429  0.0837
17778TIP3    H174749   3.137   6.184  16.388 -1.4065 -0.3947 -0.6335
17778TIP3    H274750   3.132   6.228  16.533 -0.8142 -2.0122 -0.1030
17779TIP3   OH274751   5.491   6.637   4.204 -0.2643 -0.1468  0.2185
17779TIP3    H174752   5.417   6.647   4.264  0.7655 -0.0629  1.5215
17779TIP3    H274753   5.488   6.545   4.177  0.9027 -1.0056  2.7166
17780TIP3   OH274754   5.782   5.783  13.496  0.7021  0.0290 -0.1892
17780TIP3    H174755   5.747   5.801  13.583  0.4578 -0.3389 -0.2106
17780TIP3    H274756   5.840   5.857  13.478  1.3865 -0.2893  0.6243
17781TIP3   OH274757   2.435   5.236   1.388  0.7544 -0.1403 -0.0869
17781TIP3    H174758   2.508   5.278   1.342  0.1779  1.3938  0.3591
17781TIP3    H274759   2.433   5.277   1.474  0.1974 -1.1379  0.3992
17782TIP3   OH274760   1.632   0.034   3.737  0.3775  0.5536  0.0821
17782TIP3    H174761   1.689   0.055   3.811  1.1857 -2.2225  0.3482
17782TIP3    H274762   1.548   0.014   3.776  1.1442 -2.2163  0.5114
17783TIP3   OH274763   5.296   4.904   1.399 -0.1978  0.3573 -0.9197
17783TIP3    H174764   5.231   4.964   1.363 -0.9237 -0.0474 -0.3330
17783TIP3    H274765   5.302   4.833   1.335  0.5648  0.9711 -1.5502
17784TIP3   OH274766   3.449   4.092   3.723  0.7211 -0.2527  0.4304
17784TIP3    H174767   3.496   4.168   3.688  0.6223 -0.4626 -0.1556
17784TIP3    H274768   3.501   4.065   3.799  1.3615 -0.2680 -0.0082
17785TIP3   OH274769   5.599   3.417  13.001  0.0492 -0.0007  0.3761
17785TIP3    H174770   5.653   3.384  13.073 -0.9613  1.2673  1.7970
17785TIP3    H274771   5.556   3.495  13.038 -1.8716 -0.3287 -1.0275
17786TIP3   OH274772   2.994   5.117   2.670  0.2176  0.3552  0.3603
17786TIP3    H174773   3.032   5.192   2.715  0.6574 -0.8009  1.9736
17786TIP3    H274774   3.038   5.115   2.585 -0.7225  2.6407 -0.2417
17787TIP3   OH274775   3.320   0.717   4.690  0.6274 -0.6464 -0.1462
17787TIP3    H174776   3.390   0.780   4.670 -0.6243  1.0282  0.4365
17787TIP3    H274777   3.251   0.737   4.626  0.7441 -2.4583 -0.9002
17788TIP3   OH274778   3.074   4.216   4.509 -0.4649 -0.3231 -0.5692
17788TIP3    H174779   3.072   4.184   4.599  0.0543  1.3706  0.1033
17788TIP3    H274780   3.158   4.185   4.475 -0.8671 -1.3601 -0.6438
17789TIP3   OH274781   5.333   0.529   3.376  0.3238 -0.0809  0.2363
17789TIP3    H174782   5.390   0.599   3.408 -0.2423  0.8192 -0.7017
17789TIP3    H274783   5.302   0.486   3.456  1.8677 -0.2364  0.7748
17790TIP3   OH274784   3.459   3.887  13.644  0.0014  0.2767  0.2762
17790TIP3    H174785   3.500   3.826  13.706 -0.4889 -0.7876 -0.4084
17790TIP3    H274786   3.469   3.844  13.559  1.0780  1.9219 -0.4795
17791TIP3   OH274787   0.848   2.229  11.999 -0.1280  0.2843 -0.5167
17791TIP3    H174788   0.852   2.306  12.057  0.5978  0.4134 -0.7282
17791TIP3    H274789   0.812   2.160  12.054  1.4193  0.1551  0.3985
17792TIP3   OH274790   4.017   6.279   3.383 -0.2509  0.2726 -0.1301
17792TIP3    H174791   3.979   6.316   3.462 -0.4378 -1.0994  0.4456
17792TIP3    H274792   4.107   6.257   3.407 -0.5043 -0.7607 -0.0746
17793TIP3   OH274793   0.068   2.229   2.236  0.4777  0.3524  0.0041
17793TIP3    H174794   0.154   2.198   2.209 -0.0558 -1.1374 -0.0447
17793TIP3    H274795   0.087   2.297   2.302  1.6797  0.1614 -0.1216
17794TIP3   OH274796   6.236   3.994   1.117 -0.1112  0.5278 -0.0636
17794TIP3    H174797   6.199   4.082   1.110 -0.1533  0.3908 -2.6255
17794TIP3    H274798   6.217   3.967   1.207 -2.2510  2.1850  0.0647
17795TIP3   OH274799   0.835   4.096  10.684 -0.3700 -0.1818  0.3933
17795TIP3    H174800   0.785   4.107  10.765 -1.2777  0.1466 -0.1945
17795TIP3    H274801   0.852   4.185  10.653  0.5071 -0.2911  0.5234
17796TIP3   OH274802   6.724   1.868   2.920  0.1161  0.7076 -0.1875
17796TIP3    H174803   6.647   1.871   2.976  0.1427 -0.4368 -0.0631
17796TIP3    H274804   6.689   1.871   2.831 -0.0644  0.3962 -0.1285
17797TIP3   OH274805   4.664   3.677   4.344 -0.1047 -0.1340  0.2369
17797TIP3    H174806   4.663   3.750   4.282  2.9300  0.0578  0.2397
17797TIP3    H274807   4.598   3.616   4.311 -0.1118  0.9564 -1.9374
17798TIP3   OH274808   3.805   1.883   0.553 -0.0252  0.1226  0.7267
17798TIP3    H174809   3.719   1.869   0.512  1.3826  0.3613 -2.5869
17798TIP3    H274810   3.801   1.832   0.634 -2.8903 -0.8014  0.1199
17799TIP3   OH274811   0.366   5.522  15.145 -0.3616  0.0675  0.4247
17799TIP3    H174812   0.296   5.552  15.202 -1.0697 -1.9235  0.6488
17799TIP3    H274813   0.413   5.456  15.196  0.6179  0.1266 -0.3617
17800TIP3   OH274814   1.674   0.512  15.913  0.3511  0.7018 -0.2328
17800TIP3    H174815   1.751   0.559  15.943  1.1960 -0.6039 -0.2872
17800TIP3    H274816   1.600   0.566  15.940  1.1559  0.6689  2.2449
17801TIP3   OH274817   5.741   5.732  15.233 -0.3418  0.2722 -0.1745
17801TIP3    H174818   5.685   5.810  15.222  0.5789  1.2233  1.4046
17801TIP3    H274819   5.698   5.664  15.180 -1.0827  1.8790 -1.7666
17802TIP3   OH274820   5.582   0.744   4.206 -0.8599  0.5558 -0.4881
17802TIP3    H174821   5.667   0.765   4.168 -0.0853  0.4788  1.1221
17802TIP3    H274822   5.551   0.827   4.244 -0.8033  0.2422  0.2441
17803TIP3   OH274823   4.922   6.095  11.061 -0.7570 -0.8312 -0.1018
17803TIP3    H174824   4.906   6.084  10.967 -1.9174  0.9374 -0.1638
17803TIP3    H274825   4.856   6.040  11.103 -1.5149 -0.1494 -0.3611
17804TIP3   OH274826   0.951   4.759   4.021  0.6262 -1.3038  0.3075
17804TIP3    H174827   0.975   4.696   3.953 -2.0281 -1.1193 -0.9139
17804TIP3    H274828   0.870   4.724   4.058 -0.8832  1.2406 -0.3347
17805TIP3   OH274829   1.943   6.763  10.926  0.4756  0.4824  0.3054
17805TIP3    H174830   1.878   6.722  10.869  2.6062  0.6327 -2.4104
17805TIP3    H274831   1.900   6.767  11.012 -1.7059 -2.7070 -0.4725
17806TIP3   OH274832   5.765   2.132  12.704  0.7480  0.6511  0.1406
17806TIP3    H174833   5.856   2.105  12.714  0.6988 -0.5871 -2.1656
17806TIP3    H274834   5.725   2.064  12.650 -1.5280  1.2515  0.9566
17807TIP3   OH274835   4.887   1.932   4.383 -0.1762  0.0824  0.6655
17807TIP3    H174836   4.814   1.883   4.347  0.6696 -0.2103 -0.6995
17807TIP3    H274837   4.887   1.909   4.476 -0.0647 -2.2045  0.1682
17808TIP3   OH274838   6.270   1.450  14.008  0.4932  0.4414 -0.1018
17808TIP3    H174839   6.331   1.399  14.062  0.1001 -0.2422 -0.2950
17808TIP3    H274840   6.312   1.536  13.999  2.0948 -0.4302 -1.3735
17809TIP3   OH274841   1.193   6.528   2.935 -0.6754  0.4014 -0.2405
17809TIP3    H174842   1.215   6.481   3.016 -0.1571  0.3003 -0.4377
17809TIP3    H274843   1.272   6.522   2.881 -1.4006 -0.5252 -1.2368
17810TIP3   OH274844   0.821   2.813   4.806  0.3817  0.3958 -0.3208
17810TIP3    H174845   0.851   2.734   4.761 -1.6692 -0.3435 -0.5130
17810TIP3    H274846   0.787   2.869   4.736  1.4472  1.3236 -0.1396
17811TIP3   OH274847   1.859   0.050  12.141 -0.1114  0.0837 -0.0015
17811TIP3    H174848   1.788   0.045  12.076 -0.1541 -0.5856  0.0876
17811TIP3    H274849   1.920  -0.018  12.114  0.9742  1.2702 -0.6217
17812TIP3   OH274850   1.821   5.385  12.933  0.1820  0.1925  0.6419
17812TIP3    H174851   1.805   5.420  13.021  2.3051 -0.2495  1.2625
17812TIP3    H274852   1.737   5.347  12.907 -0.1774 -0.8884  3.0648
17813TIP3   OH274853   3.465   5.837  14.468  0.5442  0.2787 -0.5672
17813TIP3    H174854   3.481   5.746  14.493  0.1834  0.1331 -0.8524
17813TIP3    H274855   3.371   5.840  14.449  0.5193  0.7563 -0.3766
17814TIP3   OH274856   3.617   1.972   4.334  0.4494  0.0652  0.3621
17814TIP3    H174857   3.685   1.905   4.333  0.1773 -0.4241  3.7543
17814TIP3    H274858   3.665   2.055   4.327  0.9119 -0.3191 -2.0836
17815TIP3   OH274859   4.952   2.687  15.732 -0.2286  0.0596 -0.0556
17815TIP3    H174860   4.859   2.689  15.710 -0.4063  1.0992  0.7243
17815TIP3    H274861   4.992   2.638  15.660 -1.1266  1.1083 -1.3260
17816TIP3   OH274862   2.021   5.242  14.147 -0.0484  0.2003 -0.0826
17816TIP3    H174863   2.064   5.248  14.062 -1.3249  0.1306 -0.7617
17816TIP3    H274864   1.929   5.225  14.126  0.0183 -2.4729  1.3576
17817TIP3   OH274865   5.375   5.697  12.705  0.2764 -0.4159  0.0216
17817TIP3    H174866   5.460   5.662  12.677  0.7514  0.2059  0.6450
17817TIP3    H274867   5.344   5.748  12.630  1.1720  0.5871  0.2920
17818TIP3   OH274868   4.650   5.279   4.833 -0.4331 -0.2265  0.2400
17818TIP3    H174869   4.626   5.187   4.822 -2.5951  0.2557  0.5012
17818TIP3    H274870   4.596   5.309   4.906  1.4662  0.8588  1.2689
17819TIP3   OH274871   5.208   1.484   3.467  0.2798  0.0013  0.5417
17819TIP3    H174872   5.221   1.572   3.432 -1.4812  0.3645  0.6844
17819TIP3    H274873   5.161   1.497   3.549  2.4717 -0.9594  2.0341
17820TIP3   OH274874   2.143   2.811   4.746 -0.1585  0.2098  0.3841
17820TIP3    H174875   2.114   2.857   4.825 -1.5283  0.7760 -0.4058
17820TIP3    H274876   2.239   2.814   4.750 -0.2071  1.6140  1.2515
17821TIP3   OH274877   2.530   4.789   5.393 -0.4359 -0.0697  0.0652
17821TIP3    H174878   2.529   4.723   5.462 -0.0593 -1.6666 -1.3935
17821TIP3    H274879   2.568   4.866   5.435  0.9034 -1.3470  1.3400
17822TIP3   OH274880   1.469   0.870  10.112  0.5038 -0.5342 -0.3540
17822TIP3    H174881   1.432   0.877  10.201  1.8068 -0.0228  0.1660
17822TIP3    H274882   1.427   0.941  10.064 -0.3366 -0.9138 -0.2149
17823TIP3   OH274883   4.637   1.394   0.408 -0.2353  0.3951  0.4742
17823TIP3    H174884   4.595   1.323   0.457  0.3136 -0.3016 -0.0432
17823TIP3    H274885   4.586   1.472   0.431  0.3144  0.2106  2.5587
17824TIP3   OH274886   2.895   6.510  12.616  0.1165  0.4156 -0.1080
17824TIP3    H174887   2.835   6.585  12.616 -0.6742 -0.2125  0.3814
17824TIP3    H274888   2.982   6.550  12.621 -0.2272  1.3501 -1.1491
17825TIP3   OH274889   0.131   5.749  16.569  0.2724  0.0817  0.2413
17825TIP3    H174890   0.194   5.712  16.630 -1.4003 -0.7917  1.5125
17825TIP3    H274891   0.048   5.705  16.589 -0.6970  0.9585 -1.5616
17826TIP3   OH274892   4.031   3.566   1.632 -0.0348 -0.2837 -0.2072
17826TIP3    H174893   3.963   3.621   1.593  0.1406 -0.0846 -0.2313
17826TIP3    H274894   4.090   3.627   1.674 -1.2135 -0.5813  2.0304
17827TIP3   OH274895   4.428   4.156  16.421  0.3111  0.0788 -0.0446
17827TIP3    H174896   4.437   4.251  16.420  0.9825  0.0325  0.5983
17827TIP3    H274897   4.339   4.140  16.389 -0.6346  1.0341  1.9559
17828TIP3   OH274898   1.517   3.661   5.598  0.0441 -0.2017  0.4496
17828TIP3    H174899   1.526   3.586   5.657 -1.4055 -0.7427  0.0225
17828TIP3    H274900   1.532   3.737   5.653  2.5928 -0.7671  0.7024
17829TIP3   OH274901   0.275   4.027   3.038  0.6005 -0.2850  0.1813
17829TIP3    H174902   0.232   3.950   3.000 -0.1044  0.9925 -1.7284
17829TIP3    H274903   0.333   4.059   2.969  0.7173  1.0258  0.8641
17830TIP3   OH274904   6.448   6.570  14.404  0.8409  0.1249 -0.3090
17830TIP3    H174905   6.487   6.482  14.407 -0.0428 -0.2711 -0.2436
17830TIP3    H274906   6.395   6.570  14.324 -1.2375 -0.3182  0.9844
17831TIP3   OH274907   2.891   5.580   0.709 -0.3614  0.1352  0.4367
17831TIP3    H174908   2.798   5.597   0.694 -0.1501  0.5165 -0.5117
17831TIP3    H274909   2.899   5.485   0.707 -0.7169  0.1040  0.4517
17832TIP3   OH274910   2.880   3.010   5.614 -0.4472 -0.0818  0.1842
17832TIP3    H174911   2.944   3.077   5.638 -1.2381  0.2963  1.3308
17832TIP3    H274912   2.839   2.985   5.697 -1.8238 -0.2582 -0.5229
17833TIP3   OH274913   1.198   3.223  14.723 -0.5144 -0.2460 -0.0557
17833TIP3    H174914   1.165   3.302  14.765  1.3492  0.9170 -0.6690
17833TIP3    H274915   1.186   3.154  14.789 -1.3439  0.7145  0.8351
17834TIP3   OH274916   3.936   5.897  15.790  0.1311 -0.1143  0.0674
17834TIP3    H174917   3.925   5.919  15.698  0.5268  0.8662  0.2328
17834TIP3    H274918   3.858   5.932  15.833  0.8991  1.3272  0.3757
17835TIP3   OH274919   3.443   4.223   3.315 -0.1662 -0.1565  0.5072
17835TIP3    H174920   3.469   4.262   3.232  0.7601  0.5920  1.1179
17835TIP3    H274921   3.452   4.129   3.301  3.7145 -0.0194  0.8113
17836TIP3   OH274922   0.068   2.801   5.230  0.9244  0.3198  0.4649
17836TIP3    H174923   0.153   2.828   5.264  1.1182  1.1701 -0.6321
17836TIP3    H274924   0.009   2.807   5.305  1.3753  1.9322  0.7268
17837TIP3   OH274925   2.748   1.354  14.914  0.3263  0.6251  0.2891
17837TIP3    H174926   2.828   1.359  14.967 -0.3342  0.8862  1.2973
17837TIP3    H274927   2.727   1.445  14.893 -0.1325  0.6183  0.6987
17838TIP3   OH274928   5.980   2.183  11.515  0.3144  0.3356 -0.5756
17838TIP3    H174929   6.047   2.171  11.581 -0.1194  0.2997 -0.1354
17838TIP3    H274930   5.912   2.235  11.558  0.3875  0.9908 -1.2436
17839TIP3   OH274931   5.327   0.791   4.609  0.0541  0.0311 -0.8036
17839TIP3    H174932   5.387   0.839   4.666 -2.1500  1.4115  0.4951
17839TIP3    H274933   5.326   0.842   4.528  2.0743 -1.1172 -1.6173
17840TIP3   OH274934   0.254   5.261  12.504 -0.9538  0.2164  0.0104
17840TIP3    H174935   0.249   5.187  12.565  0.4280  1.1373  1.3195
17840TIP3    H274936   0.342   5.296  12.516 -2.0634  3.0988  0.6654
17841TIP3   OH274937   0.731   1.715   1.812  0.4899  0.5489  0.5451
17841TIP3    H174938   0.814   1.729   1.766  1.3283 -2.3243  0.9851
17841TIP3    H274939   0.673   1.677   1.745 -0.6741  2.8067  0.1594
17842TIP3   OH274940   5.995   1.151  14.064 -0.1910  0.0694  0.2926
17842TIP3    H174941   6.083   1.167  14.097 -1.4947  2.9557  2.7974
17842TIP3    H274942   5.991   1.200  13.982  1.1159 -1.8998 -1.0250
17843TIP3   OH274943   2.335   5.677   1.654  0.8747  0.1207  0.1985
17843TIP3    H174944   2.258   5.728   1.630  1.5845  0.3761 -1.7174
17843TIP3    H274945   2.393   5.739   1.697 -0.5501 -0.4148  3.1850
17844TIP3   OH274946   2.962   4.032   1.861 -0.1498 -0.0312  0.0039
17844TIP3    H174947   2.994   3.960   1.916 -0.8741  0.0301  0.5340
17844TIP3    H274948   3.033   4.096   1.861  0.5985 -0.8383 -0.6688
17845TIP3   OH274949   2.948   0.154   5.535  0.4729 -0.3454 -0.0116
17845TIP3    H174950   2.959   0.239   5.576  2.0554 -0.4756 -0.1025
17845TIP3    H274951   3.028   0.106   5.557 -0.9111 -2.2897  1.1242
17846TIP3   OH274952   6.890   4.872  10.706  0.2384 -0.6413 -0.2085
17846TIP3    H174953   6.822   4.804  10.701 -0.7055  0.1891  0.7994
17846TIP3    H274954   6.899   4.904  10.616 -0.7463 -0.7431 -0.3569
17847TIP3   OH274955   0.402   1.136  15.152  0.2932  0.2116 -0.0246
17847TIP3    H174956   0.442   1.163  15.234  0.0535  2.2714 -0.5211
17847TIP3    H274957   0.314   1.107  15.175 -0.5153  2.7122  0.2806
17848TIP3   OH274958   6.229   2.908  14.966  0.3747 -0.3470 -0.1521
17848TIP3    H174959   6.164   2.946  15.026  0.0471 -0.5636 -0.3662
17848TIP3    H274960   6.306   2.964  14.976 -0.7032  1.6160 -1.9000
17849TIP3   OH274961   0.665   5.250  13.308  0.2791 -0.3886  0.6881
17849TIP3    H174962   0.739   5.294  13.267 -1.6138  2.0168 -0.3800
17849TIP3    H274963   0.629   5.194  13.239 -0.1651  0.1208  0.4988
17850TIP3   OH274964   3.933   2.766   2.288 -0.0659 -0.5894 -0.4089
17850TIP3    H174965   3.870   2.735   2.353 -0.4662 -1.1514 -1.0549
17850TIP3    H274966   4.011   2.714   2.303  0.0673 -0.2731  0.0325
17851TIP3   OH274967   2.665   1.906  10.317 -0.1594  0.0343 -0.2593
17851TIP3    H174968   2.662   2.001  10.305 -2.6777  0.2919  1.6387
17851TIP3    H274969   2.626   1.891  10.402  0.9584 -2.7094 -0.1152
17852TIP3   OH274970   1.230   6.818  16.503 -0.1456 -0.3285 -0.5522
17852TIP3    H174971   1.269   6.732  16.515 -0.4585 -0.2646  1.0693
17852TIP3    H274972   1.158   6.803  16.442  0.5389 -0.9781 -1.2200
17853TIP3   OH274973   0.549   2.008   2.675 -0.2008  0.4628 -0.7721
17853TIP3    H174974   0.554   2.071   2.746  0.9933 -1.9020  1.4141
17853TIP3    H274975   0.457   2.008   2.649 -0.8003  0.9649  1.2190
17854TIP3   OH274976   2.253   2.973   3.837  0.0313  0.7289  0.4006
17854TIP3    H174977   2.283   2.884   3.815  1.2301  1.1851  0.1055
17854TIP3    H274978   2.199   2.961   3.915 -0.3001 -0.3288  0.0249
17855TIP3   OH274979   4.732   1.332  10.766 -0.1650 -0.4723 -0.3731
17855TIP3    H174980   4.698   1.382  10.691  0.7093  1.1662  0.2736
17855TIP3    H274981   4.802   1.278  10.728  0.4835  0.5749 -0.7357
17856TIP3   OH274982   0.749   5.270   0.232  0.6534  0.3998  0.1628
17856TIP3    H174983   0.750   5.268   0.328 -1.8588 -1.7260  0.2505
17856TIP3    H274984   0.657   5.260   0.209  1.0394  2.1404 -2.5332
17857TIP3   OH274985   0.886   6.008  15.101  0.2110 -0.6193  0.5667
17857TIP3    H174986   0.847   5.921  15.105  0.6451 -0.8332  0.2405
17857TIP3    H274987   0.823   6.060  15.051 -0.5968 -0.4383  1.7237
17858TIP3   OH274988   1.743   1.659   6.232  0.3057 -0.4535 -0.5577
17858TIP3    H174989   1.650   1.638   6.242  0.5610 -1.8519 -0.9255
17858TIP3    H274990   1.763   1.717   6.306 -0.2520 -2.2330  1.0690
17859TIP3   OH274991   3.930   5.531  12.291 -0.2790 -0.4889  0.2404
17859TIP3    H174992   3.902   5.440  12.295  0.0263 -0.8213 -3.0078
17859TIP3    H274993   3.887   5.566  12.213  2.2798  1.1752 -0.5251
17860TIP3   OH274994   5.210   0.366  14.595  0.3989 -0.5568 -0.0023
17860TIP3    H174995   5.198   0.450  14.639  1.7430 -0.5093  0.3188
17860TIP3    H274996   5.200   0.301  14.664 -0.2980 -0.6471 -0.1839
17861TIP3   OH274997   1.367   4.804   2.593 -0.5882 -0.0671 -0.3548
17861TIP3    H174998   1.414   4.722   2.577 -1.2777 -0.7928  1.1207
17861TIP3    H274999   1.306   4.783   2.664 -0.6349  1.7680  0.2068
17862TIP3   OH275000   6.111   3.715   2.501 -0.2670  0.7753 -0.2191
17862TIP3    H175001   6.194   3.751   2.532 -1.1081  2.5836  0.0424
17862TIP3    H275002   6.045   3.761   2.552 -1.4397 -1.0070 -0.0585
17863TIP3   OH275003   1.741   1.243  16.576  0.2422  0.2059  0.2124
17863TIP3    H175004   1.812   1.223  16.515 -1.2800 -1.7845 -1.0469
17863TIP3    H275005   1.784   1.282  16.651  2.5197  0.1669 -0.9861
17864TIP3   OH275006   0.854   1.104   0.099 -0.2297 -0.7141  0.1701
17864TIP3    H175007   0.911   1.177   0.073  0.5212 -1.6076 -0.7788
17864TIP3    H275008   0.798   1.090   0.023  1.7042 -3.0949 -0.9379
17865TIP3   OH275009   3.305   0.914   0.330 -0.3528  0.5175 -0.1301
17865TIP3    H175010   3.353   0.996   0.316  1.1017 -0.3796 -0.7119
17865TIP3    H275011   3.345   0.878   0.409  0.2066 -0.4037 -0.8101
17866TIP3   OH275012   3.363   0.307  11.041  0.1522 -0.1874  0.8399
17866TIP3    H175013   3.367   0.345  10.954 -0.5929  0.4322  1.0703
17866TIP3    H275014   3.304   0.231  11.031  2.4954 -2.0525  0.1298
17867TIP3   OH275015   0.859   4.967   0.004  0.4005 -0.0105 -0.2389
17867TIP3    H175016   0.895   5.048  -0.030 -0.3636  0.3552 -0.1877
17867TIP3    H275017   0.791   4.994   0.066  0.6138 -0.6788  0.3109
17868TIP3   OH275018   1.930   4.842   1.587  0.1577 -0.3529 -0.1389
17868TIP3    H175019   1.845   4.876   1.560  1.1120  1.8132 -0.5946
17868TIP3    H275020   1.917   4.816   1.678 -0.7151  1.0011  0.1533
17869TIP3   OH275021   1.421   4.488   4.344 -0.8667  0.0146 -0.3977
17869TIP3    H175022   1.368   4.413   4.370  0.2267  0.0457  2.2752
17869TIP3    H275023   1.426   4.543   4.423  0.7709  1.4072 -1.3865
17870TIP3   OH275024   1.236   3.632  16.544  0.3384 -0.1354  0.0964
17870TIP3    H175025   1.212   3.724  16.538  0.1946 -0.2362 -1.1072
17870TIP3    H275026   1.164   3.585  16.500  0.3094 -0.8424  0.8604
17871TIP3   OH275027   6.111   4.843   3.891 -0.7702 -0.3418  0.4926
17871TIP3    H175028   6.080   4.930   3.914  1.5189  0.5731  0.3832
17871TIP3    H275029   6.092   4.834   3.797 -1.1403 -0.0330  0.5368
17872TIP3   OH275030   6.039   2.638   2.707  0.0180  0.1372 -0.6498
17872TIP3    H175031   5.944   2.625   2.701  0.1836 -3.8009  1.9211
17872TIP3    H275032   6.060   2.625   2.799  3.2725 -1.2492 -1.4266
17873TIP3   OH275033   3.091   6.485  13.396  0.0011  1.2485 -0.0322
17873TIP3    H175034   3.023   6.446  13.342 -0.6501  2.0090  0.2218
17873TIP3    H275035   3.102   6.425  13.469  0.9100  0.1899 -0.9794
17874TIP3   OH275036   0.035   2.420   0.672 -0.3530  0.5234 -0.0080
17874TIP3    H175037   0.089   2.363   0.617 -1.0348 -2.2994  2.0309
17874TIP3    H275038  -0.035   2.449   0.614  2.1531  2.7891 -2.2079
17875TIP3   OH275039   5.618   1.215   4.103  0.1886  0.4719 -0.0207
17875TIP3    H175040   5.558   1.249   4.170  0.7513  0.4990  0.4726
17875TIP3    H275041   5.564   1.155   4.051  0.1918 -1.0678  1.6499
17876TIP3   OH275042   2.693   0.154   4.942 -0.2546 -0.3757  0.5709
17876TIP3    H175043   2.764   0.184   4.999  1.3809 -1.8804 -0.5751
17876TIP3    H275044   2.735   0.133   4.859 -1.9039 -2.0790  0.0942
17877TIP3   OH275045   0.223   3.327   5.957  0.6564  0.1286 -0.5000
17877TIP3    H175046   0.284   3.270   6.004  1.4624  2.2441  1.1482
17877TIP3    H275047   0.147   3.270   5.940  1.7948 -1.6950  0.1590
17878TIP3   OH275048   1.270   6.646   0.985  0.0100 -0.1043 -0.3036
17878TIP3    H175049   1.333   6.701   1.031  0.3310  0.7360 -1.6796
17878TIP3    H275050   1.198   6.636   1.047 -0.0872  1.9495 -0.0114
17879TIP3   OH275051   3.277   3.298   0.127  0.3374 -0.0860  0.1908
17879TIP3    H175052   3.272   3.353   0.206  0.3698  2.2373 -1.3201
17879TIP3    H275053   3.367   3.309   0.096  0.2634 -0.7944 -0.2864
17880TIP3   OH275054   3.506   3.831   2.051  0.0806 -0.5636 -0.0688
17880TIP3    H175055   3.428   3.796   2.093  0.3997 -0.4480  0.6422
17880TIP3    H275056   3.475   3.870   1.970 -0.8698  0.9871  0.9992
17881TIP3   OH275057   3.775   2.837   4.032 -0.5762  0.2451 -0.1448
17881TIP3    H175058   3.686   2.872   4.024 -1.0185 -0.2412  2.1560
17881TIP3    H275059   3.810   2.877   4.111  1.2245  0.2887 -0.9182
17882TIP3   OH275060   3.185   1.855   3.399  0.8151  0.2581 -0.1622
17882TIP3    H175061   3.119   1.806   3.448  0.0527 -0.0949 -1.5115
17882TIP3    H275062   3.175   1.945   3.430  0.0402  0.1203 -0.0009
17883TIP3   OH275063   1.783   3.495   3.286  0.1263  0.3824  0.0423
17883TIP3    H175064   1.707   3.496   3.227  0.6777 -0.2696 -0.6908
17883TIP3    H275065   1.747   3.520   3.372 -0.7242  1.1293 -0.5149
17884TIP3   OH275066   3.581   4.739   5.788 -0.4837 -0.4071  0.4988
17884TIP3    H175067   3.630   4.810   5.746  0.8894 -1.0201  1.0169
17884TIP3    H275068   3.645   4.670   5.801 -0.5746  0.0406  4.3971
17885TIP3   OH275069   3.335   4.205  15.536  0.4737  0.1945 -0.3578
17885TIP3    H175070   3.257   4.196  15.590  0.9408  0.3413  0.3499
17885TIP3    H275071   3.367   4.116  15.524  0.2496  0.1418 -0.5811
17886TIP3   OH275072   4.345   2.512   5.324  0.3434  1.1650  0.6911
17886TIP3    H175073   4.265   2.519   5.376 -0.4277 -2.0377  0.1184
17886TIP3    H275074   4.315   2.512   5.233  0.5275 -2.6488  0.4732
17887TIP3   OH275075   4.433   3.230  13.029 -0.4066 -0.2446 -0.3255
17887TIP3    H175076   4.482   3.171  13.086  0.6417  0.3673 -0.5728
17887TIP3    H275077   4.420   3.180  12.948 -3.1210 -1.6500  0.8528
17888TIP3   OH275078   4.885   0.113   3.033  0.2185  0.9253  0.0287
17888TIP3    H175079   4.801   0.101   2.990  0.0175  0.3712  0.5716
17888TIP3    H275080   4.948   0.068   2.976 -0.1377 -0.3652  0.6113
17889TIP3   OH275081   3.980   4.556   4.319 -0.5483 -0.0200 -0.0043
17889TIP3    H175082   3.963   4.477   4.370  1.1183 -0.7428 -0.4739
17889TIP3    H275083   3.903   4.566   4.263 -1.3263 -0.5935  0.9493
17890TIP3   OH275084   2.769   4.180  15.287 -0.1296 -0.1290  0.1594
17890TIP3    H175085   2.851   4.131  15.283  0.3180  0.6505 -0.8887
17890TIP3    H275086   2.737   4.180  15.197 -1.8952 -1.3853  0.7482
17891TIP3   OH275087   3.822   6.031  10.431  0.2493  0.0399  0.6010
17891TIP3    H175088   3.817   6.035  10.527  1.3704 -2.0291  0.8004
17891TIP3    H275089   3.910   5.999  10.413  0.4290  1.3932 -1.1983
17892TIP3   OH275090   0.098   4.908   5.706  0.1035  0.2092  0.1384
17892TIP3    H175091   0.101   4.993   5.748  0.8185 -0.2180  0.9699
17892TIP3    H275092   0.188   4.891   5.678 -0.0665 -0.1928 -0.1882
17893TIP3   OH275093   2.152   5.034  11.620  0.0996  0.2771 -0.2419
17893TIP3    H175094   2.208   4.958  11.599 -0.8441 -0.1457 -1.3534
17893TIP3    H275095   2.167   5.050  11.713  1.4967 -0.2973 -0.3479
17894TIP3   OH275096   3.753   3.434  12.803 -0.3711 -0.4910  0.4662
17894TIP3    H175097   3.762   3.362  12.740 -2.2125  0.2817 -0.7800
17894TIP3    H275098   3.659   3.448  12.810 -0.0716  2.3433 -0.0028
17895TIP3   OH275099   4.554   4.869   2.406 -0.5631  1.1633  0.3037
17895TIP3    H175100   4.637   4.830   2.434  0.9505  1.0296 -3.6506
17895TIP3    H275101   4.577   4.959   2.384 -1.0395  0.7325 -2.1944
17896TIP3   OH275102   1.478   4.262  13.032  0.5548  0.8180  0.3610
17896TIP3    H175103   1.414   4.303  12.973  0.1407 -1.6859 -1.0653
17896TIP3    H275104   1.550   4.236  12.975 -0.0105 -1.9944  0.7881
17897TIP3   OH275105   0.036   2.131   1.978  0.3660 -0.2945  0.3464
17897TIP3    H175106   0.002   2.191   2.044 -2.5848 -1.1048 -0.2858
17897TIP3    H275107   0.019   2.044   2.014 -1.0386 -0.7497 -1.2408
17898TIP3   OH275108   0.258   0.702  15.003  0.0511  0.5394  0.4547
17898TIP3    H175109   0.188   0.719  15.066 -2.0720  0.4729 -1.7319
17898TIP3    H275110   0.239   0.615  14.969  0.1614  1.2026 -1.3990
17899TIP3   OH275111   2.907   4.267  13.802 -0.0837  0.0627  0.1443
17899TIP3    H175112   2.874   4.257  13.892 -0.0834 -0.0575  0.1307
17899TIP3    H275113   2.843   4.220  13.748  2.0898 -3.5843  0.4411
17900TIP3   OH275114   4.500   1.960  12.160 -0.3077  0.6621  0.0107
17900TIP3    H175115   4.440   2.025  12.122  1.0052  0.3816 -2.8707
17900TIP3    H275116   4.461   1.875  12.138  1.3565  0.4537 -2.6493
17901TIP3   OH275117   5.263   0.474  11.203  0.4031  0.0727  0.1525
17901TIP3    H175118   5.201   0.405  11.183 -0.7093  1.6764 -2.3348
17901TIP3    H275119   5.345   0.445  11.164  0.3504 -0.5003  0.4574
17902TIP3   OH275120   2.406   2.786   3.451 -0.0272 -0.2405 -0.8785
17902TIP3    H175121   2.452   2.770   3.368 -1.5385 -0.3404 -1.7297
17902TIP3    H275122   2.340   2.852   3.429 -0.2469 -0.0454  0.3289
17903TIP3   OH275123   2.198   6.495  11.475  0.5524  0.0288  0.4196
17903TIP3    H175124   2.212   6.529  11.387  1.0193 -1.0489  0.0644
17903TIP3    H275125   2.135   6.556  11.514 -2.2718 -1.2451 -1.7630
17904TIP3   OH275126   0.988   5.868  15.619  0.5458  0.7307 -0.2473
17904TIP3    H175127   1.054   5.802  15.599 -1.6987 -1.8161  0.1870
17904TIP3    H275128   0.919   5.853  15.553 -1.0872  0.9784  1.3270
17905TIP3   OH275129   4.816   4.978  12.488  0.1812 -0.0564  0.6475
17905TIP3    H175130   4.770   4.990  12.571 -1.2905  0.3383 -0.2119
17905TIP3    H275131   4.862   5.061  12.474  2.3729 -0.9036  2.1722
17906TIP3   OH275132   0.939   3.182   5.482 -0.3140  0.1728 -0.2159
17906TIP3    H175133   0.861   3.128   5.468 -0.1086 -0.1578 -0.0804
17906TIP3    H275134   0.906   3.260   5.528 -0.1893 -1.2115  2.4310
17907TIP3   OH275135   3.018   0.836   2.190  0.2785 -0.2638 -0.2908
17907TIP3    H175136   3.113   0.846   2.183  0.2284  1.1341  0.6439
17907TIP3    H275137   2.983   0.896   2.125  0.0380  2.3887  2.0812
17908TIP3   OH275138   4.215   4.863   9.922  0.0296 -0.0203  0.2888
17908TIP3    H175139   4.138   4.836   9.972 -0.4172  0.1982 -0.2768
17908TIP3    H275140   4.214   4.807   9.844 -0.8559  1.5158 -0.8487
17909TIP3   OH275141   6.472   3.434   0.038 -0.1629  0.2246  0.3709
17909TIP3    H175142   6.495   3.499  -0.029  0.1435 -1.1737 -0.9313
17909TIP3    H275143   6.556   3.409   0.077 -0.1800 -0.0555  0.2291
17910TIP3   OH275144   3.015   4.606   2.418  0.1683  0.0516 -0.7420
17910TIP3    H175145   3.087   4.664   2.445  0.5199 -1.3939  1.7260
17910TIP3    H275146   2.962   4.597   2.497 -1.1062 -1.2567 -1.7089
17911TIP3   OH275147   0.593   6.529  14.287  0.2306  0.0729  0.6351
17911TIP3    H175148   0.654   6.577  14.232 -0.0214 -1.1647 -0.7988
17911TIP3    H275149   0.533   6.595  14.321  0.6561  0.9256 -0.2382
17912TIP3   OH275150   3.585   4.968   6.042  0.0450  0.1054 -1.0075
17912TIP3    H175151   3.670   5.011   6.051 -0.6853  1.3225  0.4689
17912TIP3    H275152   3.596   4.885   6.089 -0.2485  1.3428  1.4233
17913TIP3   OH275153   0.678   3.778  11.792 -0.0181 -0.1849 -0.0773
17913TIP3    H175154   0.757   3.779  11.846  0.6907  0.1205 -1.0711
17913TIP3    H275155   0.697   3.713  11.724 -1.1937 -1.1145  0.4502
17914TIP3   OH275156   5.986   6.697   3.295 -0.1155 -0.0993  0.0259
17914TIP3    H175157   5.909   6.641   3.309  0.2682 -0.6465 -0.0358
17914TIP3    H275158   5.952   6.786   3.300 -0.9802 -0.3294 -1.1430
17915TIP3   OH275159   5.622   2.706  11.406  0.1461 -0.0054  0.3955
17915TIP3    H175160   5.573   2.745  11.334 -0.3841  1.1358  1.3656
17915TIP3    H275161   5.709   2.689  11.369  0.6556  2.7981  0.1186
17916TIP3   OH275162   1.392   0.694  12.653  0.6258  0.3409 -0.0012
17916TIP3    H175163   1.415   0.688  12.746 -0.9034  1.0128  0.4722
17916TIP3    H275164   1.435   0.774  12.623 -1.6680  2.1548  1.1311
17917TIP3   OH275165   6.460   0.361   0.560 -0.4164  0.3560  0.0781
17917TIP3    H175166   6.390   0.410   0.604 -1.1918  0.9823 -1.7671
17917TIP3    H275167   6.532   0.361   0.623 -0.8352  2.7818  0.6607
17918TIP3   OH275168   4.172   2.327   1.180  0.0568 -0.2337  0.4052
17918TIP3    H175169   4.118   2.342   1.258  0.8471 -0.0881  0.9316
17918TIP3    H275170   4.258   2.302   1.214 -0.3347 -3.0971 -0.4006
17919TIP3   OH275171   4.854   6.741   0.221  0.4726  0.9617 -0.1879
17919TIP3    H175172   4.892   6.829   0.213  1.9723  0.2446 -1.5339
17919TIP3    H275173   4.928   6.685   0.244 -0.2773 -0.0982 -0.2871
17920TIP3   OH275174   5.463   5.068   4.666  0.0132 -0.4715  0.5891
17920TIP3    H175175   5.538   5.118   4.633  0.3287 -1.4984 -0.2831
17920TIP3    H275176   5.450   5.102   4.754  1.4780 -0.2237  0.7469
17921TIP3   OH275177   2.769   4.423  11.330  0.0670  0.4509 -0.0320
17921TIP3    H175178   2.745   4.375  11.251  0.3420 -1.2845  0.8898
17921TIP3    H275179   2.794   4.510  11.299 -0.0102 -0.1363 -1.8251
17922TIP3   OH275180   4.768   0.957   5.352  0.4829 -0.3568 -0.1015
17922TIP3    H175181   4.729   1.013   5.284  0.5006 -1.0256 -0.6819
17922TIP3    H275182   4.695   0.938   5.411  0.9050  1.8744  1.2467
17923TIP3   OH275183   3.738   0.902  12.246  0.2294 -0.1915 -0.2546
17923TIP3    H175184   3.773   0.841  12.181 -0.6618  1.2635 -2.2049
17923TIP3    H275185   3.757   0.989  12.210 -0.8731  0.6561  1.1117
17924TIP3   OH275186   0.821   5.797  15.396 -0.1688 -0.2685  0.1464
17924TIP3    H175187   0.741   5.849  15.393 -0.1555 -0.2446  0.2192
17924TIP3    H275188   0.796   5.712  15.360  0.3129  0.4543 -2.0787
17925TIP3   OH275189   5.514   6.281  10.220  0.2234 -0.0559 -0.0170
17925TIP3    H175190   5.525   6.321  10.306 -0.1027  1.0796 -0.4967
17925TIP3    H275191   5.504   6.187  10.239 -1.2959  0.3358  1.2895
17926TIP3   OH275192   1.631   2.697   1.464  0.4320 -0.4510 -0.7372
17926TIP3    H175193   1.660   2.620   1.511 -2.4500 -0.9596  0.4211
17926TIP3    H275194   1.578   2.745   1.527 -1.1442  0.3764 -2.5802
17927TIP3   OH275195   1.981   5.460   1.837  0.3887  0.2401 -0.9911
17927TIP3    H175196   1.933   5.510   1.771 -1.1327  0.0527 -0.0659
17927TIP3    H275197   2.051   5.519   1.866  0.6618  0.5693 -2.2645
17928TIP3   OH275198   4.662   2.245  13.161 -0.2344  0.0050  0.5736
17928TIP3    H175199   4.727   2.292  13.213  0.4185  0.4001 -0.5676
17928TIP3    H275200   4.709   2.169  13.126 -0.2884  0.4826 -0.5431
17929TIP3   OH275201   1.474   0.902  11.342 -0.2793 -0.3750  0.4156
17929TIP3    H175202   1.523   0.922  11.421  1.5302  0.5427 -0.8561
17929TIP3    H275203   1.422   0.982  11.325 -2.2640 -1.3093  1.7087
17930TIP3   OH275204   2.905   2.835   4.230 -0.5701  0.1980  0.1017
17930TIP3    H175205   2.842   2.853   4.300 -1.2834  0.7114 -0.6480
17930TIP3    H275206   2.921   2.921   4.190  1.8791  0.3896  1.2899
17931TIP3   OH275207   0.980   1.662  11.846 -0.3263 -0.0312 -0.1416
17931TIP3    H175208   0.914   1.675  11.913 -0.1954  1.4764 -0.2631
17931TIP3    H275209   1.020   1.748  11.834 -0.3145 -0.2510 -2.1082
17932TIP3   OH275210   5.760   5.650  12.916  0.0724  0.5433  0.7689
17932TIP3    H175211   5.741   5.652  13.010 -0.9697  0.1131  0.5789
17932TIP3    H275212   5.850   5.618  12.910 -0.3677 -0.9217  1.5682
17933TIP3   OH275213   1.987   0.074  14.703 -0.0284 -0.8645 -0.1979
17933TIP3    H175214   1.896   0.089  14.729  0.0804  0.0833 -0.3109
17933TIP3    H275215   1.984  -0.003  14.647 -0.9773 -0.0014 -1.3669
17934TIP3   OH275216   6.006   3.171  14.726  0.3978 -0.2132 -0.1193
17934TIP3    H175217   6.001   3.092  14.673  3.2202 -2.3269  2.3716
17934TIP3    H275218   5.960   3.148  14.807  0.0042  1.2725  0.0986
17935TIP3   OH275219   0.386   1.937  13.073 -0.2478  0.1534 -1.1127
17935TIP3    H175220   0.428   1.852  13.059  0.0489  0.3111 -1.1902
17935TIP3    H275221   0.295   1.916  13.091  0.0302 -0.2475 -0.0988
17936TIP3   OH275222   4.245   2.213  10.636 -0.2329 -0.0026 -0.7244
17936TIP3    H175223   4.222   2.212  10.543 -1.3733 -3.0534 -0.5198
17936TIP3    H275224   4.341   2.208  10.637 -0.0274  2.3902 -1.6441
17937TIP3   OH275225   6.171   5.457  15.410  0.5979  0.8133  0.1599
17937TIP3    H175226   6.212   5.395  15.470 -0.0831  0.6265  0.4469
17937TIP3    H275227   6.184   5.542  15.450  0.2643  0.7027  0.5183
17938TIP3   OH275228   1.908   5.756   4.481 -0.4133  0.5462  0.2634
17938TIP3    H175229   1.884   5.665   4.498  0.1032  0.4633  0.5633
17938TIP3    H275230   1.911   5.762   4.385  1.5185 -0.2882  0.2311
17939TIP3   OH275231   1.553   3.418  14.944 -0.7964  0.4001 -0.0330
17939TIP3    H175232   1.636   3.410  14.991 -0.5008  2.3690 -0.1122
17939TIP3    H275233   1.488   3.435  15.011 -0.2973  3.7018 -0.2227
17940TIP3   OH275234   1.232   4.348  13.176  0.2763 -0.5086 -0.5136
17940TIP3    H175235   1.242   4.386  13.263  0.9557  0.7725 -1.1337
17940TIP3    H275236   1.313   4.298  13.163 -0.7732 -2.6072  0.4547
17941TIP3   OH275237   5.339   6.815  14.637 -0.2881  0.5141  0.0666
17941TIP3    H175238   5.268   6.852  14.690 -1.5103  1.2901 -1.9897
17941TIP3    H275239   5.391   6.891  14.611 -0.1782  0.2409 -0.5139
17942TIP3   OH275240   0.677   0.498  15.804  0.2330 -0.1900 -0.8327
17942TIP3    H175241   0.744   0.516  15.738 -0.4165 -0.3738 -1.5550
17942TIP3    H275242   0.724   0.454  15.874  1.7111  3.1797  0.5370
17943TIP3   OH275243   3.000   5.038   5.951 -0.0939 -0.6373 -0.6436
17943TIP3    H175244   3.066   5.097   5.985 -1.8677  0.1872  1.6131
17943TIP3    H275245   2.926   5.094   5.928 -2.0223 -1.8268  2.0122
17944TIP3   OH275246   0.007   2.382  14.529  0.0985  0.3140 -0.6134
17944TIP3    H175247  -0.052   2.377  14.604 -0.7503 -1.5908 -1.3341
17944TIP3    H275248   0.091   2.409  14.567 -0.5109  0.2306  0.8883
17945TIP3   OH275249   4.779   6.660  16.490  0.0589  0.0507 -0.2351
17945TIP3    H175250   4.821   6.575  16.476  0.6348  0.5858 -2.0883
17945TIP3    H275251   4.693   6.652  16.448  0.4966  0.6679 -1.2809
17946TIP3   OH275252   3.953   0.863  12.443 -0.1261  0.0381 -0.1716
17946TIP3    H175253   3.915   0.843  12.358 -0.0575  1.4250 -0.5659
17946TIP3    H275254   3.884   0.840  12.506  0.5371 -2.8727 -0.3821
17947TIP3   OH275255   1.625   0.548   3.627 -0.7257 -0.1144 -0.0967
17947TIP3    H175256   1.603   0.461   3.661  0.0060 -0.2429  0.0658
17947TIP3    H275257   1.659   0.531   3.539 -2.1781  0.1760 -0.7428
17948TIP3   OH275258   0.183   0.806  14.191  0.1050  0.0374  0.3528
17948TIP3    H175259   0.107   0.856  14.223  1.5162  0.3801  3.5008
17948TIP3    H275260   0.227   0.867  14.131 -0.6894  0.8111  0.5189
17949TIP3   OH275261   4.153   3.730  10.549 -0.7483 -1.0427 -0.2279
17949TIP3    H175262   4.140   3.650  10.499 -0.4231 -1.9563  1.0942
17949TIP3    H275263   4.247   3.735  10.563 -0.6317  0.2486 -1.3503
17950TIP3   OH275264   0.673   6.399   2.737 -0.0115 -0.0171  0.9134
17950TIP3    H175265   0.684   6.306   2.757  0.3524 -0.0322  0.6615
17950TIP3    H275266   0.733   6.443   2.796  2.1041 -0.1506 -1.0076
17951TIP3   OH275267   0.872   5.275  10.224 -0.2323 -0.9403  0.0238
17951TIP3    H175268   0.847   5.185  10.245 -0.6221 -0.5736  1.1887
17951TIP3    H275269   0.850   5.325  10.302  1.6591 -0.1298  0.0844
17952TIP3   OH275270   4.817   3.514  10.531 -0.2735  0.7925 -0.0454
17952TIP3    H175271   4.834   3.420  10.521 -3.2505  0.3433 -2.1198
17952TIP3    H275272   4.882   3.557  10.476 -0.6133 -0.2651 -1.3136
17953TIP3   OH275273   4.791   3.475   9.962  0.2376  0.6644  0.1666
17953TIP3    H175274   4.860   3.525   9.917 -0.7658  1.0140 -1.0580
17953TIP3    H275275   4.821   3.385   9.959  0.5884  0.7925 -0.4691
17954TIP3   OH275276   1.782   4.138   3.178  0.0690 -0.4658 -0.3276
17954TIP3    H175277   1.717   4.208   3.173 -0.1617 -0.7199 -0.9542
17954TIP3    H275278   1.730   4.059   3.195  0.1672 -0.7272 -1.1974
17955TIP3   OH275279   0.819   6.578  11.738 -0.0375 -0.7261 -0.2874
17955TIP3    H175280   0.740   6.572  11.684 -0.2005 -1.1490 -0.0078
17955TIP3    H275281   0.865   6.656  11.705 -1.2342  0.3235  0.4166
17956TIP3   OH275282   6.176   1.996   4.929 -0.3014  0.5890  0.0234
17956TIP3    H175283   6.243   2.017   4.864  0.3871  0.3996  0.6638
17956TIP3    H275284   6.224   1.985   5.011 -0.7672 -2.0619  0.0446
17957TIP3   OH275285   2.860   3.633   5.781  0.2167 -0.6800  0.1839
17957TIP3    H175286   2.818   3.565   5.728 -0.9118 -0.9693  1.3861
17957TIP3    H275287   2.847   3.604   5.871 -1.1359  1.5710  0.7911
17958TIP3   OH275288   3.762   0.092  14.299 -0.5900  0.1777 -0.3775
17958TIP3    H175289   3.849   0.060  14.322 -0.4394  1.8363  1.6899
17958TIP3    H275290   3.777   0.153  14.227  0.1351  1.1940  0.6037
17959TIP3   OH275291   0.360   5.891  10.451 -0.4646  0.2125  0.1000
17959TIP3    H175292   0.391   5.889  10.360 -1.7744  0.9648 -0.3830
17959TIP3    H275293   0.331   5.801  10.468  0.1340 -0.0229 -0.0860
17960TIP3   OH275294   5.267   0.001   4.482  0.1133 -0.1894  0.2071
17960TIP3    H175295   5.260   0.018   4.576  0.4789  0.7080  0.0813
17960TIP3    H275296   5.359  -0.020   4.468 -0.4115 -2.9831  0.4436
17961TIP3   OH275297   6.078   6.725  11.774 -0.1344 -0.7523 -0.2846
17961TIP3    H175298   5.992   6.685  11.787 -0.1309 -1.3653 -1.9337
17961TIP3    H275299   6.060   6.804  11.722  0.1829 -0.2142  0.4030
17962TIP3   OH275300   4.643   6.382   3.766  0.2011  0.0798 -0.1202
17962TIP3    H175301   4.647   6.464   3.718  1.4136  2.0210  2.9567
17962TIP3    H275302   4.554   6.378   3.800 -0.4033 -0.8722 -1.7129
17963TIP3   OH275303   3.684   4.686  14.557 -0.1314  0.0089  0.6846
17963TIP3    H175304   3.705   4.698  14.464  0.3825 -1.7676  0.5426
17963TIP3    H275305   3.756   4.727  14.604 -1.0264  2.0644  0.3568
17964TIP3   OH275306   4.128   2.819   3.749 -0.8783  0.4081  0.1716
17964TIP3    H175307   4.042   2.845   3.780 -0.4588 -0.1436  1.9184
17964TIP3    H275308   4.119   2.728   3.723 -1.1549  0.7793 -1.0619
17965TIP3   OH275309   6.213   2.507  14.539  0.3084  0.1250  0.1120
17965TIP3    H175310   6.166   2.590  14.529 -0.5255 -0.2216  0.9503
17965TIP3    H275311   6.197   2.481  14.630  1.6976 -0.2863  0.2545
17966TIP3   OH275312   2.194   1.929  14.396 -0.5112  0.5103  0.5167
17966TIP3    H175313   2.246   1.943  14.475  0.8755 -2.1728  0.1908
17966TIP3    H275314   2.252   1.954  14.324 -0.3440 -0.6455  0.2306
17967TIP3   OH275315   3.800   0.719  13.506  0.2374  0.6662 -0.1484
17967TIP3    H175316   3.813   0.771  13.426  2.1887  0.1300 -0.2421
17967TIP3    H275317   3.826   0.630  13.481  0.3103  0.3728  0.9247
17968TIP3   OH275318   5.654   0.973   1.695  0.1877  0.2375  0.5422
17968TIP3    H175319   5.715   1.019   1.637 -0.3578 -1.1859 -1.2160
17968TIP3    H275320   5.571   0.972   1.648 -1.4702  2.5217  3.0656
17969TIP3   OH275321   1.711   3.977  11.287  0.2243  0.4217 -0.0474
17969TIP3    H175322   1.729   3.887  11.315 -1.7171 -0.0725 -0.2841
17969TIP3    H275323   1.734   3.978  11.194  1.7953  0.6620  0.3060
17970TIP3   OH275324   2.216   4.677   3.731  0.2153 -0.3782 -0.6685
17970TIP3    H175325   2.159   4.623   3.676 -0.9528 -0.0843  0.2152
17970TIP3    H275326   2.239   4.620   3.805 -0.1933 -0.0006 -0.2462
17971TIP3   OH275327   3.465   2.780   1.745 -0.3813  0.0353 -0.2644
17971TIP3    H175328   3.528   2.851   1.734  0.8874 -1.2642 -1.8107
17971TIP3    H275329   3.397   2.797   1.680  0.0669 -0.3117 -0.8250
17972TIP3   OH275330   4.760   5.260  13.690  0.4372  0.3109 -0.3420
17972TIP3    H175331   4.772   5.352  13.667  2.0921 -0.0952 -1.2501
17972TIP3    H275332   4.823   5.245  13.761 -0.4518  0.0848  0.4129
17973TIP3   OH275333   2.932   1.253  14.089  0.4896  0.4632 -0.0655
17973TIP3    H175334   2.847   1.215  14.110  1.2961 -1.0371  0.7185
17973TIP3    H275335   2.913   1.329  14.035 -1.2610 -0.8250 -1.3733
17974TIP3   OH275336   0.747   0.828   1.663  0.4473  0.1367 -0.8811
17974TIP3    H175337   0.670   0.812   1.716 -0.5040  0.6368 -2.0647
17974TIP3    H275338   0.749   0.923   1.652 -0.2428 -0.0448 -2.9373
17975TIP3   OH275339   2.550   6.216  12.281  0.7642  0.1229 -0.3246
17975TIP3    H175340   2.645   6.214  12.287  0.7617 -1.4998 -0.4375
17975TIP3    H275341   2.526   6.131  12.245 -0.8544 -0.3467  1.6469
17976TIP3   OH275342   1.374   2.944  12.458 -0.2162  0.1835  0.6973
17976TIP3    H175343   1.449   2.924  12.514  0.3138  0.6995  0.1833
17976TIP3    H275344   1.396   2.907  12.373 -0.7317 -0.0296  0.6529
17977TIP3   OH275345   4.506   0.391   0.070  1.3117 -0.3204 -0.1284
17977TIP3    H175346   4.564   0.354   0.003  0.7465 -0.6275 -0.4619
17977TIP3    H275347   4.418   0.371   0.038  1.0234 -1.4890  1.2559
17978TIP3   OH275348   5.265   4.281   1.511  0.1803  0.3733  0.6494
17978TIP3    H175349   5.339   4.302   1.454  1.8210  0.7816  2.7913
17978TIP3    H275350   5.192   4.264   1.451  1.4981  1.8380 -1.4921
17979TIP3   OH275351   5.458   2.754   1.019  0.1619  0.0871  0.1499
17979TIP3    H175352   5.546   2.747   1.054  0.0087  2.4428  1.1412
17979TIP3    H275353   5.446   2.847   1.001 -1.8828 -0.2660 -0.6209
17980TIP3   OH275354   5.019   4.725   5.376 -0.2938  0.3831 -0.2130
17980TIP3    H175355   4.926   4.707   5.394  0.4076 -1.8099  1.6104
17980TIP3    H275356   5.045   4.657   5.314  0.2213  0.7212 -0.3753
17981TIP3   OH275357   6.222   0.332   1.893  0.0563 -0.0396 -0.1880
17981TIP3    H175358   6.210   0.268   1.964 -0.8663  0.3396  0.0105
17981TIP3    H275359   6.133   0.361   1.872  0.5078  2.3954  0.8583
17982TIP3   OH275360   4.840   5.118   1.511  0.3847  0.1323 -0.4637
17982TIP3    H175361   4.750   5.145   1.494  0.4015  0.4672 -0.0406
17982TIP3    H275362   4.877   5.189   1.564  0.9255  0.0438 -0.7106
17983TIP3   OH275363   4.550   0.628   5.371  0.4309  0.2309 -0.0766
17983TIP3    H175364   4.463   0.632   5.332  0.0347  1.3600  0.8498
17983TIP3    H275365   4.552   0.703   5.431  1.8515 -0.0887  0.3016
17984TIP3   OH275366   3.343   6.551   4.402 -0.5970 -0.4057  0.0868
17984TIP3    H175367   3.417   6.511   4.447 -0.0292  1.4724  0.9119
17984TIP3    H275368   3.293   6.594   4.472 -0.0548  2.0142 -0.9057
17985TIP3   OH275369   2.144   4.077  11.925  0.1799 -0.2329  0.4486
17985TIP3    H175370   2.076   4.133  11.961  0.1048 -0.3422  0.4783
17985TIP3    H275371   2.215   4.137  11.902  0.4021 -0.2031  1.1789
17986TIP3   OH275372   5.850   5.096   0.205  0.0163 -0.4361 -0.3141
17986TIP3    H175373   5.884   5.107   0.116 -0.3127 -0.6053 -0.4603
17986TIP3    H275374   5.755   5.096   0.195 -0.0510  0.7377  0.1791
17987TIP3   OH275375   4.945   5.070   0.920  0.0424 -0.4762 -0.6760
17987TIP3    H175376   4.889   5.116   0.856 -0.4634 -1.3810 -0.9022
17987TIP3    H275377   4.972   4.990   0.874  0.4219 -0.6942 -0.0753
17988TIP3   OH275378   4.989   4.575  13.650  0.4066 -0.2726 -0.3789
17988TIP3    H175379   5.045   4.551  13.575 -0.9245 -0.4485 -1.3510
17988TIP3    H275380   4.978   4.669  13.642  0.5955 -0.2341 -0.1723
17989TIP3   OH275381   2.072   0.276   1.420  0.2654 -0.0663  0.1747
17989TIP3    H175382   2.000   0.231   1.465 -1.2733  0.7545 -1.3039
17989TIP3    H275383   2.070   0.241   1.331  0.9450  0.7965 -0.1956
17990TIP3   OH275384   6.676   4.322  11.143  0.3715 -0.2618 -0.3931
17990TIP3    H175385   6.767   4.346  11.129  0.5585 -0.2352  0.7465
17990TIP3    H275386   6.677   4.226  11.147  0.4038 -0.2495 -0.0759
17991TIP3   OH275387   4.272   5.931  12.786 -0.6757 -0.4207 -0.0399
17991TIP3    H175388   4.326   5.992  12.737  0.4641 -1.4257 -0.0719
17991TIP3    H275389   4.204   5.986  12.825 -0.2005  0.7302 -0.7780
17992TIP3   OH275390   3.267   4.255   4.213 -0.0932  0.4077  0.5690
17992TIP3    H175391   3.353   4.255   4.172 -0.2741 -1.1303  0.1588
17992TIP3    H275392   3.285   4.266   4.306  0.5276  0.3701  0.4574
17993TIP3   OH275393   0.884   4.103  11.910  0.0912 -0.3868 -0.8443
17993TIP3    H175394   0.887   4.063  11.997 -0.4664  0.6801 -0.3190
17993TIP3    H275395   0.949   4.173  11.914  0.3727 -0.6065 -1.4432
17994TIP3   OH275396   5.685   0.892  12.980  0.1136 -0.2404 -0.1586
17994TIP3    H175397   5.610   0.834  12.991  0.8994 -1.5657 -1.3533
17994TIP3    H275398   5.742   0.874  13.054  0.7122 -1.6257 -0.9202
17995TIP3   OH275399   2.367   3.633  13.624  0.5291  0.2511  0.4353
17995TIP3    H175400   2.384   3.597  13.537 -1.3160 -2.1278  0.9684
17995TIP3    H275401   2.277   3.606  13.644  0.4328  1.8952  2.5555
17996TIP3   OH275402   3.375   4.719  14.126 -0.0867  0.5201 -0.1851
17996TIP3    H175403   3.351   4.654  14.060  0.3818  1.7699 -1.6282
17996TIP3    H275404   3.470   4.728  14.117  0.0126  0.5811  0.8013
17997TIP3   OH275405   4.987   1.562  12.446  0.1894  0.2569  0.1927
17997TIP3    H175406   4.942   1.631  12.398 -2.4083 -1.0098  0.6140
17997TIP3    H275407   4.982   1.485  12.389  2.0561  0.0838  0.1880
17998TIP3   OH275408   0.252   3.680  11.913  0.0857  0.7682 -0.1816
17998TIP3    H175409   0.307   3.696  11.836  0.3947 -0.2152 -0.1860
17998TIP3    H275410   0.163   3.674  11.879  0.4458 -2.0306 -0.8716
17999TIP3   OH275411   6.576   3.137  14.909 -0.0780 -0.2155  0.4138
17999TIP3    H175412   6.543   3.153  14.820 -1.0696 -0.2089  0.7748
17999TIP3    H275413   6.524   3.195  14.964 -0.9102 -1.6916  1.2524
18000TIP3   OH275414   4.910   5.908  16.266  0.1013 -0.6420 -0.2034
18000TIP3    H175415   4.857   5.901  16.346 -0.5623 -0.5919 -0.6284
18000TIP3    H275416   4.935   6.001  16.263 -0.9208 -0.3677 -0.6959
18001TIP3   OH275417   1.553   2.527  11.069  0.2087 -0.2270  0.4279
18001TIP3    H175418   1.578   2.440  11.038 -1.5315 -0.3622 -0.7721
18001TIP3    H275419   1.561   2.583  10.991  3.2369  1.1972  1.6239
18002TIP3   OH275420   5.851   0.736   4.793 -0.2734 -0.1928 -0.7805
18002TIP3    H175421   5.839   0.777   4.707 -1.3779  1.5919  0.1464
18002TIP3    H275422   5.846   0.809   4.855  0.3734 -1.4459  0.8164
18003TIP3   OH275423   4.234   4.593   0.845  0.5690  0.2188 -0.0522
18003TIP3    H175424   4.216   4.606   0.752 -2.3565  2.5481  0.6943
18003TIP3    H275425   4.235   4.498   0.856  0.7539 -0.1141 -2.3804
18004TIP3   OH275426   2.439   0.721  14.843  0.7946 -0.3909  0.3514
18004TIP3    H175427   2.398   0.676  14.769 -0.4547  1.2305  0.0016
18004TIP3    H275428   2.378   0.710  14.915  0.3371  0.9048  0.1903
18005TIP3   OH275429   3.200   4.087   3.063  0.0946  0.1021  0.2146
18005TIP3    H175430   3.256   4.018   3.028 -2.2040 -2.1607  0.7473
18005TIP3    H275431   3.126   4.093   3.003  0.7972  3.1048 -0.5320
18006TIP3   OH275432   4.507   5.950  16.593 -0.4188  0.2709 -0.3680
18006TIP3    H175433   4.484   5.990  16.677  0.4738  2.1797 -0.9711
18006TIP3    H275434   4.424   5.926  16.553 -1.0367  1.7960 -0.0597
18007TIP3   OH275435   1.059   3.712  14.616  0.0309 -0.0493 -0.0686
18007TIP3    H175436   1.117   3.783  14.588  0.6651  0.0645  1.4281
18007TIP3    H275437   1.044   3.729  14.709 -1.3721 -0.8081 -0.1391
18008TIP3   OH275438   6.849   4.960  13.947 -0.1466 -0.1948  0.2820
18008TIP3    H175439   6.796   4.990  13.873 -0.0883  1.0523  0.7180
18008TIP3    H275440   6.788   4.911  14.002 -0.1320 -1.3671 -0.6911
18009TIP3   OH275441   5.288   4.463  11.599  0.4223 -0.4069  0.0796
18009TIP3    H175442   5.214   4.519  11.574  0.3409 -0.0842  0.9870
18009TIP3    H275443   5.257   4.374  11.582  0.8346 -0.1748 -2.1085
18010TIP3   OH275444   2.815   4.747  11.030 -0.2421 -0.2280  0.3384
18010TIP3    H175445   2.909   4.765  11.035  0.1320 -2.1718  1.3106
18010TIP3    H275446   2.784   4.755  11.120 -0.2683 -2.9317  0.6458
18011TIP3   OH275447   5.974   2.647   1.082 -0.3205  0.8064  0.1310
18011TIP3    H175448   5.935   2.607   1.160 -0.7569  0.5019 -0.2359
18011TIP3    H275449   5.911   2.716   1.057  0.3485  1.6270  0.6695
18012TIP3   OH275450   3.790   6.078  11.766  0.4422  0.2164  0.3895
18012TIP3    H175451   3.873   6.071  11.813 -0.1324 -1.1783  1.2875
18012TIP3    H275452   3.789   6.002  11.708  0.4102  1.0215 -0.6910
18013TIP3   OH275453   5.908   5.227   4.832  0.1641  0.4725  0.5348
18013TIP3    H175454   5.832   5.257   4.783 -0.6400 -0.2094  1.3379
18013TIP3    H275455   5.983   5.253   4.778 -0.5963  1.6797  0.0191
18014TIP3   OH275456   5.425   5.004   3.432  0.3260 -0.3976 -0.2170
18014TIP3    H175457   5.452   5.055   3.509 -0.6870 -0.5349  0.2477
18014TIP3    H275458   5.505   4.957   3.406  0.6335 -0.5351  0.8991
18015TIP3   OH275459   3.737   5.412  14.400  0.3923  0.1414  0.0342
18015TIP3    H175460   3.645   5.401  14.424  1.0014 -0.3501  2.4752
18015TIP3    H275461   3.769   5.323  14.385  0.7658  0.1819  0.5535
18016TIP3   OH275462   2.434   3.030   2.337  0.0957 -0.5774 -0.5118
18016TIP3    H175463   2.405   3.119   2.357  2.7873  0.1850  0.4537
18016TIP3    H275464   2.455   3.032   2.244  1.3337  0.2223 -0.2408
18017TIP3   OH275465   4.110   1.844   4.775  0.3752  0.0555 -0.1269
18017TIP3    H175466   4.023   1.826   4.739  0.5911 -1.5998  0.0963
18017TIP3    H275467   4.093   1.879   4.862 -0.0740  0.0468 -0.2089
18018TIP3   OH275468   5.132   0.519  12.416  0.3939 -0.2380  0.0336
18018TIP3    H175469   5.077   0.459  12.467 -2.0353  1.1140 -0.8340
18018TIP3    H275470   5.163   0.583  12.481  0.5606 -0.7318  0.4509
18019TIP3   OH275471   0.568   4.810   5.460 -0.3312 -0.2725 -0.6159
18019TIP3    H175472   0.650   4.860   5.463  0.2625 -1.0973 -2.0309
18019TIP3    H275473   0.581   4.739   5.523 -1.2755  1.3882  1.5941
18020TIP3   OH275474   1.992   5.909  11.028 -0.5625  0.2223  0.2054
18020TIP3    H175475   2.067   5.874  10.980  0.4358  1.1226  1.0341
18020TIP3    H275476   1.943   5.832  11.055  1.8536 -0.6897  2.4358
18021TIP3   OH275477   5.264   1.815  11.907 -0.1372  0.1054 -0.0749
18021TIP3    H175478   5.268   1.770  11.991  0.2792  0.0830 -0.1031
18021TIP3    H275479   5.245   1.907  11.929  0.5264  0.2098  0.0826
18022TIP3   OH275480   1.910   2.541  16.501 -0.4910 -0.0878 -0.0951
18022TIP3    H175481   1.939   2.475  16.439 -0.8897 -0.1817 -0.1823
18022TIP3    H275482   1.897   2.620  16.449  1.5959  0.5564  0.2532
18023TIP3   OH275483   2.355   1.992  10.814 -0.0847 -0.6627  0.3658
18023TIP3    H175484   2.326   1.937  10.742 -0.5898  0.6158 -0.4497
18023TIP3    H275485   2.324   2.080  10.791 -0.5216 -0.2751  2.2979
18024TIP3   OH275486   3.110   5.541  14.320 -0.7627 -0.2872 -0.0093
18024TIP3    H175487   3.174   5.602  14.355  0.7071 -2.6775  1.8325
18024TIP3    H275488   3.031   5.554  14.373 -1.7629  2.2805 -1.9210
18025TIP3   OH275489   6.860   4.244   4.457  0.4712 -0.5396 -0.7941
18025TIP3    H175490   6.865   4.282   4.370  0.1948  0.4381 -0.3919
18025TIP3    H275491   6.767   4.246   4.479  0.8253  2.6574  0.9720
18026TIP3   OH275492   3.043   5.366   3.102 -0.0624  0.1160  0.5943
18026TIP3    H175493   2.963   5.313   3.105 -0.2128 -0.0573 -2.5985
18026TIP3    H275494   3.106   5.317   3.156 -1.9486  0.1324  2.9909
18027TIP3   OH275495   2.588   4.515  14.377 -0.1421 -0.2488 -0.1101
18027TIP3    H175496   2.526   4.491  14.309  0.2479 -0.0056 -0.5558
18027TIP3    H275497   2.633   4.433  14.399 -0.3514 -0.3498 -0.0614
18028TIP3   OH275498   3.185   4.052   0.375  0.8287  0.4757  0.8804
18028TIP3    H175499   3.260   4.010   0.332  0.5193  1.5599 -0.8278
18028TIP3    H275500   3.153   4.115   0.310 -2.3666 -0.8207  1.0151
18029TIP3   OH275501   0.483   3.069   4.772 -0.1991 -0.0755 -0.1981
18029TIP3    H175502   0.518   3.042   4.688  1.6653  0.6824  0.2934
18029TIP3    H275503   0.421   2.999   4.796  0.0397 -0.8183 -1.6807
18030TIP3   OH275504   1.577   3.419  13.920 -0.2632 -0.3378 -0.8142
18030TIP3    H175505   1.517   3.385  13.854 -1.7348  0.7859 -0.0950
18030TIP3    H275506   1.535   3.498  13.953  0.8764 -0.3674  0.8257
18031TIP3   OH275507   1.311   0.478  14.894  0.3145 -0.0589 -0.0556
18031TIP3    H175508   1.307   0.404  14.954 -1.7661 -1.8476 -2.2144
18031TIP3    H275509   1.234   0.531  14.916  0.7686  0.4982  0.2432
18032TIP3   OH275510   5.334   1.678   4.001  0.2636 -0.3172  0.2622
18032TIP3    H175511   5.408   1.705   3.946 -0.0922 -1.6831 -0.9323
18032TIP3    H275512   5.290   1.761   4.023  0.2920  0.2768 -1.7110
18033TIP3   OH275513   6.100   1.718   4.934  0.0353 -0.2417 -0.0633
18033TIP3    H175514   6.165   1.656   4.900  1.2251  0.9521 -0.0311
18033TIP3    H275515   6.145   1.802   4.934 -0.7671  0.2326  2.0895
18034TIP3   OH275516   3.636   2.538   2.181 -0.5175 -0.3681 -0.0723
18034TIP3    H175517   3.615   2.458   2.229  0.6444 -0.3436  0.5141
18034TIP3    H275518   3.569   2.601   2.208 -0.4399 -0.6421  0.7831
18035TIP3   OH275519   2.151   5.585  11.835  0.0266 -0.4609  0.2249
18035TIP3    H175520   2.128   5.579  11.928  0.1431  0.2013  0.3039
18035TIP3    H275521   2.072   5.622  11.794 -1.0271 -3.1156 -0.3872
18036TIP3   OH275522   6.194   2.981   4.209 -0.0954  0.2634  0.3822
18036TIP3    H175523   6.150   3.060   4.241  4.0833  2.8786  0.4335
18036TIP3    H275524   6.199   2.993   4.114  0.9146  0.3184  0.4314
18037TIP3   OH275525   4.121   6.708   1.814  0.1798 -0.2407 -0.4271
18037TIP3    H175526   4.031   6.676   1.813 -0.2874  0.9944 -1.1799
18037TIP3    H275527   4.117   6.789   1.864  0.7437  0.1394 -0.9714
18038TIP3   OH275528   2.573   3.665   4.379  0.1549  0.1016 -0.2234
18038TIP3    H175529   2.639   3.626   4.322 -0.3001 -0.4250 -0.3980
18038TIP3    H275530   2.592   3.759   4.377  0.4401  0.0349 -0.8601
18039TIP3   OH275531   3.378   4.072  11.625  0.7777 -0.4492  0.0678
18039TIP3    H175532   3.396   4.032  11.540 -0.6143  0.0627 -0.4949
18039TIP3    H275533   3.440   4.145  11.631  0.8025 -0.4151 -0.5710
18040TIP3   OH275534   0.005   1.537  14.678 -0.3102  0.3408 -0.1493
18040TIP3    H175535   0.038   1.468  14.620 -0.0834  1.0230 -0.8416
18040TIP3    H275536   0.084   1.577  14.715 -0.4507 -0.7507  1.4710
18041TIP3   OH275537   2.124   2.660   2.025  0.3292 -0.0001  0.2902
18041TIP3    H175538   2.050   2.693   1.974 -0.3110 -1.7903 -0.0228
18041TIP3    H275539   2.199   2.667   1.966  0.2715  1.0858  0.3294
18042TIP3   OH275540   0.840   5.518   3.613 -0.3758  0.0627  0.0652
18042TIP3    H175541   0.786   5.579   3.663  0.2225  0.3533  0.3626
18042TIP3    H275542   0.852   5.443   3.671  0.4658  0.4754  0.4301
18043TIP3   OH275543   0.380   2.754   2.659  0.3214 -0.2762  0.5243
18043TIP3    H175544   0.405   2.704   2.737  0.1026 -0.7236  0.3173
18043TIP3    H275545   0.452   2.816   2.646 -0.2039  0.6209  1.7626
18044TIP3   OH275546   5.557   5.293   0.854  0.0146 -0.3167  0.9435
18044TIP3    H175547   5.602   5.287   0.939  0.6399 -0.0926  0.6306
18044TIP3    H275548   5.626   5.314   0.792 -0.3427 -1.0679  0.2766
18045TIP3   OH275549   6.494   0.497   1.910 -0.4911  0.5713 -0.5849
18045TIP3    H175550   6.460   0.466   1.994 -0.7885  1.0088 -0.5449
18045TIP3    H275551   6.569   0.440   1.893 -1.4401 -0.6463 -0.8513
18046TIP3   OH275552   1.908   4.981  13.723  0.2520  0.3210  0.6051
18046TIP3    H175553   1.814   4.974  13.737  0.2447 -1.1597  0.0009
18046TIP3    H275554   1.917   5.029  13.640 -0.1381 -2.4746 -1.1803
18047TIP3   OH275555   5.991   0.510  13.597 -0.7328 -0.3074  0.3550
18047TIP3    H175556   6.077   0.552  13.601  0.7998 -3.1548 -0.1838
18047TIP3    H275557   5.987   0.455  13.675 -1.8962 -0.5611  0.1387
18048TIP3   OH275558   1.919   2.147  13.038 -0.2878 -0.2465 -0.4351
18048TIP3    H175559   1.981   2.200  12.988 -0.3245 -0.9778 -1.2740
18048TIP3    H275560   1.869   2.099  12.972 -0.8791 -0.6386  0.2752
18049TIP3   OH275561   5.797   6.595  11.208  0.4192 -0.4795 -0.2021
18049TIP3    H175562   5.814   6.589  11.302  0.4329 -1.8329 -0.2751
18049TIP3    H275563   5.701   6.594  11.201  0.4229 -0.8459 -0.2222
18050TIP3   OH275564   4.794   5.629   0.321 -0.1109 -0.2483  0.6302
18050TIP3    H175565   4.772   5.706   0.270 -2.0387 -0.8299  0.5106
18050TIP3    H275566   4.867   5.657   0.376  1.3488  0.6970 -1.6426
18051TIP3   OH275567   4.021   3.471  13.369 -0.5117  0.5784 -0.0009
18051TIP3    H175568   4.053   3.506  13.452 -1.2255  0.8477  0.1706
18051TIP3    H275569   4.051   3.380  13.369  0.7812  0.9843 -0.1469
18052TIP3   OH275570   0.969   4.773   2.922 -0.3763 -0.2461 -0.7004
18052TIP3    H175571   0.963   4.701   2.859 -2.1908 -1.5821  0.8886
18052TIP3    H275572   0.916   4.745   2.996  1.0687  1.5793  1.1610
18053TIP3   OH275573   3.198   2.490  11.100 -0.4782  0.3739  0.5515
18053TIP3    H175574   3.208   2.566  11.042 -2.0549  1.1879  1.2771
18053TIP3    H275575   3.236   2.519  11.183  0.1720 -0.1443  0.4383
18054TIP3   OH275576   3.642   1.785  13.697  0.4101  0.1945  0.0488
18054TIP3    H175577   3.671   1.708  13.747 -1.4338 -0.4735  0.1658
18054TIP3    H275578   3.564   1.815  13.744 -0.1159  0.8520 -1.2086
18055TIP3   OH275579   1.018   6.780   2.210 -0.0837  0.0966  0.2602
18055TIP3    H175580   0.950   6.832   2.253 -0.6326 -0.1118 -0.3309
18055TIP3    H275581   1.094   6.837   2.208  0.2497 -0.2071  2.2961
18056TIP3   OH275582   5.879   6.264   0.185  0.0206  0.6169 -0.3387
18056TIP3    H175583   5.827   6.247   0.106 -0.9548  2.5568 -0.1689
18056TIP3    H275584   5.938   6.335   0.160 -0.8694  1.8319  0.8689
18057TIP3   OH275585   1.504   3.118   1.258 -0.2517 -0.2529  0.2375
18057TIP3    H175586   1.576   3.055   1.255  0.2732 -0.0828  4.0230
18057TIP3    H275587   1.544   3.202   1.234 -0.2663 -0.8296 -1.9329
18058TIP3   OH275588   0.190   5.650  10.523  0.1808 -0.3761  0.0569
18058TIP3    H175589   0.107   5.668  10.567  0.6067  1.4072  0.1920
18058TIP3    H275590   0.165   5.623  10.434 -0.5798 -1.4816  0.5866
18059TIP3   OH275591   5.364   5.731   4.431  0.2309 -0.5525  0.1510
18059TIP3    H175592   5.354   5.794   4.502 -0.2403 -0.0137 -0.3722
18059TIP3    H275593   5.440   5.762   4.381  0.3415 -0.7220  0.2132
18060TIP3   OH275594   4.779   2.806  16.158  0.1097 -0.0747  0.3544
18060TIP3    H175595   4.762   2.712  16.154 -0.7029  0.0977 -0.6667
18060TIP3    H275596   4.863   2.816  16.113 -0.2252 -0.2273 -0.3233
18061TIP3   OH275597   0.404   6.167  10.208  0.2160  0.0652  1.0323
18061TIP3    H175598   0.350   6.239  10.175  0.6146 -0.4684 -0.9152
18061TIP3    H275599   0.468   6.210  10.266 -0.3830  1.0801  0.9663
18062TIP3   OH275600   4.368   3.961  10.800  0.5250  0.0664 -0.2864
18062TIP3    H175601   4.433   3.904  10.841  2.7286  1.5198 -1.5654
18062TIP3    H275602   4.317   3.996  10.873  1.1721 -1.0997  0.7606
18063TIP3   OH275603   5.546   2.725   2.296  0.3547 -0.6184 -0.0271
18063TIP3    H175604   5.525   2.638   2.263  1.8997 -1.0230 -0.0522
18063TIP3    H275605   5.609   2.709   2.366  0.3597  0.4637  0.2309
18064TIP3   OH275606   4.808   2.724   4.384  0.3912 -0.1570  0.1244
18064TIP3    H175607   4.844   2.803   4.425  2.0097 -1.0415  0.4688
18064TIP3    H275608   4.883   2.665   4.375 -0.7752 -1.6368 -0.1995
18065TIP3   OH275609   4.417   2.309   4.211  0.4161 -0.5413 -0.2408
18065TIP3    H175610   4.503   2.336   4.180 -0.1266  2.2071  0.4465
18065TIP3    H275611   4.426   2.303   4.306  0.2443 -1.9110 -0.2872
18066TIP3   OH275612   5.306   1.753   1.543 -0.4835  0.2524  0.8336
18066TIP3    H175613   5.268   1.749   1.630 -2.1329 -0.7373  0.1242
18066TIP3    H275614   5.376   1.687   1.544 -0.9224 -0.2193  1.2443
18067TIP3   OH275615   4.624   4.871   4.230  0.3317 -0.0217  0.2344
18067TIP3    H175616   4.545   4.820   4.245 -0.5995  0.6145 -2.0751
18067TIP3    H275617   4.692   4.826   4.280 -1.1945 -1.3583  1.1956
18068TIP3   OH275618   2.999   1.517  14.922  0.0601 -0.4684  0.1824
18068TIP3    H175619   2.949   1.562  14.990  2.4502 -0.4758  2.0489
18068TIP3    H275620   2.939   1.514  14.847 -3.1204 -1.4068  2.5446
18069TIP3   OH275621   4.962   5.555   4.114  0.2617 -0.0222 -0.8106
18069TIP3    H175622   5.023   5.533   4.185 -0.9247  0.4081  0.3995
18069TIP3    H275623   4.922   5.471   4.090 -1.8211  0.2084  1.4719
18070TIP3   OH275624   2.711   1.641  12.471  0.1785 -0.2761 -0.2941
18070TIP3    H175625   2.798   1.602  12.480  1.1608  1.6352 -0.9457
18070TIP3    H275626   2.704   1.664  12.378 -1.1889 -0.7201 -0.3277
18071TIP3   OH275627   0.833   0.813   0.328 -0.4339  0.1575  0.3071
18071TIP3    H175628   0.920   0.825   0.366 -0.0821 -3.1073  0.8973
18071TIP3    H275629   0.774   0.821   0.403 -0.4639  0.7495  0.2184
18072TIP3   OH275630   1.907   3.688  13.990  0.1436 -0.4640  0.3962
18072TIP3    H175631   1.821   3.708  14.028  0.4445 -1.0959  1.4702
18072TIP3    H275632   1.887   3.636  13.913 -0.4661  0.2011  0.0900
18073TIP3   OH275633   4.079   6.873   3.335  0.1452 -0.2119  0.3256
18073TIP3    H175634   4.037   6.862   3.420 -2.1709 -2.7227 -0.9753
18073TIP3    H275635   4.025   6.939   3.291  1.2651  0.9908  0.7003
18074TIP3   OH275636   4.690   2.877  10.874  0.2691  0.1391  0.2512
18074TIP3    H175637   4.678   2.785  10.848 -2.5080  0.3216  0.6140
18074TIP3    H275638   4.682   2.926  10.792 -1.2638  0.2223  0.4254
18075TIP3   OH275639   6.701   2.380   9.605 -0.6739  0.1706  0.0860
18075TIP3    H175640   6.623   2.395   9.657 -0.4398  0.2163  0.4249
18075TIP3    H275641   6.719   2.286   9.613  0.6678  0.5364  1.9645
18076TIP3   OH275642   4.163   5.052   0.356  0.0756 -0.4565 -0.1156
18076TIP3    H175643   4.109   5.129   0.342  2.3754  1.0849 -1.0162
18076TIP3    H275644   4.199   5.031   0.270 -0.5276 -2.6312  0.0912
18077TIP3   OH275645   4.385   2.585  10.182 -0.0075 -0.2879 -0.3165
18077TIP3    H175646   4.380   2.495  10.213 -0.2472 -0.2985 -0.3822
18077TIP3    H275647   4.362   2.580  10.089  0.6529 -0.2491 -0.4874
18078TIP3   OH275648   1.323   5.075  10.999 -0.5890 -0.4784 -0.5141
18078TIP3    H175649   1.287   5.153  11.041 -1.3513 -1.2093  0.2358
18078TIP3    H275650   1.315   5.091  10.906 -2.2666 -0.3300 -0.3666
18079TIP3   OH275651   1.914   6.782   2.339  0.0384  0.0511  0.0566
18079TIP3    H175652   1.825   6.816   2.333  0.0726 -0.1669 -2.5967
18079TIP3    H275653   1.908   6.711   2.404 -1.6922  0.0690 -0.0325
18080TIP3   OH275654   0.140   4.276  12.859 -0.0079  0.5738 -0.1534
18080TIP3    H175655   0.089   4.349  12.822  0.0724  0.1350 -1.1671
18080TIP3    H275656   0.075   4.207  12.873  0.3120 -0.1023 -1.7501
18081TIP3   OH275657   2.648   0.143   4.394 -0.3775  0.0177  0.8873
18081TIP3    H175658   2.611   0.089   4.325  2.1424 -0.0328 -0.5393
18081TIP3    H275659   2.595   0.123   4.471 -1.6034 -1.9411 -0.3773
18082TIP3   OH275660   4.737   4.234  13.973 -0.2588  0.4123 -0.0794
18082TIP3    H175661   4.802   4.237  13.903 -0.3931 -0.7110 -0.2705
18082TIP3    H275662   4.681   4.310  13.957 -0.8848 -0.3547 -1.7977
18083TIP3   OH275663   2.955   5.915  11.357 -0.1574  0.6234 -0.1556
18083TIP3    H175664   3.027   5.962  11.315 -0.1224  2.7601  2.0190
18083TIP3    H275665   2.878   5.938  11.305 -0.0868  2.9849  0.6338
18084TIP3   OH275666   3.170   0.000   0.312 -0.1795  0.4296  0.1799
18084TIP3    H175667   3.157   0.073   0.250  1.5319 -0.7136 -1.6555
18084TIP3    H275668   3.265  -0.015   0.311 -0.0612  0.3813  3.2199
18085TIP3   OH275669   0.216   5.972  11.217  0.4011 -0.2082 -0.3423
18085TIP3    H175670   0.253   5.884  11.216  0.7844 -0.0559 -1.9225
18085TIP3    H275671   0.124   5.958  11.240  0.5652 -0.9654 -0.1046
18086TIP3   OH275672   5.320   4.797   4.741 -0.7642  0.3100  0.3950
18086TIP3    H175673   5.290   4.757   4.823 -1.2257 -1.7227 -0.6899
18086TIP3    H275674   5.407   4.759   4.726 -0.9747  0.1141 -0.3874
18087TIP3   OH275675   6.145   5.905   3.541  0.1190  0.2845  0.2658
18087TIP3    H175676   6.090   5.837   3.579  1.2358 -1.0705 -0.4139
18087TIP3    H275677   6.232   5.865   3.537  0.5328  1.2689 -1.4070
18088TIP3   OH275678   5.672   5.766   5.498  0.6022 -0.7063 -0.0453
18088TIP3    H175679   5.582   5.795   5.482  0.8730  0.7189  0.8439
18088TIP3    H275680   5.676   5.750   5.592  1.6464  0.6997  0.1865
18089TIP3   OH275681   5.271   4.197  11.738  0.5794 -0.2256 -0.6410
18089TIP3    H175682   5.240   4.173  11.651 -0.1387 -2.2735  0.1127
18089TIP3    H275683   5.335   4.130  11.760  0.1414 -0.2266  0.7296
18090TIP3   OH275684   0.319   4.809  10.999  0.5264 -0.1554 -0.2076
18090TIP3    H175685   0.283   4.897  10.984  1.1171  0.3689  1.2698
18090TIP3    H275686   0.392   4.823  11.059  0.1328 -1.7487  0.6996
18091TIP3   OH275687   4.400   4.056  15.005 -0.5270  0.1939 -0.3536
18091TIP3    H175688   4.394   3.962  15.017  0.1149  0.3027  0.9284
18091TIP3    H275689   4.434   4.067  14.916 -0.2600 -0.7849 -0.3814
18092TIP3   OH275690   2.615   5.276  15.156 -0.3330 -0.2988  0.1438
18092TIP3    H175691   2.565   5.241  15.229 -0.6986 -1.5850 -0.6873
18092TIP3    H275692   2.706   5.273  15.185 -0.3999 -1.5388  0.2640
18093TIP3   OH275693   2.335   1.454   4.942  0.5145  0.2842 -0.2477
18093TIP3    H175694   2.285   1.426   5.019  2.1749  0.7557  1.0524
18093TIP3    H275695   2.342   1.375   4.889 -1.3749  0.1468 -0.3833
18094TIP3   OH275696   2.363   1.603   2.083  0.3361 -0.3516  0.4085
18094TIP3    H175697   2.300   1.557   2.027 -0.0633  1.5330 -0.8021
18094TIP3    H275698   2.405   1.666   2.024  2.1171 -0.3564  1.5922
18095TIP3   OH275699   4.685   4.486  11.290  0.1272 -0.0567  0.0222
18095TIP3    H175700   4.751   4.434  11.243 -0.0790 -0.0962 -0.2232
18095TIP3    H275701   4.601   4.453  11.258 -0.0688 -1.2960  1.6897
18096TIP3   OH275702   5.936   4.715   1.679  0.1127 -0.2734 -0.2454
18096TIP3    H175703   6.005   4.675   1.733 -0.6652 -2.3515 -0.6925
18096TIP3    H275704   5.958   4.690   1.590 -1.5513 -1.5817 -0.3388
18097TIP3   OH275705   6.446   5.644   1.715  0.2491  0.3532 -0.1565
18097TIP3    H175706   6.355   5.658   1.741 -0.7501 -1.2653 -2.4133
18097TIP3    H275707   6.464   5.715   1.653  0.0432 -0.1051 -0.7468
18098TIP3   OH275708   6.073   1.890   2.724  0.1795  0.4431  0.3146
18098TIP3    H175709   6.098   1.927   2.639 -0.5386  1.2096  0.4234
18098TIP3    H275710   6.142   1.920   2.784 -0.4296  1.7388  0.4195
18099TIP3   OH275711   5.663   3.084  11.526  0.0363  0.5918  0.8209
18099TIP3    H175712   5.592   3.134  11.486 -1.2589 -2.7579 -1.4810
18099TIP3    H275713   5.621   3.028  11.591  1.1967  1.1647  2.1261
18100TIP3   OH275714   6.433   1.674  12.673 -1.2544  0.5275 -0.0846
18100TIP3    H175715   6.382   1.597  12.696 -0.1884 -0.1276  0.1282
18100TIP3    H275716   6.469   1.655  12.587  0.8274 -0.2080  0.8780
18101TIP3   OH275717   5.878   4.098   2.309  0.2409  0.2136  0.5486
18101TIP3    H175718   5.863   4.008   2.280 -0.1739  0.1998  0.8064
18101TIP3    H275719   5.816   4.151   2.259  1.3178  0.5253 -0.5227
18102TIP3   OH275720   0.462   1.098   1.021  0.8051  0.0485 -1.0346
18102TIP3    H175721   0.437   1.051   0.941 -0.4886  0.9533 -1.1908
18102TIP3    H275722   0.539   1.051   1.052 -0.3121 -2.1085 -1.2565
18103TIP3   OH275723   0.695   1.855   5.486  0.5889 -0.1587  0.1977
18103TIP3    H175724   0.764   1.812   5.537  2.8617  2.7726 -0.0878
18103TIP3    H275725   0.714   1.832   5.395 -0.8497 -1.9099  0.2891
18104TIP3   OH275726   0.827   3.010  16.280 -0.0406  0.3901 -0.1365
18104TIP3    H175727   0.800   3.066  16.208 -1.6292 -0.3390 -0.1682
18104TIP3    H275728   0.825   2.921  16.244  1.6854  0.2118  0.1153
18105TIP3   OH275729   5.559   5.319   3.119  0.4486 -0.0975  0.1619
18105TIP3    H175730   5.593   5.373   3.048  0.8361  0.2803  0.6295
18105TIP3    H275731   5.633   5.266   3.147  0.9542  1.3769  1.7928
18106TIP3   OH275732   3.259   5.239  14.758  0.6270  0.4458  0.5709
18106TIP3    H175733   3.255   5.180  14.683  1.1142  0.9284  0.1621
18106TIP3    H275734   3.328   5.203  14.813 -0.2803 -0.3788  1.2053
18107TIP3   OH275735   2.583   3.804  12.706 -0.2040  0.4256 -0.0232
18107TIP3    H175736   2.558   3.801  12.614 -0.9152 -0.7025  0.1848
18107TIP3    H275737   2.676   3.781  12.706 -0.3993 -0.4054 -0.4054
18108TIP3   OH275738   4.560   4.178   2.657  0.0093 -0.5345  0.1320
18108TIP3    H175739   4.508   4.199   2.735  0.2214  0.7902 -0.0646
18108TIP3    H275740   4.498   4.183   2.585 -0.1190 -1.4570  0.1658
18109TIP3   OH275741   6.876   5.787   1.281  0.0852  0.0358 -0.0150
18109TIP3    H175742   6.808   5.853   1.292 -2.1351 -2.0492 -0.2369
18109TIP3    H275743   6.864   5.754   1.192 -0.1381 -1.8904  0.6633
18110TIP3   OH275744   0.899   3.715  11.974  0.1838  0.2326 -0.3296
18110TIP3    H175745   0.992   3.736  11.984  0.8157 -2.3665 -0.0349
18110TIP3    H275746   0.859   3.745  12.055  1.2441 -0.7154  0.5900
18111TIP3   OH275747   4.012   0.607   2.172  0.0397 -0.1467 -0.2206
18111TIP3    H175748   3.922   0.603   2.140  0.0156 -0.4532 -0.1167
18111TIP3    H275749   4.066   0.611   2.093 -0.1102  1.0130 -0.2748
18112TIP3   OH275750   4.800   3.775  15.134 -0.0327 -0.0732 -0.3768
18112TIP3    H175751   4.766   3.864  15.123 -2.0481 -0.8014 -0.3183
18112TIP3    H275752   4.827   3.771  15.225 -2.3586 -0.2633  0.3610
18113TIP3   OH275753   3.153   0.604  12.803 -0.0910  0.3809  0.8618
18113TIP3    H175754   3.071   0.606  12.852 -0.6370 -1.3328  0.1121
18113TIP3    H275755   3.213   0.556  12.861 -0.5655 -1.1210  0.1677
18114TIP3   OH275756   5.867   0.046   4.587  0.2854  0.0055 -0.2116
18114TIP3    H175757   5.859   0.112   4.518 -2.6567 -0.5922 -0.5509
18114TIP3    H275758   5.918  -0.024   4.546 -0.5796  0.0790 -1.4862
18115TIP3   OH275759   1.578   1.649  10.700 -0.7027 -0.0484 -0.0152
18115TIP3    H175760   1.638   1.587  10.742  1.1502  1.7331  0.1431
18115TIP3    H275761   1.616   1.666  10.614  0.1330  2.4419  0.7347
18116TIP3   OH275762   2.328   5.426   4.167  0.0512 -0.0045 -0.2001
18116TIP3    H175763   2.234   5.446   4.170  0.4017  2.0090 -0.9252
18116TIP3    H275764   2.336   5.356   4.103 -1.2384 -2.4900  2.1589
18117TIP3   OH275765   3.333   3.697   3.638  0.1585  0.0577  0.7770
18117TIP3    H175766   3.410   3.749   3.614  1.4111 -0.9487  2.4042
18117TIP3    H275767   3.266   3.761   3.658  1.3411  1.0596  1.6835
18118TIP3   OH275768   5.787   3.152  16.368 -0.3470 -0.0685 -0.9155
18118TIP3    H175769   5.728   3.228  16.361 -0.2117  0.0374 -0.9019
18118TIP3    H275770   5.773   3.104  16.287  0.0046  0.2877 -1.1900
18119TIP3   OH275771   2.580   1.882   2.193  0.3290 -0.9640 -0.5058
18119TIP3    H175772   2.599   1.970   2.160 -0.4902 -0.5769  0.0184
18119TIP3    H275773   2.536   1.838   2.120 -0.8151 -0.3569 -0.2014
18120TIP3   OH275774   3.643   5.906   2.986 -0.2098  0.5711 -0.4173
18120TIP3    H175775   3.717   5.904   2.925 -0.5778 -0.1233 -0.8433
18120TIP3    H275776   3.634   5.999   3.009 -0.4251  0.9252 -1.8587
18121TIP3   OH275777   0.368   1.612  12.429  0.2573  0.0328 -0.5249
18121TIP3    H175778   0.305   1.665  12.380 -0.1520  0.8337  0.8300
18121TIP3    H275779   0.315   1.542  12.467  0.5410 -0.4742 -1.0525
18122TIP3   OH275780   6.072   4.642  14.286 -0.2217 -0.1418  0.4247
18122TIP3    H175781   6.010   4.594  14.340 -2.6397  0.4489 -1.6602
18122TIP3    H275782   6.086   4.725  14.331 -2.2770  0.3880  0.1549
18123TIP3   OH275783   1.375   6.876   4.164  0.0911 -0.1760 -0.3981
18123TIP3    H175784   1.421   6.793   4.174  0.9971  0.4395  0.8050
18123TIP3    H275785   1.438   6.943   4.191  0.0530  1.1184 -3.1731
18124TIP3   OH275786   4.212   4.524   4.745  0.2008  0.7699 -0.6170
18124TIP3    H175787   4.294   4.573   4.749  1.0831 -0.7038  2.5744
18124TIP3    H275788   4.150   4.577   4.795  0.0738  0.4377 -0.4182
18125TIP3   OH275789   1.293   2.718  11.029  0.5944  0.0251  0.3034
18125TIP3    H175790   1.247   2.666  11.094  0.1798  2.0950  1.7726
18125TIP3    H275791   1.385   2.695  11.040  0.4480 -0.1605  1.1549
18126TIP3   OH275792   1.752   2.124  10.248  0.0960 -0.6603 -0.1234
18126TIP3    H175793   1.689   2.129  10.177  1.2116 -0.6748 -1.1419
18126TIP3    H275794   1.755   2.030  10.270  1.2997 -0.9959 -1.5397
18127TIP3   OH275795   4.909   2.676   5.568 -0.1004  0.5691  0.0442
18127TIP3    H175796   4.994   2.678   5.524  0.2453 -0.3190  0.6221
18127TIP3    H275797   4.921   2.731   5.646 -0.3118  1.0974 -0.2921
18128TIP3   OH275798   2.085   0.347  15.451 -0.4966 -0.1467  0.1004
18128TIP3    H175799   2.145   0.352  15.377 -1.3061  1.8510 -0.4749
18128TIP3    H275800   2.142   0.353  15.528  0.1011  1.5036 -0.4339
18129TIP3   OH275801   0.311   6.148  16.526 -0.3555 -0.3184 -0.0019
18129TIP3    H175802   0.303   6.217  16.461 -0.2619 -0.4913 -0.1997
18129TIP3    H275803   0.224   6.142  16.566 -0.2898  0.0997  0.2093
18130TIP3   OH275804   5.696   5.820   4.085 -0.2382  0.3953 -0.0181
18130TIP3    H175805   5.751   5.881   4.134  2.3481 -0.7407 -1.3008
18130TIP3    H275806   5.689   5.859   3.998  1.0396 -0.8125 -0.7092
18131TIP3   OH275807   5.148   6.462  16.066 -0.2241 -0.0159 -0.4680
18131TIP3    H175808   5.054   6.444  16.071 -0.6755  1.6489 -1.8051
18131TIP3    H275809   5.173   6.483  16.156 -1.8214  2.3379 -0.4693
18132TIP3   OH275810   1.433   4.482  14.124  0.3182  0.5201 -0.1348
18132TIP3    H175811   1.418   4.552  14.188  0.9401  0.5446 -0.0103
18132TIP3    H275812   1.430   4.526  14.039  0.8428  0.7299 -0.0493
18133TIP3   OH275813   2.548   3.624  15.367 -0.3176  0.1539 -0.4880
18133TIP3    H175814   2.624   3.624  15.425 -1.8483  0.7547  1.6604
18133TIP3    H275815   2.563   3.696  15.306 -0.0621  1.6552  1.2591
18134TIP3   OH275816   5.164   5.149  11.858 -0.4395  0.4933 -0.0452
18134TIP3    H175817   5.238   5.089  11.845 -0.2360  0.9599 -1.0775
18134TIP3    H275818   5.203   5.230  11.891 -0.7326  0.0413  1.5228
18135TIP3   OH275819   1.177   3.926   3.645 -0.0958  0.2514  0.0582
18135TIP3    H175820   1.112   3.961   3.707  0.5417  0.6769  0.4983
18135TIP3    H275821   1.262   3.946   3.685  0.3764  1.4944 -1.4491
18136TIP3   OH275822   1.174   4.700   5.212  0.6001 -0.2450  0.1535
18136TIP3    H175823   1.081   4.714   5.192 -0.1683 -0.8286  2.8660
18136TIP3    H275824   1.214   4.678   5.128 -1.3101  1.8257 -1.4239
18137TIP3   OH275825   4.915   3.064  13.023  0.4011  0.2922  0.3872
18137TIP3    H175826   4.851   3.123  13.062 -0.3549 -0.2488 -0.0128
18137TIP3    H275827   4.863   2.993  12.986  1.2703 -0.5237  0.6738
18138TIP3   OH275828   2.474   3.324   4.471  0.1049 -0.0472  0.3364
18138TIP3    H175829   2.401   3.365   4.517  0.0061  1.9608 -1.4659
18138TIP3    H275830   2.550   3.342   4.527 -0.3798  0.0720  0.9742
18139TIP3   OH275831   1.986   1.082  13.656  0.4000  0.5828  0.2852
18139TIP3    H175832   1.914   1.134  13.619  0.1976 -0.3174 -0.6337
18139TIP3    H275833   1.958   1.064  13.745 -0.0126  1.1550  0.2803
18140TIP3   OH275834   1.416   5.920   4.792 -0.2475  0.3814 -0.0004
18140TIP3    H175835   1.499   5.872   4.790 -0.9384 -0.9124  1.0294
18140TIP3    H275836   1.442   6.011   4.804  1.0578  0.1541 -0.8511
18141TIP3   OH275837   6.162   5.711   1.156 -0.1478 -0.5814 -0.3298
18141TIP3    H175838   6.144   5.632   1.206  0.9332 -1.8071 -1.7967
18141TIP3    H275839   6.112   5.701   1.075  0.7567 -0.2462 -0.9484
18142TIP3   OH275840   6.524   3.136   0.793  0.1535  0.5432  0.0854
18142TIP3    H175841   6.590   3.094   0.738  1.2851  2.4750 -0.1530
18142TIP3    H275842   6.505   3.219   0.748 -0.0571  1.4589  1.7777
18143TIP3   OH275843   2.302   4.198  12.374  0.2201  0.1126  0.2313
18143TIP3    H175844   2.337   4.193  12.463 -1.0315  1.0592  0.7966
18143TIP3    H275845   2.254   4.116  12.362 -0.7796  0.5813  0.9534
18144TIP3   OH275846   3.995   2.055   2.822  0.1291  0.1668 -0.3211
18144TIP3    H175847   4.037   2.075   2.738  1.8472 -0.9387  0.2177
18144TIP3    H275848   4.068   2.041   2.882 -1.0627  0.0929  1.1708
18145TIP3   OH275849   3.263   5.874   4.386 -0.4140 -0.4364  0.0148
18145TIP3    H175850   3.248   5.903   4.296  0.0820 -2.5339 -0.7912
18145TIP3    H275851   3.351   5.837   4.385 -0.2828 -0.2286  1.4539
18146TIP3   OH275852   2.583   5.720   2.729  0.3068 -0.3036 -0.2771
18146TIP3    H175853   2.670   5.684   2.743 -0.4455 -1.8115  0.8801
18146TIP3    H275854   2.548   5.670   2.655  0.3304  0.1250 -0.5803
18147TIP3   OH275855   0.696   6.609   5.516  0.3448 -0.4190 -0.0121
18147TIP3    H175856   0.649   6.611   5.600 -0.6811  0.0857 -0.5860
18147TIP3    H275857   0.628   6.612   5.450  1.1680 -0.2670 -0.8730
18148TIP3   OH275858   3.975   3.487  14.303 -0.0198 -0.0965  0.5489
18148TIP3    H175859   3.947   3.498  14.393 -1.5071 -1.4646  0.2970
18148TIP3    H275860   3.903   3.520  14.250  1.0293  1.1400 -0.1786
18149TIP3   OH275861   1.303   2.239   3.507 -0.1689  0.7182 -0.4282
18149TIP3    H175862   1.307   2.186   3.587 -0.1627 -0.1161 -0.9730
18149TIP3    H275863   1.380   2.296   3.513  1.4106 -1.2120 -1.0960
18150TIP3   OH275864   3.636   2.609  12.449 -0.1780  0.3430 -0.3588
18150TIP3    H175865   3.636   2.567  12.363  2.4712 -2.7107  0.8950
18150TIP3    H275866   3.709   2.671  12.445  0.5390 -0.4648 -0.0874
18151TIP3   OH275867   1.036   3.979   2.600 -0.0221 -0.5290  0.1860
18151TIP3    H175868   1.131   3.974   2.600  0.1128  1.3665  0.6978
18151TIP3    H275869   1.012   3.980   2.693 -0.4584 -0.0274  0.0749
18152TIP3   OH275870   1.345   5.898   0.842 -0.6609  0.4401 -0.0823
18152TIP3    H175871   1.283   5.971   0.842  0.5459  1.5584  2.2750
18152TIP3    H275872   1.418   5.927   0.787 -0.4839  0.7187  0.3028
18153TIP3   OH275873   2.348   6.817   2.165  0.9057 -0.3697 -0.2391
18153TIP3    H175874   2.259   6.839   2.140  1.4611 -0.7609 -2.8201
18153TIP3    H275875   2.341   6.730   2.205  0.0994 -0.1616  0.0998
18154TIP3   OH275876   1.700   3.328  11.649  0.2481 -0.4427  0.1223
18154TIP3    H175877   1.675   3.416  11.677 -0.9219 -0.5287 -0.5766
18154TIP3    H275878   1.790   3.337  11.619 -0.1368  0.7271 -0.7704
18155TIP3   OH275879   6.260   4.661   0.731  0.0002 -0.0132  0.2053
18155TIP3    H175880   6.227   4.604   0.661  0.7068  0.9010 -0.8951
18155TIP3    H275881   6.221   4.625   0.810 -2.2826 -0.0021 -0.8365
18156TIP3   OH275882   5.568   1.348  11.581 -0.1325  0.1102  0.4506
18156TIP3    H175883   5.626   1.280  11.548  2.3535  1.1545  2.3544
18156TIP3    H275884   5.564   1.332  11.676 -0.8385  1.6393  0.7090
18157TIP3   OH275885   1.447   3.547   4.812  0.1139 -0.3680 -0.1301
18157TIP3    H175886   1.452   3.643   4.818  0.3544 -0.3527 -0.5205
18157TIP3    H275887   1.535   3.521   4.785 -0.1792 -0.6335 -0.8449
18158TIP3   OH275888   1.062   0.699   4.034  0.3352  0.5363  0.1681
18158TIP3    H175889   1.157   0.703   4.038  0.5553  0.9404 -3.0308
18158TIP3    H275890   1.033   0.789   4.049  0.3857  0.3518  1.4961
18159TIP3   OH275891   0.836   6.741   0.988 -0.0483  0.2434 -0.0753
18159TIP3    H175892   0.776   6.816   0.989 -0.7520 -0.2811  2.5834
18159TIP3    H275893   0.903   6.766   0.924 -1.1236  2.4204 -0.4620
18160TIP3   OH275894   4.116   1.660   0.756  0.1194 -0.4211  0.3005
18160TIP3    H175895   4.073   1.615   0.683 -1.2382  0.4186  0.5460
18160TIP3    H275896   4.210   1.649   0.739 -0.1722 -1.0802 -1.0346
18161TIP3   OH275897   3.878   0.474  14.374 -0.2461 -0.0720  0.2317
18161TIP3    H175898   3.825   0.486  14.453  2.3414  3.8273  1.6658
18161TIP3    H275899   3.825   0.513  14.304 -0.5129  1.1683  1.0853
18162TIP3   OH275900   3.219   4.842  11.903  0.9812 -0.5270  0.2899
18162TIP3    H175901   3.246   4.931  11.926 -0.5080  0.3332 -1.0978
18162TIP3    H275902   3.143   4.825  11.959  0.1335 -0.1927 -0.7442
18163TIP3   OH275903   2.170   4.736  15.549  0.2084 -0.2710 -0.0708
18163TIP3    H175904   2.231   4.678  15.595 -0.0936 -2.5157 -2.3097
18163TIP3    H275905   2.224   4.808  15.518  1.0767 -0.5637  0.7182
18164TIP3   OH275906   3.421   3.559   5.275 -0.7258  0.0178  0.2466
18164TIP3    H175907   3.421   3.627   5.343 -2.1588 -1.1781  1.4897
18164TIP3    H275908   3.509   3.521   5.279 -0.6063  0.3611  1.0114
18165TIP3   OH275909   0.058   1.132   1.468 -0.5382  0.5063  0.2659
18165TIP3    H175910   0.121   1.121   1.396 -0.4104  0.2665  0.4122
18165TIP3    H275911   0.099   1.087   1.542  0.3550  2.5727  1.1121
18166TIP3   OH275912   6.284   5.669  15.980  0.1125 -0.2386 -0.4839
18166TIP3    H175913   6.372   5.632  15.977  0.4970  0.4862  0.9742
18166TIP3    H275914   6.239   5.619  16.048 -1.0878 -1.5151 -2.1235
18167TIP3   OH275915   0.859   5.284   6.121 -0.2906 -0.1567 -0.1218
18167TIP3    H175916   0.949   5.263   6.095  0.1889  1.0988  0.4306
18167TIP3    H275917   0.805   5.222   6.073  0.9498 -1.8073  0.5147
18168TIP3   OH275918   2.953   3.458   3.470 -0.2301 -0.7769 -0.1383
18168TIP3    H175919   2.968   3.494   3.558  1.3297 -0.2003 -0.6121
18168TIP3    H275920   2.991   3.522   3.411  0.4972 -2.0864 -1.1320
18169TIP3   OH275921   4.196   1.105  11.010  0.3773  0.5515  0.3191
18169TIP3    H175922   4.170   1.109  10.918  0.7115  0.2931  0.2107
18169TIP3    H275923   4.131   1.048  11.051  1.6434 -1.4519 -0.2782
18170TIP3   OH275924   4.945   3.494   4.142  0.5577 -0.6713 -0.0239
18170TIP3    H175925   5.024   3.444   4.120  2.0998  1.5852 -0.0158
18170TIP3    H275926   4.912   3.526   4.057  0.9749  0.2071  0.1313
18171TIP3   OH275927   3.732   3.279  15.869  0.1336  0.5463  0.3448
18171TIP3    H175928   3.678   3.203  15.891 -0.4553  0.2938 -1.7972
18171TIP3    H275929   3.822   3.248  15.882 -0.1411  0.3201  1.9405
18172TIP3   OH275930   2.695   0.752  14.243  0.2951  0.3008 -0.4175
18172TIP3    H175931   2.643   0.776  14.320 -0.0603  0.4974 -0.7201
18172TIP3    H275932   2.632   0.716  14.181  0.1265  2.6093 -1.6853
18173TIP3   OH275933   4.362   4.278   2.174  0.1348 -0.0382  0.3200
18173TIP3    H175934   4.419   4.349   2.146 -0.2974  0.1488 -0.0938
18173TIP3    H275935   4.337   4.234   2.093 -1.0745  0.4725  0.3969
18174TIP3   OH275936   1.168   3.272  14.116  0.1305  0.1693 -0.2524
18174TIP3    H175937   1.101   3.220  14.162 -0.3770 -1.0250 -2.2170
18174TIP3    H275938   1.236   3.209  14.094  2.2552  1.4605  2.1427
18175TIP3   OH275939   1.474   1.464   4.918  0.1722  0.2029 -0.9818
18175TIP3    H175940   1.434   1.517   4.987  1.2778  0.5474 -0.5829
18175TIP3    H275941   1.425   1.382   4.919 -0.3512  0.5162 -0.3453
18176TIP3   OH275942   5.698   0.452  15.910 -0.3656  0.1799 -0.0097
18176TIP3    H175943   5.673   0.515  15.978 -1.8798 -0.9565  0.5259
18176TIP3    H275944   5.616   0.411  15.883  0.3927 -0.4783 -1.4753
18177TIP3   OH275945   0.051   6.627   4.452 -0.2821  0.4424  0.1482
18177TIP3    H175946  -0.017   6.677   4.407  0.2239 -0.3555 -1.6002
18177TIP3    H275947   0.047   6.540   4.412  0.6779 -0.1073  1.1904
18178TIP3   OH275948   3.774   3.628   2.965 -0.1377  0.0606  0.1921
18178TIP3    H175949   3.685   3.630   3.002 -0.6391 -0.7163 -0.9206
18178TIP3    H275950   3.824   3.575   3.027 -0.3615  0.7325  0.9751
18179TIP3   OH275951   5.174   3.009   0.844 -0.0580  0.7800  0.5183
18179TIP3    H175952   5.151   3.102   0.848  1.8844  1.3113  0.1837
18179TIP3    H275953   5.266   3.006   0.870  0.3810 -0.8363 -1.0132
18180TIP3   OH275954   4.534   3.317  13.500 -0.6945 -0.1378  0.2086
18180TIP3    H175955   4.472   3.262  13.453 -0.3240 -0.0729 -0.3696
18180TIP3    H275956   4.620   3.279  13.479 -0.2430  1.8179 -1.8553
18181TIP3   OH275957   0.548   5.794  13.005 -0.4639  0.4164  0.1856
18181TIP3    H175958   0.514   5.880  12.980 -0.5677  0.2962 -0.0913
18181TIP3    H275959   0.492   5.768  13.079  0.3963  1.1503  1.1217
18182TIP3   OH275960   6.052   5.257   1.420  0.2433 -0.0705 -0.3049
18182TIP3    H175961   6.136   5.253   1.375  0.4927 -0.8264  0.2185
18182TIP3    H275962   5.996   5.196   1.373  0.0757  0.1916 -0.4527
18183TIP3   OH275963   6.678   4.782   0.245 -0.0163  0.7061 -0.4743
18183TIP3    H175964   6.637   4.834   0.176 -0.5660 -1.8310 -2.1758
18183TIP3    H275965   6.743   4.728   0.199  0.0509 -0.5939  1.0679
18184TIP3   OH275966   4.762   4.620   5.444  0.0566  0.1854  0.3242
18184TIP3    H175967   4.743   4.572   5.363  0.7792  0.9931 -0.3372
18184TIP3    H275968   4.677   4.656   5.470 -0.1306  0.1895 -0.2653
18185TIP3   OH275969   2.580   4.646  16.208 -0.2222  0.8585  0.0717
18185TIP3    H175970   2.581   4.644  16.112  3.9662  0.4575 -0.0924
18185TIP3    H275971   2.587   4.739  16.230 -2.4238  1.0610  0.1301
18186TIP3   OH275972   3.459   1.647  14.342  0.1422 -0.2547 -0.5299
18186TIP3    H175973   3.386   1.605  14.387  0.5515  0.1779  0.5759
18186TIP3    H275974   3.421   1.724  14.299 -0.4163 -1.1594 -1.6984
18187TIP3   OH275975   5.440   4.397  14.996 -0.0109 -0.1643 -0.3253
18187TIP3    H175976   5.532   4.378  14.976 -0.2711  0.7491 -2.7059
18187TIP3    H275977   5.400   4.312  15.009  0.8263 -0.6926 -1.0731
18188TIP3   OH275978   3.349   5.623   2.661  0.4223 -0.6730 -0.0059
18188TIP3    H175979   3.358   5.682   2.736  1.6912 -0.9367  0.0644
18188TIP3    H275980   3.314   5.542   2.698  0.1874 -0.5064  0.1436
18189TIP3   OH275981   3.190   1.174  12.020 -0.4591 -0.2520  0.2304
18189TIP3    H175982   3.257   1.214  12.075  0.6884  1.6216 -2.3149
18189TIP3    H275983   3.107   1.198  12.061  0.3549 -0.4732  2.0840
18190TIP3   OH275984   4.405   4.860   5.893 -0.2655  0.3588 -0.2179
18190TIP3    H175985   4.452   4.939   5.918 -1.1721  0.8328  0.0406
18190TIP3    H275986   4.468   4.789   5.906 -0.0890  0.7972  1.6266
18191TIP3   OH275987   1.494   1.350   5.706 -0.3999  0.5331  0.3467
18191TIP3    H175988   1.523   1.395   5.786 -2.0920  1.1888  0.6441
18191TIP3    H275989   1.560   1.372   5.641  2.2162 -1.7791  2.0056
18192TIP3   OH275990   1.055   1.865   4.283  0.2009  0.5703  0.0641
18192TIP3    H175991   1.114   1.871   4.207  0.6811  3.4845  0.5301
18192TIP3    H275992   1.113   1.877   4.358 -0.3466 -1.7957  0.9441
18193TIP3   OH275993   0.601   4.425  15.962 -0.1176 -0.4578 -0.7539
18193TIP3    H175994   0.587   4.331  15.973  2.2836 -0.7112  1.0336
18193TIP3    H275995   0.689   4.440  15.997 -0.0565  2.3308 -1.8417
18194TIP3   OH275996   2.635   4.121   5.344 -0.6533  0.0864 -0.3481
18194TIP3    H175997   2.566   4.056   5.333  1.5231 -2.5125  0.3001
18194TIP3    H275998   2.593   4.193   5.391 -2.8982 -1.3603  0.0339
18195TIP3   OH275999   4.058   5.309  16.282 -0.3277  0.0747  0.7883
18195TIP3    H176000   4.130   5.373  16.278  1.1564 -1.4032  2.2759
18195TIP3    H276001   4.003   5.330  16.206  0.9335  2.1096  0.3579
18196TIP3   OH276002   2.621   6.044  14.863  0.0112  0.1504  0.3825
18196TIP3    H176003   2.676   6.105  14.912 -0.0951  1.4333 -1.0048
18196TIP3    H276004   2.638   5.959  14.903  0.6380  0.9810  1.9833
18197TIP3   OH276005   5.073   2.525  16.359 -0.3331  0.3171  0.0997
18197TIP3    H176006   4.988   2.548  16.396 -0.3353  0.7037 -0.1336
18197TIP3    H276007   5.117   2.610  16.347  0.1019  0.1152  0.2688
18198TIP3   OH276008   4.533   4.845  10.743 -0.5131  0.0388  0.0824
18198TIP3    H176009   4.501   4.769  10.694 -0.7450  0.4567 -0.4132
18198TIP3    H276010   4.601   4.883  10.687  1.2181 -1.0871  1.2964
18199TIP3   OH276011   1.829   2.739   4.322  0.3862 -0.1364 -0.0557
18199TIP3    H176012   1.919   2.737   4.356  1.9406  1.4657 -3.5817
18199TIP3    H276013   1.838   2.766   4.231 -3.7053 -0.3373 -0.7172
18200TIP3   OH276014   1.800   1.677   0.091  0.1770  0.0913  0.1996
18200TIP3    H176015   1.828   1.668   0.182  3.2309  1.3135 -0.4979
18200TIP3    H276016   1.770   1.768   0.084  0.3599  0.1291 -0.1108
18201TIP3   OH276017   1.359   6.604   4.933 -0.0712 -0.3334  0.4202
18201TIP3    H176018   1.380   6.696   4.913 -1.4099 -0.3513 -1.3402
18201TIP3    H276019   1.266   6.605   4.952 -0.1777 -1.3947 -0.0151
18202TIP3   OH276020   3.179   3.811  15.703 -0.4744  0.0658 -0.2273
18202TIP3    H176021   3.109   3.808  15.767  1.5839 -1.7348  2.1398
18202TIP3    H276022   3.213   3.721  15.700  2.1735  0.9891 -0.6946
18203TIP3   OH276023   1.124   6.846  11.972  0.0724 -0.1850  0.9247
18203TIP3    H176024   1.173   6.894  12.039  0.0165 -1.1929  1.7087
18203TIP3    H276025   1.045   6.818  12.016  0.2165 -1.2054  0.5538
18204TIP3   OH276026   1.038   3.271   1.389  0.3006 -0.4319 -0.0276
18204TIP3    H176027   1.069   3.286   1.478  0.0324  1.0614 -0.1632
18204TIP3    H276028   0.959   3.324   1.381 -0.1933 -1.2585 -0.8732
18205TIP3   OH276029   5.203   0.267   2.705  0.2874 -0.3402 -0.5049
18205TIP3    H176030   5.158   0.304   2.781  2.3061 -0.0084  0.5953
18205TIP3    H276031   5.190   0.172   2.713  1.3074 -0.3949  0.8612
18206TIP3   OH276032   0.506   5.561  15.662  0.3432  0.0144 -0.4727
18206TIP3    H176033   0.419   5.581  15.629 -0.8200 -0.4888  2.0218
18206TIP3    H276034   0.519   5.469  15.643  0.9769  0.4090 -2.0960
18207TIP3   OH276035   2.430   3.999   1.369 -0.0114  1.0301 -0.0103
18207TIP3    H176036   2.443   4.001   1.274  1.1651  0.9023  0.1340
18207TIP3    H276037   2.458   4.086   1.398  0.2532  0.8451  0.2902
18208TIP3   OH276038   6.081   5.804   2.742 -0.2656  0.2740 -0.5144
18208TIP3    H176039   6.162   5.839   2.706  0.6179 -1.9607 -0.8711
18208TIP3    H276040   6.018   5.809   2.671  0.5589 -1.1078 -1.3837
18209TIP3   OH276041   5.233   0.700  14.168 -0.0976  0.5908 -0.0636
18209TIP3    H176042   5.182   0.710  14.088  1.7134 -1.2380 -1.5744
18209TIP3    H276043   5.237   0.605  14.183  0.0876  0.8505  1.8965
18210TIP3   OH276044   0.549   3.176   2.350 -0.8253  0.2236 -0.0758
18210TIP3    H176045   0.539   3.093   2.302 -1.1653 -0.8170  1.7192
18210TIP3    H276046   0.461   3.214   2.349 -0.7633  0.3662 -0.5313
18211TIP3   OH276047   5.347   6.824   1.681  0.1089  0.0378  0.2031
18211TIP3    H176048   5.390   6.748   1.721  1.8130  1.1728  0.6451
18211TIP3    H276049   5.397   6.899   1.713 -1.9820  1.4303  0.3894
18212TIP3   OH276050   3.907   5.624   1.391 -0.2407 -0.5101  0.1498
18212TIP3    H176051   3.922   5.712   1.355 -0.3234 -0.5082  0.1200
18212TIP3    H276052   3.979   5.611   1.453 -0.5251 -0.2121  0.5399
18213TIP3   OH276053   0.278   1.174  16.003  0.1222  0.3479 -0.4997
18213TIP3    H176054   0.188   1.149  15.980  0.5959 -1.8722 -0.2132
18213TIP3    H276055   0.274   1.196  16.096 -0.6579  3.4058 -1.1593
18214TIP3   OH276056   4.603   2.498   3.229 -0.5581  0.0780  0.4862
18214TIP3    H176057   4.639   2.498   3.318  2.8744  1.5773 -0.7316
18214TIP3    H276058   4.530   2.560   3.233 -3.4431 -3.0984  3.0889
18215TIP3   OH276059   4.306   0.106   0.173 -0.0261 -0.3249 -0.3055
18215TIP3    H176060   4.364   0.064   0.236 -0.3149  0.3289  0.4087
18215TIP3    H276061   4.240   0.039   0.152 -0.4981 -0.2418  0.8340
18216TIP3   OH276062   4.509   1.882  13.878 -0.2084  0.1748 -0.1008
18216TIP3    H176063   4.580   1.878  13.941  0.6180  1.1480 -0.9343
18216TIP3    H276064   4.452   1.809  13.901  0.1710  0.3910  1.6323
18217TIP3   OH276065   2.171   3.853  10.939  0.2761 -0.1916 -0.7448
18217TIP3    H176066   2.085   3.820  10.966  0.8755 -0.7549  0.5623
18217TIP3    H276067   2.160   3.875  10.847 -1.5671  0.7472 -0.3517
18218TIP3   OH276068   4.036   4.747  13.816  0.2492  0.0866  0.1331
18218TIP3    H176069   4.010   4.838  13.832 -0.1217 -0.0255  0.1705
18218TIP3    H276070   4.130   4.752  13.799  0.2705  0.4511  0.3437
18219TIP3   OH276071   4.283   1.499   1.547 -0.7006  0.0110  0.0701
18219TIP3    H176072   4.307   1.568   1.610  0.3913  1.0416 -1.4018
18219TIP3    H276073   4.367   1.473   1.508 -1.0884 -2.2049  0.6029
18220TIP3   OH276074   4.897   4.984  14.747  0.3997 -0.3888 -0.0982
18220TIP3    H176075   4.920   4.911  14.805 -1.6998 -1.2543 -0.2304
18220TIP3    H276076   4.978   5.006  14.702  1.5406 -1.3122  1.3936
18221TIP3   OH276077   3.354   1.992   2.015  0.3819 -0.9474 -0.7044
18221TIP3    H176078   3.442   2.030   2.016  0.4450 -0.8069  3.1215
18221TIP3    H276079   3.300   2.056   2.062 -0.6716 -3.0637  1.1467
18222TIP3   OH276080   2.920   3.172   4.653  1.1952  0.0373 -0.5685
18222TIP3    H176081   2.962   3.193   4.736  4.6652 -1.5650 -1.7263
18222TIP3    H276082   2.871   3.092   4.670 -0.8180  1.4109  0.5732
18223TIP3   OH276083   6.326   6.830   5.366  0.4127 -0.4176  0.5088
18223TIP3    H176084   6.248   6.794   5.324  0.8714 -0.0440 -0.7040
18223TIP3    H276085   6.316   6.807   5.459 -3.4539  3.5474  1.4189
18224TIP3   OH276086   5.937   1.691   0.488 -0.2720 -0.1347 -0.5669
18224TIP3    H176087   5.909   1.758   0.425 -2.5972 -0.0962  0.4100
18224TIP3    H276088   5.976   1.741   0.559  0.9636 -0.0822 -1.2465
18225TIP3   OH276089   3.093   4.324   2.068 -0.1469 -0.2578  0.4422
18225TIP3    H176090   3.004   4.355   2.054 -0.4536 -1.3167 -0.1058
18225TIP3    H276091   3.128   4.311   1.980  0.5842  0.2124  0.6510
18226TIP3   OH276092   5.494   0.409  10.316  1.0407 -0.7002  0.3393
18226TIP3    H176093   5.535   0.329  10.284  1.2381 -0.0336 -1.1233
18226TIP3    H276094   5.443   0.441  10.242  2.5179  1.5836  0.2192
18227TIP3   OH276095   3.253   3.010   2.785  0.2960 -0.1539 -0.3984
18227TIP3    H176096   3.190   2.989   2.854  1.9145  1.2450  1.6118
18227TIP3    H276097   3.231   2.949   2.714 -2.6807 -0.3386  0.5348
18228TIP3   OH276098   0.542   6.503   4.240 -0.5934  0.4589  0.0215
18228TIP3    H176099   0.491   6.484   4.318 -0.9534  1.9693  0.1934
18228TIP3    H276100   0.633   6.509   4.270 -0.7317  1.0359  0.3290
18229TIP3   OH276101   2.880   0.523  13.563 -0.1534 -0.8911  0.2883
18229TIP3    H176102   2.940   0.594  13.588  0.3345 -1.4507  0.7248
18229TIP3    H276103   2.812   0.525  13.630  0.2280 -1.2700  0.6941
18230TIP3   OH276104   4.712   3.895  14.611 -0.0955  0.0164 -0.4212
18230TIP3    H176105   4.784   3.928  14.557  1.3151 -0.1381  1.2969
18230TIP3    H276106   4.702   3.804  14.585  0.0764  0.1370 -0.9239
18231TIP3   OH276107   6.721   4.022  13.148 -0.1454 -0.2045 -0.5822
18231TIP3    H176108   6.708   4.004  13.241  0.6282  0.4482 -0.3385
18231TIP3    H276109   6.655   3.968  13.104  1.1671 -2.5935  0.1703
18232TIP3   OH276110   3.932   2.923   1.764  0.6433 -0.3086 -0.6381
18232TIP3    H176111   3.925   3.002   1.710 -0.9096  0.4440  0.5595
18232TIP3    H276112   4.018   2.929   1.806  1.3090 -0.2306 -1.9833
18233TIP3   OH276113   0.050   3.508   2.983 -0.5658 -0.1473  0.1048
18233TIP3    H176114  -0.029   3.482   3.030 -0.4085  0.3518  0.6512
18233TIP3    H276115   0.076   3.429   2.935 -1.5334 -0.2482 -0.2908
18234TIP3   OH276116   4.846   5.175  14.208  0.0910  0.2719  0.2233
18234TIP3    H176117   4.868   5.234  14.281 -0.6606  0.3193  0.4162
18234TIP3    H276118   4.831   5.091  14.250 -2.0720  0.6777  0.3642
18235TIP3   OH276119   0.846   2.478  16.126 -0.5578  0.4130  0.3353
18235TIP3    H176120   0.818   2.399  16.172 -2.0331  0.9321  0.3860
18235TIP3    H276121   0.805   2.471  16.040  0.9530  0.1812 -0.4046
18236TIP3   OH276122   0.809   3.479  11.811  0.1552 -0.0160  0.1661
18236TIP3    H176123   0.903   3.467  11.798  0.4585  1.1489  1.0700
18236TIP3    H276124   0.803   3.540  11.886 -1.2201  2.6078 -1.9096
18237TIP3   OH276125   6.164   0.826  13.632 -1.1431  0.6609  0.4080
18237TIP3    H176126   6.188   0.911  13.595  0.4951  0.4189  0.8063
18237TIP3    H276127   6.157   0.768  13.556  0.4846  0.5606  0.2933
18238TIP3   OH276128   0.563   1.456   3.208  0.0123 -0.2171  0.0058
18238TIP3    H176129   0.584   1.432   3.298  0.2002  1.4475  0.4355
18238TIP3    H276130   0.474   1.490   3.212 -0.2287 -0.7432 -0.5733
18239TIP3   OH276131   5.109   6.479  11.021 -0.1507  0.0440  0.0207
18239TIP3    H176132   5.127   6.563  11.063 -0.6362 -0.3140  0.9600
18239TIP3    H276133   5.189   6.429  11.032 -0.0472  0.1871 -0.0730
18240TIP3   OH276134   5.749   5.300  11.836  0.4981  0.4713  0.4050
18240TIP3    H176135   5.690   5.324  11.907  2.1928  0.7706  1.7835
18240TIP3    H276136   5.808   5.234  11.874  2.0891  1.3692 -0.3738
18241TIP3   OH276137   0.287   1.523  15.555  0.4206 -0.0938  0.0921
18241TIP3    H176138   0.261   1.438  15.521  2.3251 -0.4196 -0.6782
18241TIP3    H276139   0.346   1.559  15.488  0.5163  1.3529  0.9047
18242TIP3   OH276140   3.510   3.590   4.446  0.3460  0.7264  0.0368
18242TIP3    H176141   3.483   3.681   4.451  0.1753  0.6193  3.1732
18242TIP3    H276142   3.531   3.566   4.536  2.0322 -1.8674 -0.9134
18243TIP3   OH276143   6.530   5.163  10.718  0.3079  0.1324  0.2068
18243TIP3    H176144   6.504   5.236  10.773  0.8751 -0.1084  0.8087
18243TIP3    H276145   6.586   5.202  10.651 -1.0385  0.5533 -0.7171
18244TIP3   OH276146   3.769   5.720   1.891 -0.2392  0.1595  0.2970
18244TIP3    H176147   3.842   5.658   1.888 -0.9726 -0.7366  0.5019
18244TIP3    H276148   3.735   5.720   1.801 -0.1581  0.3789  0.2652
18245TIP3   OH276149   0.700   0.636   1.422 -0.0796  0.3200  0.2297
18245TIP3    H176150   0.779   0.686   1.407  0.3335 -0.6542 -1.0439
18245TIP3    H276151   0.637   0.699   1.455  0.9596  1.2835  0.4166
18246TIP3   OH276152   5.982   2.283  11.919 -0.2766 -0.0037 -0.2454
18246TIP3    H176153   5.926   2.348  11.961  0.2457  0.6264 -0.5098
18246TIP3    H276154   5.945   2.271  11.832  1.4394  2.3635 -1.4128
18247TIP3   OH276155   5.692   2.973   4.876 -0.1445  0.0474 -0.1088
18247TIP3    H176156   5.752   2.901   4.856  0.6402  0.2000  1.5841
18247TIP3    H276157   5.749   3.047   4.898 -0.9489  0.6331  0.0596
18248TIP3   OH276158   4.343   6.357  14.415  0.6933  0.1573 -0.5864
18248TIP3    H176159   4.298   6.408  14.348 -1.2346 -0.8537 -0.1144
18248TIP3    H276160   4.324   6.403  14.497 -2.5804 -2.0979  0.1043
18249TIP3   OH276161   6.529   1.800   2.720 -0.3678 -0.7086  0.5893
18249TIP3    H176162   6.458   1.747   2.757 -0.8850 -1.1617 -0.9591
18249TIP3    H276163   6.498   1.823   2.632  0.1368  1.6356  0.9640
18250TIP3   OH276164   0.160   3.748   3.037  0.3022 -0.2963 -0.2256
18250TIP3    H176165   0.246   3.737   2.996  0.6033  0.0282  0.3119
18250TIP3    H276166   0.112   3.668   3.016  0.6043 -0.3200 -0.8387
18251TIP3   OH276167   1.830   1.008  14.483  0.8793 -0.2946  0.3700
18251TIP3    H176168   1.891   1.034  14.413  0.1795 -1.1833 -0.6056
18251TIP3    H276169   1.850   1.067  14.556  0.2638  2.1109 -1.2633
18252TIP3   OH276170   4.122   3.914   2.775  0.0189 -0.2843 -0.7239
18252TIP3    H176171   4.046   3.857   2.771  0.6470 -1.0650 -2.5017
18252TIP3    H276172   4.195   3.857   2.798  0.2443  0.2828  0.0172
18253TIP3   OH276173   5.615   2.422  10.917  0.2158 -0.2807  0.1688
18253TIP3    H176174   5.690   2.371  10.887 -1.1363 -2.1410 -0.2112
18253TIP3    H276175   5.541   2.361  10.914 -2.1362  2.3703 -3.1129
18254TIP3   OH276176   4.836   0.094  15.812 -0.4032  0.3946 -0.3539
18254TIP3    H176177   4.900   0.112  15.743 -0.7407  0.0422 -0.7678
18254TIP3    H276178   4.757   0.068  15.765 -0.1002 -1.6659  0.1617
18255TIP3   OH276179   6.737   0.340  11.324 -0.2867  0.4758 -0.1885
18255TIP3    H176180   6.716   0.421  11.369 -2.5911 -0.0746 -0.1448
18255TIP3    H276181   6.809   0.363  11.265 -0.9869  2.6025 -0.2933
18256TIP3   OH276182   3.646   6.219  16.699  0.1689 -0.5164 -0.4005
18256TIP3    H176183   3.739   6.199  16.690  0.6064  0.8706  0.7830
18256TIP3    H276184   3.643   6.310  16.727 -1.3329 -1.5644  3.4918
18257TIP3   OH276185   3.635   2.145   0.813 -0.2109  0.1970 -0.3784
18257TIP3    H176186   3.542   2.128   0.797  0.3373 -3.6245 -0.2761
18257TIP3    H276187   3.643   2.144   0.908 -0.1308  1.3777 -0.3537
18258TIP3   OH276188   3.700   6.649  15.508 -0.6168  0.1595 -0.1749
18258TIP3    H176189   3.639   6.714  15.474 -0.2499 -0.0319 -1.2347
18258TIP3    H276190   3.736   6.607  15.430  1.4603  0.7970  0.3892
18259TIP3   OH276191   2.820   2.962  12.852 -0.1316 -0.0684  0.2529
18259TIP3    H176192   2.768   2.931  12.926 -0.3488  0.2132  0.2242
18259TIP3    H276193   2.755   2.984  12.785  0.0082  0.4407  0.2749
18260TIP3   OH276194   0.222   3.423  11.743  0.1238 -0.3712 -0.7461
18260TIP3    H176195   0.308   3.438  11.783  0.2640  0.0856 -1.1958
18260TIP3    H276196   0.161   3.424  11.816  0.7000 -2.7427 -0.1541
18261TIP3   OH276197   4.518   3.058   0.916 -0.3414  0.2094  0.0991
18261TIP3    H176198   4.556   2.995   0.854  0.3092  0.9058 -0.2306
18261TIP3    H276199   4.476   3.124   0.861  2.1382  2.0464  0.2317
18262TIP3   OH276200   2.885   3.963   4.501 -0.2377 -0.1471  0.0516
18262TIP3    H176201   2.808   4.008   4.535 -0.3784 -0.1627 -0.2449
18262TIP3    H276202   2.946   3.961   4.575 -0.7390 -0.6352  0.4583
18263TIP3   OH276203   5.480   6.882   5.058 -0.2829  0.2254 -0.9518
18263TIP3    H176204   5.478   6.969   5.017 -0.9571  1.5075  1.5914
18263TIP3    H276205   5.395   6.873   5.100  0.0974 -1.3307 -0.4408
18264TIP3   OH276206   6.751   3.218  14.283 -0.4981  0.3080  0.4253
18264TIP3    H176207   6.752   3.126  14.308 -3.2652 -0.8897 -3.0647
18264TIP3    H276208   6.832   3.232  14.235 -1.1559 -1.0988 -1.1660
18265TIP3   OH276209   0.977   0.008   2.762  0.1139 -0.3521  0.0934
18265TIP3    H176210   0.948  -0.051   2.832 -1.3573  0.7913  0.4910
18265TIP3    H276211   0.931  -0.024   2.684  0.1888 -0.4143  0.0749
18266TIP3   OH276212   2.265   3.896  12.449 -0.1311  0.1443  0.3493
18266TIP3    H176213   2.247   3.851  12.531 -0.0298  0.1845  0.3930
18266TIP3    H276214   2.360   3.894  12.439 -0.1726 -0.2694 -0.0013
18267TIP3   OH276215   4.546   3.028   0.103  0.2553  0.1613 -0.9834
18267TIP3    H176216   4.629   3.002   0.142 -0.0184  0.8144  0.0490
18267TIP3    H276217   4.539   3.122   0.119 -1.5890 -0.1841  0.7452
18268TIP3   OH276218   1.127   5.341  10.794 -0.0451 -0.2985  0.3635
18268TIP3    H176219   1.038   5.324  10.827 -0.3670 -0.4210 -0.5510
18268TIP3    H276220   1.117   5.350  10.700  0.8112  0.4594  0.3316
18269TIP3   OH276221   1.568   1.420   0.323 -0.1467 -0.1273 -1.1532
18269TIP3    H176222   1.496   1.470   0.363  1.3365  0.5687  0.8135
18269TIP3    H276223   1.524   1.357   0.267 -2.1713  2.6056 -2.9339
18270TIP3   OH276224   1.079   1.617   5.510  0.8292 -1.2296 -0.2168
18270TIP3    H176225   1.109   1.706   5.493  0.3308 -0.6640  1.6426
18270TIP3    H276226   1.156   1.571   5.542  0.2145 -0.1575  3.2096
18271TIP3   OH276227   6.691   3.209  10.394 -0.0985 -0.0008 -0.6246
18271TIP3    H176228   6.711   3.174  10.307 -1.8353 -0.6980 -0.8006
18271TIP3    H276229   6.607   3.254  10.383  0.7343  1.8822  0.2301
18272TIP3   OH276230   6.451   2.132   0.809  0.1857  0.0266  0.3358
18272TIP3    H176231   6.443   2.191   0.883 -1.0190  1.8467 -1.1337
18272TIP3    H276232   6.511   2.177   0.749  0.8635 -1.2324  0.0315
18273TIP3   OH276233   5.913   3.800  14.830 -0.6374 -0.0755 -0.7041
18273TIP3    H176234   5.848   3.734  14.807  0.4295 -0.9484 -1.3345
18273TIP3    H276235   5.920   3.856  14.753 -0.0660 -0.4711 -0.9415
18274TIP3   OH276236   0.029   6.860  11.724 -0.3982 -0.1615 -0.2617
18274TIP3    H176237  -0.051   6.838  11.676 -0.4721  2.4349 -1.5453
18274TIP3    H276238   0.053   6.947  11.691  3.4489 -1.1449 -0.5539
18275TIP3   OH276239   1.741   5.070   4.222 -0.0805 -0.0272  0.2304
18275TIP3    H176240   1.777   5.001   4.167  2.7171  1.9629 -0.6294
18275TIP3    H276241   1.685   5.120   4.163  1.2616  0.8806 -0.3021
18276TIP3   OH276242   0.504   4.451   4.042  0.2309 -0.2243  0.3863
18276TIP3    H176243   0.560   4.385   4.002  1.2885  0.9637 -0.1477
18276TIP3    H276244   0.420   4.442   3.996  1.1026  0.4113 -1.4065
18277TIP3   OH276245   4.787   4.661  16.622 -0.1513  0.0497 -0.1601
18277TIP3    H176246   4.733   4.733  16.588  0.3581  0.1912 -0.6863
18277TIP3    H276247   4.760   4.652  16.713 -0.0597  1.0535 -0.0225
18278TIP3   OH276248   1.944   2.890   2.740  0.7145  0.1510  0.3402
18278TIP3    H176249   1.977   2.809   2.703  0.3182 -0.1815  0.6946
18278TIP3    H276250   1.863   2.907   2.692  0.9014  0.4481  0.1265
18279TIP3   OH276251   3.341   2.307  12.264 -0.4248 -0.1600  0.3822
18279TIP3    H176252   3.369   2.242  12.328  0.3398 -0.7589 -0.5314
18279TIP3    H276253   3.268   2.352  12.306  0.9212  0.4157  2.2219
18280TIP3   OH276254   2.105   3.438   2.278  0.1331 -0.2333 -0.1414
18280TIP3    H176255   2.115   3.471   2.189  0.6345 -0.4734 -0.1820
18280TIP3    H276256   2.011   3.437   2.294  0.1046  1.6319  0.0257
18281TIP3   OH276257   6.614   6.129  10.853  0.5511  0.3183  0.0346
18281TIP3    H176258   6.519   6.138  10.853  0.4771 -0.0410 -2.2275
18281TIP3    H276259   6.638   6.133  10.946 -1.5430  1.5051  0.5940
18282TIP3   OH276260   5.724   6.769  12.209  0.1819 -0.0092  0.0091
18282TIP3    H176261   5.770   6.766  12.293 -2.0932 -1.4150  1.2997
18282TIP3    H276262   5.700   6.861  12.197 -1.0898 -0.0437  1.8970
18283TIP3   OH276263   3.999   4.503   3.985  0.0224  0.3998 -0.0430
18283TIP3    H176264   3.959   4.427   4.028 -1.2621  1.4234  0.6511
18283TIP3    H276265   3.983   4.489   3.892  2.7729 -1.8164 -0.3121
18284TIP3   OH276266   6.304   3.956  12.675  0.1719 -0.1732 -0.2948
18284TIP3    H176267   6.372   3.940  12.609 -0.0179 -0.0866 -0.5148
18284TIP3    H276268   6.223   3.926  12.633  0.0030  0.1795 -0.2204
18285TIP3   OH276269   2.935   3.437  16.704  0.2123 -0.2866  0.1732
18285TIP3    H176270   3.018   3.419  16.660  0.4088 -0.6510  0.6760
18285TIP3    H276271   2.907   3.352  16.738 -1.0488 -0.4167 -1.1148
18286TIP3   OH276272   5.627   1.633  12.739 -0.0212 -0.1212  0.2959
18286TIP3    H176273   5.533   1.636  12.760  0.1707 -1.6664  1.5261
18286TIP3    H276274   5.664   1.707  12.785 -0.4995 -0.0488  0.5757
18287TIP3   OH276275   4.817   0.598  12.376 -0.1974  0.3935  0.2992
18287TIP3    H176276   4.871   0.607  12.298 -0.8906  0.1292 -0.2150
18287TIP3    H276277   4.806   0.504  12.387  0.4350  0.3943  1.1046
18288TIP3   OH276278   6.169   0.630  12.591  0.4370 -0.1423 -0.0900
18288TIP3    H176279   6.220   0.555  12.558  0.6583  0.1627 -0.4469
18288TIP3    H276280   6.080   0.615  12.557  0.1922 -0.8654  0.8367
18289TIP3   OH276281   0.641   4.357   5.264 -0.5077 -0.8757  0.0088
18289TIP3    H176282   0.559   4.376   5.310 -0.3354  0.6820 -0.2960
18289TIP3    H276283   0.645   4.261   5.262 -3.8558 -1.1667 -2.6393
18290TIP3   OH276284   1.650   1.244   2.259  0.4491  0.2965 -0.1816
18290TIP3    H176285   1.729   1.265   2.209  0.0585  1.4575 -0.3450
18290TIP3    H276286   1.654   1.150   2.271  2.0244  0.3646  0.0876
18291TIP3   OH276287   2.500   2.940   4.096 -0.5817  0.6424  0.0810
18291TIP3    H176288   2.544   2.996   4.032 -0.3296  0.2413 -0.1005
18291TIP3    H276289   2.492   2.995   4.174  1.1590  0.4263  0.4714
18292TIP3   OH276290   3.962   0.174   4.475 -0.0525 -0.1531 -1.2257
18292TIP3    H176291   3.941   0.267   4.464  0.8394  0.1693 -0.3619
18292TIP3    H276292   4.042   0.162   4.424  0.5225 -0.1470 -0.3453
18293TIP3   OH276293   2.338   1.717  11.761  0.5802 -0.2512  0.0092
18293TIP3    H176294   2.399   1.714  11.687 -0.5514  0.0155 -0.9681
18293TIP3    H276295   2.257   1.678  11.727 -0.2773  0.7809  0.7850
18294TIP3   OH276296   1.792   2.418   5.818  0.2317  0.0062  0.2509
18294TIP3    H176297   1.829   2.500   5.786  2.2936 -0.6854  0.7078
18294TIP3    H276298   1.789   2.429   5.913 -0.5740 -0.0278  0.2329
18295TIP3   OH276299   2.102   2.989   5.523 -0.2015  0.6048  0.0514
18295TIP3    H176300   2.036   3.058   5.533 -0.2435  0.2477  3.2582
18295TIP3    H276301   2.087   2.930   5.597  2.6403 -0.4311 -0.0592
18296TIP3   OH276302   6.276   6.792  12.152 -0.1169 -0.3107  0.1464
18296TIP3    H176303   6.212   6.848  12.198  0.6113  0.3376  0.3877
18296TIP3    H276304   6.222   6.736  12.096 -0.8746  0.5727 -0.0385
18297TIP3   OH276305   0.463   2.297  16.306  0.1387 -0.0750 -0.2105
18297TIP3    H176306   0.439   2.213  16.265 -0.9146  0.2175 -0.2006
18297TIP3    H276307   0.456   2.280  16.400 -0.0597  0.0274 -0.2087
18298TIP3   OH276308   0.174   6.490   1.579 -0.2310  0.2701  0.0360
18298TIP3    H176309   0.213   6.533   1.655 -1.2821  0.1572  0.6575
18298TIP3    H276310   0.080   6.494   1.595 -0.5604  1.3907 -1.8779
18299TIP3   OH276311   0.350   6.721  12.643  0.1204  0.3695  0.1245
18299TIP3    H176312   0.334   6.779  12.568  1.2437 -0.7291 -1.0144
18299TIP3    H276313   0.407   6.652  12.609 -1.0274 -1.3376  1.4643
18300TIP3   OH276314   4.548   1.959   3.982  0.0540 -0.9992  0.0924
18300TIP3    H176315   4.554   1.945   3.888 -1.6055  0.4652 -0.2985
18300TIP3    H276316   4.579   2.049   3.995 -1.1520 -0.6373  0.6790
18301TIP3   OH276317   1.647   0.961  14.277 -0.2776 -0.5270  0.0433
18301TIP3    H176318   1.692   0.947  14.194 -1.4626  0.1684 -0.7363
18301TIP3    H276319   1.717   0.970  14.341  0.7005  0.6555 -1.1576
18302TIP3   OH276320   6.529   5.981   4.834 -0.4590  0.2481  0.0682
18302TIP3    H176321   6.511   5.889   4.816  3.4913 -1.5773  3.6011
18302TIP3    H276322   6.468   6.005   4.903  0.3921 -0.7972  1.2302
18303TIP3   OH276323   2.535   1.569   3.741 -0.1510  0.4944  0.0217
18303TIP3    H176324   2.622   1.574   3.781  0.4946 -0.0967 -1.2448
18303TIP3    H276325   2.506   1.479   3.759 -1.0575  1.0412  1.4881
18304TIP3   OH276326   3.473   6.238  12.895  0.6632  0.3013 -0.1840
18304TIP3    H176327   3.390   6.286  12.891  1.1699  1.4956  2.1291
18304TIP3    H276328   3.491   6.214  12.804 -1.6656  0.9397 -0.8779
18305TIP3   OH276329   3.020   2.652  10.407  0.3346 -0.5779  0.0228
18305TIP3    H176330   3.059   2.717  10.350 -0.6653 -0.1481 -0.1890
18305TIP3    H276331   3.078   2.576  10.400  1.1563  0.0547 -0.2196
18306TIP3   OH276332   0.606   6.244   3.523 -0.2650 -0.1197  0.2904
18306TIP3    H176333   0.605   6.327   3.570 -1.8008 -0.0260  0.1213
18306TIP3    H276334   0.618   6.268   3.432  1.0257 -0.2102  0.4121
18307TIP3   OH276335   1.664   5.061  11.837 -0.1459  0.0778 -0.6461
18307TIP3    H176336   1.678   4.978  11.793 -0.8981 -0.5930  0.3225
18307TIP3    H276337   1.729   5.120  11.799  0.4668 -0.9727 -1.2772
18308TIP3   OH276338   0.082   5.218  10.574  0.8164 -0.3556  0.3462
18308TIP3    H176339   0.051   5.128  10.566 -1.6070  0.2314  2.2836
18308TIP3    H276340   0.060   5.258  10.490 -0.0245 -1.0215  0.2365
18309TIP3   OH276341   5.912   4.439   4.311  0.6314  0.3584 -0.1304
18309TIP3    H176342   5.858   4.365   4.341  0.2329  1.0981  1.0372
18309TIP3    H276343   5.849   4.507   4.289  1.0591  1.3916  1.6728
18310TIP3   OH276344   4.127   6.734  12.869 -0.4371 -0.3776  0.1899
18310TIP3    H176345   4.067   6.803  12.899 -0.5204 -0.9688  1.4531
18310TIP3    H276346   4.196   6.732  12.935 -0.8680 -2.0513  0.6208
18311TIP3   OH276347   5.696   2.101   2.603  0.0854 -0.6420  0.0089
18311TIP3    H176348   5.742   2.018   2.591  1.2254  0.2745 -2.9384
18311TIP3    H276349   5.631   2.103   2.533 -2.2131 -0.3798  2.0174
18312TIP3   OH276350   3.106   5.530   0.956 -0.4015  0.2966 -0.2600
18312TIP3    H176351   3.154   5.589   0.898 -0.2708 -0.0318 -0.4872
18312TIP3    H276352   3.171   5.504   1.022 -0.8551  1.6028  0.7441
18313TIP3   OH276353   6.386   6.836   4.644 -0.5100 -0.1088  0.3115
18313TIP3    H176354   6.459   6.810   4.700  0.2841  0.0331 -0.6546
18313TIP3    H276355   6.326   6.881   4.704  0.0604 -0.4486  1.1609
18314TIP3   OH276356   1.515   5.229  13.936 -0.1868 -0.2017 -0.5665
18314TIP3    H176357   1.479   5.246  14.023 -0.0050  0.8509 -0.6758
18314TIP3    H276358   1.439   5.211  13.882 -0.6483  2.1436 -0.8250
18315TIP3   OH276359   5.161   1.878   4.014 -0.3238 -0.0888 -0.2152
18315TIP3    H176360   5.148   1.910   4.104 -1.5510  0.5834 -0.6002
18315TIP3    H276361   5.200   1.952   3.969  0.3579 -0.4526 -0.2251
18316TIP3   OH276362   5.154   5.597   1.355  0.2474  0.2057  0.1382
18316TIP3    H176363   5.199   5.579   1.438  0.2393  0.9105  0.3028
18316TIP3    H276364   5.211   5.660   1.310 -0.0305  0.2602 -0.1389
18317TIP3   OH276365   1.306   4.081   5.125  0.0079 -0.2209 -0.0257
18317TIP3    H176366   1.328   4.002   5.076 -1.9758 -1.0317  0.2706
18317TIP3    H276367   1.220   4.062   5.164 -1.5051  2.7577 -1.5248
18318TIP3   OH276368   3.126   2.118  12.729 -0.4210 -0.3759  0.4931
18318TIP3    H176369   3.201   2.073  12.768 -0.1845 -0.0092  0.4730
18318TIP3    H276370   3.155   2.210  12.722 -0.4797 -0.4232 -0.4870
18319TIP3   OH276371   4.801   5.726   4.296  0.0971  0.2112 -0.0542
18319TIP3    H176372   4.847   5.810   4.295 -0.0036  0.2687 -0.6502
18319TIP3    H276373   4.844   5.675   4.228 -0.9400  0.3976 -0.8854
18320TIP3   OH276374   0.533   1.049   1.815 -0.6411  0.1452  0.3859
18320TIP3    H176375   0.619   1.090   1.822 -1.6696  2.6045 -0.1062
18320TIP3    H276376   0.505   1.037   1.906 -0.3546  0.6704  0.5502
18321TIP3   OH276377   6.122   0.697  13.407  0.5939  0.1116 -0.3232
18321TIP3    H176378   6.027   0.679  13.404 -0.1056  2.5395  2.7433
18321TIP3    H276379   6.161   0.624  13.358 -2.8039 -1.1047 -1.5422
18322TIP3   OH276380   5.042   2.690   6.420 -0.3008  0.2256 -0.7432
18322TIP3    H176381   5.082   2.734   6.345  0.4056 -0.8016 -0.9957
18322TIP3    H276382   4.953   2.668   6.391  0.2851 -1.0204 -1.6492
18323TIP3   OH276383   2.313   3.456   3.454  0.1105  0.1758  0.2253
18323TIP3    H176384   2.267   3.477   3.372 -0.0152  1.4844  0.6102
18323TIP3    H276385   2.325   3.540   3.497 -1.2085 -0.6322  2.3059
18324TIP3   OH276386   5.578   1.384  15.022 -0.0263  0.2128 -0.4140
18324TIP3    H176387   5.483   1.400  15.023  0.1485  1.4190  1.2855
18324TIP3    H276388   5.603   1.397  14.931 -1.5312 -0.4365 -0.9628
18325TIP3   OH276389   4.358   3.932  13.402 -0.4446 -0.1168  0.0446
18325TIP3    H176390   4.316   3.870  13.460  0.2953 -1.0049 -0.3463
18325TIP3    H276391   4.343   3.898  13.314 -1.0699  0.9105 -0.2606
18326TIP3   OH276392   1.147   4.485  11.203  0.1372  0.1890  0.3655
18326TIP3    H176393   1.239   4.485  11.178  0.5281 -0.2258  1.7070
18326TIP3    H276394   1.118   4.575  11.187  1.4780  1.0315  2.1985
18327TIP3   OH276395   2.472   0.251   4.617 -0.0506  0.3445 -0.2922
18327TIP3    H176396   2.386   0.278   4.585 -0.8687 -1.1609  0.5127
18327TIP3    H276397   2.453   0.188   4.686  1.7089 -0.0816 -0.1503
18328TIP3   OH276398   5.543   5.754  15.789  0.0099 -0.0526  0.1171
18328TIP3    H176399   5.508   5.843  15.779 -2.0702 -0.7280  0.8382
18328TIP3    H276400   5.609   5.762  15.858 -1.9761  0.5526  2.0711
18329TIP3   OH276401   1.273   0.915   5.337 -0.6104 -0.6286 -0.0661
18329TIP3    H176402   1.181   0.891   5.335 -0.4052 -1.3889 -0.5302
18329TIP3    H276403   1.318   0.839   5.373  0.0567 -1.0106 -1.6412
18330TIP3   OH276404   0.709   4.651   4.100  0.3404 -0.0265 -0.5112
18330TIP3    H176405   0.679   4.729   4.147 -1.6244 -0.9263 -0.1677
18330TIP3    H276406   0.629   4.615   4.060  1.2027 -1.8008 -0.7286
18331TIP3   OH276407   4.532   0.388   0.805  0.5331 -0.2373  0.2614
18331TIP3    H176408   4.452   0.428   0.773 -1.1101 -1.2320  2.7625
18331TIP3    H276409   4.552   0.319   0.741  0.2697  0.9492 -1.1476
18332TIP3   OH276410   6.791   1.731   4.329 -0.0507 -0.0946  0.1008
18332TIP3    H176411   6.764   1.791   4.398 -0.5125  1.4348 -1.3487
18332TIP3    H276412   6.784   1.782   4.248  2.0150 -1.3157 -0.9377
18333TIP3   OH276413   0.014   5.740   6.204  0.1702 -0.3848 -1.3598
18333TIP3    H176414   0.100   5.756   6.241  0.0240 -0.4580 -0.9863
18333TIP3    H276415  -0.026   5.827   6.199 -0.0292 -0.4388 -0.7969
18334TIP3   OH276416   2.243   6.269   4.924  0.2984  0.2397 -0.4517
18334TIP3    H176417   2.157   6.269   4.966 -0.4307 -1.5476 -1.8105
18334TIP3    H276418   2.303   6.236   4.991 -0.3973 -0.2072 -0.0452
18335TIP3   OH276419   2.628   0.196  11.775 -0.1002 -0.0710  0.5823
18335TIP3    H176420   2.664   0.187  11.863 -0.3825 -0.6244  0.6437
18335TIP3    H276421   2.558   0.260  11.784  1.3735  1.6547  0.3033
18336TIP3   OH276422   1.967   3.207   4.714 -0.0857  0.2963 -0.6243
18336TIP3    H176423   1.949   3.157   4.635  0.7774 -0.3355 -0.4322
18336TIP3    H276424   1.994   3.141   4.778  0.4122  0.9351 -0.1717
18337TIP3   OH276425   3.944   3.438  15.547  0.1439 -0.6677 -0.1088
18337TIP3    H176426   3.992   3.496  15.488 -1.1821  0.4159 -0.1861
18337TIP3    H276427   3.952   3.351  15.508 -0.7975  0.0383 -1.9957
18338TIP3   OH276428   2.564   3.268   6.056 -0.3977 -0.0249  0.4142
18338TIP3    H176429   2.474   3.263   6.024 -0.3359 -0.4495  0.3125
18338TIP3    H276430   2.557   3.250   6.150 -0.4112 -0.1301  0.3934
18339TIP3   OH276431   5.268   0.340   3.572  0.2512  0.0223  0.2452
18339TIP3    H176432   5.363   0.332   3.578  0.7483  0.5711 -4.0186
18339TIP3    H276433   5.239   0.258   3.533 -0.8926  0.2777  0.5146
18340TIP3   OH276434   2.781   0.469  15.105 -0.4363 -0.0563 -0.2403
18340TIP3    H176435   2.725   0.482  15.028 -0.9108 -0.2097  0.0736
18340TIP3    H276436   2.810   0.557  15.128 -1.0303  0.0995 -0.0531
18341TIP3   OH276437   1.392   6.687   2.106 -0.7805  0.1056 -0.1157
18341TIP3    H176438   1.435   6.721   2.027  0.4137 -0.4553  0.2655
18341TIP3    H276439   1.374   6.765   2.158 -0.2722  0.3694 -0.3230
18342TIP3   OH276440   0.989   3.917   1.188  0.1770  0.0403  0.2208
18342TIP3    H176441   0.905   3.878   1.167  0.1210  1.3836 -2.5559
18342TIP3    H276442   1.054   3.853   1.159  0.1014 -0.0332  0.2177
18343TIP3   OH276443   3.678   6.579   4.255 -0.1536  0.2862  0.5866
18343TIP3    H176444   3.768   6.589   4.289 -0.1082  0.5000  0.4015
18343TIP3    H276445   3.638   6.514   4.313  0.2150 -0.0306  0.4892
18344TIP3   OH276446   6.099   3.228   2.019  0.5562 -0.6097  0.0025
18344TIP3    H176447   6.043   3.283   2.073  0.8197 -0.2677 -0.0655
18344TIP3    H276448   6.122   3.284   1.945  1.8365 -0.3813  0.5492
18345TIP3   OH276449   4.076   3.466  12.435 -0.2368 -0.4411  0.6112
18345TIP3    H176450   4.137   3.537  12.420 -0.2604 -0.6111 -0.3637
18345TIP3    H276451   4.008   3.478  12.369 -0.5743 -1.0020  0.8422
18346TIP3   OH276452   0.906   0.593   3.060  0.1213 -0.4043 -0.4918
18346TIP3    H176453   0.856   0.516   3.087  0.6681 -0.8512 -0.7480
18346TIP3    H276454   0.955   0.564   2.983  1.0655 -0.0840 -0.0239
18347TIP3   OH276455   1.428   5.724   5.442  0.1439 -0.5471  0.3132
18347TIP3    H176456   1.460   5.650   5.390 -1.0065 -0.3511 -0.7188
18347TIP3    H276457   1.478   5.719   5.523  1.2044 -1.5288 -0.3623
18348TIP3   OH276458   3.804   6.625   5.203 -0.5218 -0.6396  0.6945
18348TIP3    H176459   3.756   6.604   5.283 -1.0438  0.2420  0.6332
18348TIP3    H276460   3.860   6.698   5.228  0.3811 -1.2955  0.6128
18349TIP3   OH276461   2.684   1.049   3.215  0.2910  0.4732 -0.5193
18349TIP3    H176462   2.681   1.028   3.309  1.7641  0.7921 -0.3683
18349TIP3    H276463   2.601   1.018   3.180  0.5157 -1.4399  0.5282
18350TIP3   OH276464   5.036   4.703   4.694 -0.0923 -0.0675  0.1841
18350TIP3    H176465   4.970   4.758   4.651  0.3506 -0.8603 -1.6030
18350TIP3    H276466   5.059   4.638   4.627  2.0183 -0.2115  1.0005
18351TIP3   OH276467   3.473   0.541  15.538 -0.0344 -0.1609  0.3036
18351TIP3    H176468   3.565   0.526  15.516 -0.0135 -0.7104  0.7618
18351TIP3    H276469   3.431   0.554  15.453  0.6265  1.0844  0.1422
18352TIP3   OH276470   6.756   0.517  10.743  0.0302 -0.0300  0.2041
18352TIP3    H176471   6.794   0.526  10.656  0.2265 -1.8506  0.0657
18352TIP3    H276472   6.822   0.551  10.803  1.4458 -2.0577 -0.1220
18353TIP3   OH276473   2.691   6.658  15.581  0.0810 -0.0381  0.0850
18353TIP3    H176474   2.724   6.592  15.643  0.3053 -1.1239 -1.1428
18353TIP3    H276475   2.624   6.612  15.531 -0.6051  1.0398 -0.0186
18354TIP3   OH276476   1.857   6.156  14.345 -0.2972 -1.0149  0.5010
18354TIP3    H176477   1.883   6.128  14.257  0.8700 -0.6697  0.7138
18354TIP3    H276478   1.859   6.075  14.396 -0.5907 -1.1519  0.3001
18355TIP3   OH276479   3.785   3.849  16.708  0.2781 -0.6134 -0.0024
18355TIP3    H176480   3.817   3.854  16.618  1.2088  0.5185  0.3716
18355TIP3    H276481   3.813   3.931  16.748 -0.1227 -1.1024  1.3276
18356TIP3   OH276482   3.016   1.483  11.690  0.3142  0.2517 -0.0426
18356TIP3    H176483   3.072   1.550  11.729  0.2301 -0.1303  0.7487
18356TIP3    H276484   2.959   1.454  11.761  1.0023 -1.3555 -0.0883
18357TIP3   OH276485   2.414   0.799  16.696  0.1239  0.0157 -0.1334
18357TIP3    H176486   2.372   0.827  16.777 -1.4516 -2.1879 -0.0831
18357TIP3    H276487   2.379   0.711  16.680  0.4616  0.3185 -3.1570
18358TIP3   OH276488   5.602   6.065   3.610 -0.6775  0.0421 -0.5701
18358TIP3    H176489   5.542   6.109   3.670 -0.0284  1.7108 -1.0722
18358TIP3    H276490   5.598   6.118   3.530  1.4504  0.1963 -0.6176
18359TIP3   OH276491   2.325   2.702   1.463 -0.3159 -0.0950 -0.7294
18359TIP3    H176492   2.340   2.784   1.511  0.1112 -0.3688 -0.3895
18359TIP3    H276493   2.249   2.720   1.408 -1.5098 -0.1175  0.8543
18360TIP3   OH276494   1.694   3.606  10.858  0.2504  0.2635  0.3893
18360TIP3    H176495   1.636   3.530  10.866  1.2951 -0.5590  0.4870
18360TIP3    H276496   1.699   3.642  10.946  1.1566 -0.6603  0.7391
18361TIP3   OH276497   1.731   3.763   4.202  0.5733 -0.1901 -1.1928
18361TIP3    H176498   1.721   3.671   4.178 -1.4488 -0.8051  1.5959
18361TIP3    H276499   1.646   3.802   4.183 -0.1535 -0.0600  1.8676
18362TIP3   OH276500   6.307   2.742  16.086  0.3062 -0.3485  0.3450
18362TIP3    H176501   6.319   2.834  16.105 -0.5723 -0.6725  2.8245
18362TIP3    H276502   6.394   2.710  16.063  0.5877  1.0885 -0.7456
18363TIP3   OH276503   0.258   4.998  14.245 -0.0986  0.4488  0.1140
18363TIP3    H176504   0.233   5.004  14.153  2.0134  1.7787 -0.4377
18363TIP3    H276505   0.311   5.076  14.261  0.8335 -0.5014  2.0451
18364TIP3   OH276506   0.955   3.245   3.809  0.0633 -0.4053  0.7755
18364TIP3    H176507   1.005   3.166   3.791 -1.8542 -1.7249  0.9726
18364TIP3    H276508   0.873   3.234   3.761 -1.0921  0.4951  2.3999
18365TIP3   OH276509   5.839   0.834   4.157  0.9530  0.5103  0.0660
18365TIP3    H176510   5.865   0.925   4.164  0.7937  0.6534 -1.1266
18365TIP3    H276511   5.907   0.786   4.205  1.5184  1.1669 -0.0677
18366TIP3   OH276512   0.621   4.997   3.952 -0.0948  0.3455  0.0275
18366TIP3    H176513   0.659   5.025   4.035 -0.5698 -0.2581  0.4660
18366TIP3    H276514   0.607   5.077   3.903  1.6732  0.5913 -0.1264
18367TIP3   OH276515   0.735   3.992   3.990 -0.6523 -0.0019  0.2443
18367TIP3    H176516   0.749   3.915   4.045  1.0964 -0.0794 -0.2631
18367TIP3    H276517   0.739   4.066   4.051  0.7576 -0.1231  0.3345
18368TIP3   OH276518   1.651   4.949   1.320 -0.1531 -0.1735 -0.3381
18368TIP3    H176519   1.724   4.949   1.257 -0.4268 -0.7763 -0.6551
18368TIP3    H276520   1.647   4.860   1.352  0.0227  0.1473  0.5907
18369TIP3   OH276521   3.312   2.888  13.482 -0.7095 -0.3729  0.4890
18369TIP3    H176522   3.266   2.808  13.456 -0.4418 -0.7352  1.1209
18369TIP3    H276523   3.381   2.898  13.417  0.8479 -2.0418  1.7842
18370TIP3   OH276524   6.552   5.484  16.631 -0.0551 -0.0813  0.1602
18370TIP3    H176525   6.458   5.469  16.620 -0.6359  2.3715  0.9302
18370TIP3    H276526   6.570   5.455  16.720  0.1490 -1.3901 -0.2899
18371TIP3   OH276527   3.888   6.519   1.836 -0.5562  0.1978  0.2774
18371TIP3    H176528   3.827   6.517   1.762  0.1529 -1.3613 -0.3164
18371TIP3    H276529   3.869   6.440   1.886  0.0587  0.3947  0.8483
18372TIP3   OH276530   4.425   6.275   5.229 -0.0212  0.2888  1.0059
18372TIP3    H176531   4.464   6.294   5.314  0.4048  0.0951  0.8557
18372TIP3    H276532   4.331   6.267   5.247  0.0246  0.5746  1.3994
18373TIP3   OH276533   2.749   4.561   4.285  0.2587 -0.4175 -0.2875
18373TIP3    H176534   2.782   4.483   4.329  0.5220 -0.5565 -0.7383
18373TIP3    H276535   2.747   4.628   4.354  1.2321 -0.4731 -0.1887
18374TIP3   OH276536   5.746   1.782  14.316 -0.2726  0.1214  0.0226
18374TIP3    H176537   5.788   1.748  14.395  0.0691 -0.5712 -0.4525
18374TIP3    H276538   5.677   1.719  14.296 -2.5508  1.9291  1.5763
18375TIP3   OH276539   3.968   2.124   1.418  0.7028 -0.1222  0.4088
18375TIP3    H176540   4.021   2.078   1.353 -1.9790  0.1692 -2.1741
18375TIP3    H276541   4.010   2.209   1.428  0.7333  0.1339 -1.6340
18376TIP3   OH276542   4.457   1.936  16.143 -0.4803 -0.2052  0.2301
18376TIP3    H176543   4.400   1.879  16.092 -0.2509 -1.0285  0.8618
18376TIP3    H276544   4.472   1.888  16.225  0.8580  0.1110  0.2046
18377TIP3   OH276545   4.430   5.142  16.174 -1.0389  0.4400  0.5287
18377TIP3    H176546   4.428   5.126  16.269 -1.7419  1.4205  0.6981
18377TIP3    H276547   4.338   5.144  16.148 -1.0638  3.3232  0.4244
18378TIP3   OH276548   3.873   4.474  14.380 -0.3057  0.1075  0.2221
18378TIP3    H176549   3.931   4.549  14.368  1.5830 -1.4003 -0.6054
18378TIP3    H276550   3.847   4.478  14.472  1.1716  0.7875  0.6355
18379TIP3   OH276551   4.689   2.820   4.723 -0.4598  0.2721  0.1839
18379TIP3    H176552   4.783   2.823   4.703 -0.6124  0.2967 -0.5507
18379TIP3    H276553   4.656   2.745   4.673 -0.9815  0.7654 -0.2191
18380TIP3   OH276554   2.771   3.658   2.923 -0.1240  0.2914  0.1311
18380TIP3    H176555   2.757   3.606   2.844 -1.2949  0.0729  0.4722
18380TIP3    H276556   2.758   3.748   2.894 -1.1844  0.1722  0.1894
18381TIP3   OH276557   4.584   1.895   4.338  0.4861  0.1654 -0.3619
18381TIP3    H176558   4.596   1.802   4.358 -1.0530  0.2279  1.0400
18381TIP3    H276559   4.489   1.907   4.335  0.6460  1.8285  0.2060
18382TIP3   OH276560   4.084   2.486   0.084  0.1846  0.2509 -0.3411
18382TIP3    H176561   4.154   2.548   0.104  1.2251 -0.8275 -0.5186
18382TIP3    H276562   4.121   2.400   0.103 -1.0195 -0.3736 -0.6568
18383TIP3   OH276563   6.868   1.893  12.141  0.1245  0.3330 -0.0554
18383TIP3    H176564   6.890   1.851  12.223  1.0711  1.5864  0.3572
18383TIP3    H276565   6.947   1.887  12.088  0.2162  1.3912 -0.0614
18384TIP3   OH276566   4.536   4.316   4.766  0.5144  0.5419  0.4342
18384TIP3    H176567   4.469   4.248   4.770 -0.2675  1.2455 -0.3516
18384TIP3    H276568   4.557   4.324   4.673  1.1686  0.8438  0.5994
18385TIP3   OH276569   5.970   6.448   5.050  0.2944 -0.1564 -0.0564
18385TIP3    H176570   5.874   6.444   5.049  0.1712 -1.1199  3.6430
18385TIP3    H276571   5.991   6.532   5.009 -2.0285 -0.2741 -1.6865
18386TIP3   OH276572   3.835   0.035   3.192 -0.4486  0.3687 -0.2748
18386TIP3    H176573   3.862  -0.055   3.206 -0.1036  0.2949 -1.3066
18386TIP3    H276574   3.758   0.047   3.247  0.1256 -0.2265  0.6825
18387TIP3   OH276575   6.168   4.406  12.206  0.3168  0.0265 -0.0058
18387TIP3    H176576   6.115   4.484  12.189  0.5238 -0.1212 -1.4474
18387TIP3    H276577   6.117   4.334  12.167  0.9230 -0.3069 -0.1947
18388TIP3   OH276578   4.271   3.270   5.675  0.2069  0.1042  0.2002
18388TIP3    H176579   4.264   3.342   5.738  3.3230  1.1789 -0.5024
18388TIP3    H276580   4.316   3.200   5.723 -1.9780 -1.0924  0.6017
18389TIP3   OH276581   5.514   1.913  11.620 -0.2738 -0.5000 -0.0047
18389TIP3    H176582   5.487   1.859  11.546  0.3928 -1.7008  0.5919
18389TIP3    H276583   5.600   1.947  11.595 -0.8828  0.6817 -0.5629
18390TIP3   OH276584   4.937   6.560  11.559  0.3997  1.2077  0.4087
18390TIP3    H176585   4.900   6.481  11.520  1.6581 -0.0756  1.6668
18390TIP3    H276586   4.914   6.553  11.652 -1.0502  3.3065  0.2754
18391TIP3   OH276587   0.041   1.296   5.575  0.0667  0.0291 -0.3897
18391TIP3    H176588  -0.026   1.228   5.567 -0.3106  0.5492 -2.1780
18391TIP3    H276589  -0.008   1.378   5.569  0.6513  0.4640  0.5421
18392TIP3   OH276590   0.610   5.083  15.950  0.4092 -0.7516  0.0974
18392TIP3    H176591   0.682   5.037  15.907 -0.1835 -0.2607 -1.5117
18392TIP3    H276592   0.632   5.175  15.942  1.0546 -0.6516  2.3282
18393TIP3   OH276593   3.758   1.037   3.495  0.0388  0.2779  0.4011
18393TIP3    H176594   3.824   1.010   3.559 -0.3184  0.6697  0.9550
18393TIP3    H276595   3.717   0.956   3.467 -0.1540  0.1322  1.0768
18394TIP3   OH276596   5.372   3.894   5.158 -0.0080 -0.6786 -0.2780
18394TIP3    H176597   5.374   3.818   5.216  0.0914 -0.1869  0.3693
18394TIP3    H276598   5.427   3.959   5.201 -0.7410  0.0544 -0.4173
18395TIP3   OH276599   2.810   3.858   1.041  0.8607  0.3650  0.0820
18395TIP3    H176600   2.809   3.934   1.099  1.8910  0.2289  0.2939
18395TIP3    H276601   2.804   3.894   0.953 -1.4768  0.5459  0.2381
18396TIP3   OH276602   4.034   0.128   3.028  0.4785 -0.3724  0.5056
18396TIP3    H176603   4.124   0.096   3.033  0.3020 -1.1663 -0.9354
18396TIP3    H276604   3.986   0.077   3.094  1.1239  0.3465  1.5759
18397TIP3   OH276605   0.742   6.701  11.220  0.4602  0.6276  0.2307
18397TIP3    H176606   0.680   6.773  11.207  1.3515  1.4900  0.6859
18397TIP3    H276607   0.818   6.726  11.168  0.9024  0.1747  0.6598
18398TIP3   OH276608   1.933   6.556  14.386 -0.6811 -0.1029  0.7079
18398TIP3    H176609   1.978   6.565  14.470 -1.6800  3.0744  1.0349
18398TIP3    H276610   1.878   6.478  14.397  0.3209 -0.6185  2.4392
18399TIP3   OH276611   1.452   1.616  12.682 -0.6626 -0.2208  0.8671
18399TIP3    H176612   1.525   1.674  12.701  1.3052 -1.4842 -2.1068
18399TIP3    H276613   1.452   1.553  12.754 -0.3326  1.1052  2.0782
18400TIP3   OH276614   4.497   6.441  11.285 -0.5664 -0.1721  0.0624
18400TIP3    H176615   4.565   6.374  11.289 -2.2272 -1.9298 -0.0303
18400TIP3    H276616   4.442   6.425  11.361 -0.9240  1.2000  0.1297
18401TIP3   OH276617   4.918   0.084   1.172  0.5950  0.0419 -0.1914
18401TIP3    H176618   4.856   0.035   1.226 -0.4602  1.4141 -0.1064
18401TIP3    H276619   4.998   0.087   1.224  1.2694 -2.9007 -0.8551
18402TIP3   OH276620   6.404   1.519   1.989 -0.0992 -0.4358 -0.5899
18402TIP3    H176621   6.385   1.580   1.918  1.2622 -0.7232 -1.2418
18402TIP3    H276622   6.457   1.569   2.051 -0.4552 -0.4669 -0.2555
18403TIP3   OH276623   3.546   3.970  12.302 -0.4367 -0.1578 -0.2239
18403TIP3    H176624   3.590   3.951  12.219 -0.5403  1.0113 -0.5695
18403TIP3    H276625   3.486   4.042  12.281 -1.2187 -0.5411  0.6401
18404TIP3   OH276626   3.673   3.009   4.319  0.2350 -0.1316  0.2178
18404TIP3    H176627   3.750   3.056   4.349  1.2302 -1.1266 -0.6727
18404TIP3    H276628   3.661   2.938   4.382  1.8245 -1.7133 -1.1287
18405TIP3   OH276629   1.903   5.660  13.352 -0.4950  0.0985 -0.5184
18405TIP3    H176630   1.994   5.629  13.354 -0.2198  0.8590  1.7724
18405TIP3    H276631   1.861   5.616  13.425 -1.4560  1.2444 -0.3537
18406TIP3   OH276632   5.064   4.335   4.241  0.1474  0.3467 -0.0267
18406TIP3    H176633   5.050   4.265   4.305  1.3539  1.0477  1.0718
18406TIP3    H276634   5.060   4.292   4.156  0.6720 -1.0204  0.6153
18407TIP3   OH276635   0.676   0.590   6.245 -0.1823 -0.5615 -0.3905
18407TIP3    H176636   0.665   0.509   6.195 -2.7141  0.6977 -2.0651
18407TIP3    H276637   0.598   0.642   6.225  0.9672  1.9966  1.2262
18408TIP3   OH276638   1.218   6.176  16.459 -0.3881  0.2594 -0.8863
18408TIP3    H176639   1.246   6.205  16.372  0.3907 -0.5130 -0.9097
18408TIP3    H276640   1.132   6.216  16.471 -0.5372  0.3281 -2.0445
18409TIP3   OH276641   2.733   5.106  13.005  0.3029  0.0807 -0.4033
18409TIP3    H176642   2.732   5.193  13.046 -0.5712 -1.1482  2.4458
18409TIP3    H276643   2.675   5.053  13.060 -0.0830 -2.0705 -2.6965
18410TIP3   OH276644   0.970   3.607  15.766 -0.2478  0.1776 -0.3249
18410TIP3    H176645   1.015   3.649  15.692 -0.8239 -1.0486 -1.4040
18410TIP3    H276646   0.963   3.676  15.832  1.6442  0.8850 -0.7991
18411TIP3   OH276647   2.398   1.468  13.723 -0.1749  0.0493 -0.1655
18411TIP3    H176648   2.446   1.501  13.798 -4.2591  0.8536  2.3861
18411TIP3    H276649   2.356   1.545  13.685 -1.2590 -0.8254 -0.8225
18412TIP3   OH276650   5.480   1.821   2.808 -0.6397 -0.4856 -0.1119
18412TIP3    H176651   5.432   1.903   2.792  2.0735  0.9486 -1.6309
18412TIP3    H276652   5.462   1.768   2.730  1.1523  0.5978 -1.3336
18413TIP3   OH276653   2.411   4.946  14.688  0.2212 -0.1791  0.1677
18413TIP3    H176654   2.419   4.882  14.617 -0.5114 -1.4278  1.1648
18413TIP3    H276655   2.455   4.904  14.762 -1.4111 -0.1136  1.2040
18414TIP3   OH276656   2.703   2.272   0.390  0.6340  0.4511 -0.2221
18414TIP3    H176657   2.707   2.181   0.419 -1.7169  0.2764 -0.2035
18414TIP3    H276658   2.721   2.323   0.469 -0.6730 -0.0366  0.4296
18415TIP3   OH276659   0.243   0.603   1.371 -0.0278  0.0319 -0.0352
18415TIP3    H176660   0.280   0.550   1.442  0.1347  0.0713 -0.0886
18415TIP3    H276661   0.178   0.546   1.329  1.7199 -0.9843 -1.5280
18416TIP3   OH276662   4.590   5.199  12.655 -0.5099 -0.2732  1.1027
18416TIP3    H176663   4.558   5.283  12.687 -1.7349 -0.0496 -0.5372
18416TIP3    H276664   4.553   5.134  12.715 -2.6973  0.1232  0.2901
18417TIP3   OH276665   3.644   4.540  14.094 -0.0925  0.7007  0.1779
18417TIP3    H176666   3.610   4.501  14.014  1.3154  0.7095 -0.4470
18417TIP3    H276667   3.617   4.479  14.164 -2.4630  1.3509 -0.0726
18418TIP3   OH276668   4.720   3.072  15.298  0.3059 -0.2034  0.0402
18418TIP3    H176669   4.632   3.079  15.259  0.3012  0.6235  0.1853
18418TIP3    H276670   4.720   3.136  15.369  1.3006  0.4038 -0.4869
18419TIP3   OH276671   0.056   0.269  11.554 -0.3491 -0.3058  0.3373
18419TIP3    H176672  -0.035   0.300  11.556 -0.9372 -1.9706  1.7671
18419TIP3    H276673   0.059   0.210  11.479 -0.6930 -0.9104  0.7929
18420TIP3   OH276674   3.818   6.334   2.990  0.2237 -0.0009  0.1831
18420TIP3    H176675   3.911   6.339   3.013  0.3401  1.1524 -0.4420
18420TIP3    H276676   3.787   6.425   2.994 -1.2761 -0.5262  1.8768
18421TIP3   OH276677   2.521   3.524  11.806  0.2987 -0.5162  0.7908
18421TIP3    H176678   2.486   3.561  11.887  0.7816  0.2626  0.6508
18421TIP3    H276679   2.463   3.558  11.737  0.4072 -0.4771  0.7188
18422TIP3   OH276680   5.277   2.659   5.207  0.1124 -0.1816 -0.2381
18422TIP3    H176681   5.208   2.673   5.142 -0.0495 -0.2946 -0.0895
18422TIP3    H276682   5.273   2.565   5.227  0.3906 -0.2143 -0.3193
18423TIP3   OH276683   1.163   1.570  12.104 -0.1953  0.4364  0.1012
18423TIP3    H176684   1.073   1.602  12.101 -0.6968 -0.3827  3.1561
18423TIP3    H276685   1.216   1.645  12.077 -1.7432  1.0922 -1.2245
18424TIP3   OH276686   3.413   5.774   3.304 -0.5056  0.3580 -0.2368
18424TIP3    H176687   3.436   5.695   3.256  0.8410  0.5435  0.0382
18424TIP3    H276688   3.364   5.827   3.242  1.5468  0.7859 -1.6185
18425TIP3   OH276689   2.419   0.408  10.721 -0.4164  0.3552 -0.2517
18425TIP3    H176690   2.472   0.345  10.771 -0.1388  1.1781  0.5279
18425TIP3    H276691   2.362   0.448  10.787 -0.8719  0.6294 -0.8078
18426TIP3   OH276692   2.700   1.469  11.562 -0.6306  0.0422 -0.3100
18426TIP3    H176693   2.748   1.546  11.594 -1.0069 -0.6078  1.9742
18426TIP3    H276694   2.621   1.504  11.523 -0.7696  0.8428  0.6582
18427TIP3   OH276695   4.660   5.238  16.057 -0.0697 -0.1698 -0.2564
18427TIP3    H176696   4.658   5.214  15.964  0.0301  0.4655 -0.4264
18427TIP3    H276697   4.581   5.197  16.094  1.1367 -2.5072 -0.0764
18428TIP3   OH276698   0.623   0.061   0.233 -0.6783  0.3436  0.0785
18428TIP3    H176699   0.683   0.021   0.296 -0.1800  0.2026 -0.4789
18428TIP3    H276700   0.602  -0.010   0.172 -3.2992 -0.2983  1.5808
18429TIP3   OH276701   5.952   2.985   0.063 -0.4659  0.5247  0.0803
18429TIP3    H176702   6.014   3.057   0.052 -0.5296  0.7818  1.2357
18429TIP3    H276703   5.995   2.909   0.023  0.7742  0.6078  1.1875
18430TIP3   OH276704   3.214   5.481  16.047  0.0543 -0.1286  0.5052
18430TIP3    H176705   3.213   5.559  15.992 -1.2546 -0.4617 -0.0009
18430TIP3    H276706   3.298   5.439  16.030  1.1295  1.5756  1.4134
18431TIP3   OH276707   6.893   1.408  15.593 -1.0052  0.5036 -0.4803
18431TIP3    H176708   6.929   1.430  15.679  1.2071 -2.1226 -0.5745
18431TIP3    H276709   6.804   1.379  15.611 -0.6434  0.1669  0.9261
18432TIP3   OH276710   4.785   2.292  14.898  0.1621 -0.1568  0.3744
18432TIP3    H176711   4.775   2.212  14.846 -0.7110 -1.3941  2.3043
18432TIP3    H276712   4.742   2.360  14.846 -1.1144 -1.4222 -0.3026
18433TIP3   OH276713   6.166   3.323   4.589  0.2343  0.1375 -0.0322
18433TIP3    H176714   6.196   3.410   4.615  1.5489  0.2656 -1.7937
18433TIP3    H276715   6.151   3.330   4.495 -1.0541 -1.1843  0.0329
18434TIP3   OH276716   3.651   4.316  10.275 -0.3037  0.1852  0.7173
18434TIP3    H176717   3.598   4.386  10.239  1.3204  1.3988  0.5726
18434TIP3    H276718   3.720   4.360  10.324  1.2547 -1.2512 -0.0428
18435TIP3   OH276719   0.262   5.304  15.525 -0.4391 -0.0518 -0.2779
18435TIP3    H176720   0.205   5.271  15.594 -1.8504  0.3523 -1.2151
18435TIP3    H276721   0.255   5.240  15.454  0.0473  0.1421 -0.5105
18436TIP3   OH276722   1.784   1.357   3.048  0.1561 -0.4691  0.7011
18436TIP3    H176723   1.755   1.448   3.049  0.1876 -0.3515 -1.7778
18436TIP3    H276724   1.788   1.331   3.140  1.5029  2.4427  1.5575
18437TIP3   OH276725   2.134   1.734  11.442  0.0657 -0.1616  0.1508
18437TIP3    H176726   2.080   1.683  11.382  1.7669 -0.8654 -0.8316
18437TIP3    H276727   2.166   1.671  11.506  0.3869  0.0853  0.2402
18438TIP3   OH276728   0.832   4.953  11.643  0.0758 -0.0703 -0.3952
18438TIP3    H176729   0.824   5.018  11.713  0.3856  2.7822 -2.8420
18438TIP3    H276730   0.748   4.906  11.644  0.0750 -0.1153  1.8130
18439TIP3   OH276731   1.294   1.270  15.389  0.2296  0.0811 -0.0360
18439TIP3    H176732   1.386   1.254  15.410  0.0854 -0.3192  0.3013
18439TIP3    H276733   1.293   1.359  15.353  0.9312 -0.3746 -1.2229
18440TIP3   OH276734   5.480   2.801  15.206 -0.0572  0.3458 -0.3525
18440TIP3    H176735   5.413   2.847  15.255 -2.4487 -0.0346 -2.9825
18440TIP3    H276736   5.559   2.810  15.258 -1.5240  3.1289  1.6310
18441TIP3   OH276737   4.847   3.795  10.969 -0.1759  0.1064 -0.1050
18441TIP3    H176738   4.934   3.834  10.962 -0.4604  0.8122  0.1413
18441TIP3    H276739   4.855   3.710  10.927  0.5711  0.2667 -0.3023
18442TIP3   OH276740   4.901   6.113   0.872  0.4055 -0.0577  0.1996
18442TIP3    H176741   4.995   6.127   0.859  1.0062 -1.9366  1.9062
18442TIP3    H276742   4.860   6.191   0.836  2.5886  0.6712 -0.9100
18443TIP3   OH276743   2.673   0.481   3.720 -0.4603  0.5299 -0.3353
18443TIP3    H176744   2.690   0.403   3.773 -0.6846  0.2223 -0.7105
18443TIP3    H276745   2.637   0.545   3.781  1.6820  1.0845  0.4275
18444TIP3   OH276746   2.482   4.842  12.481  0.1585  0.1786  0.1447
18444TIP3    H176747   2.461   4.750  12.494 -0.2828  0.2954  0.2477
18444TIP3    H276748   2.558   4.858  12.538 -0.9061  0.3460  1.5597
18445TIP3   OH276749   6.886   4.877  12.087 -0.3698  0.3347 -0.2138
18445TIP3    H176750   6.916   4.849  12.174 -2.0347 -0.5505  0.1297
18445TIP3    H276751   6.907   4.804  12.029 -2.3683 -0.6471  0.1795
18446TIP3   OH276752   2.298   3.531   1.447 -0.0115 -0.1001 -0.6976
18446TIP3    H176753   2.231   3.464   1.429 -0.4335  0.5757 -1.7529
18446TIP3    H276754   2.305   3.533   1.543 -1.1763 -0.5015 -0.5896
18447TIP3   OH276755   4.513   0.205   2.239  0.1690  0.0213  0.3475
18447TIP3    H176756   4.498   0.297   2.222  0.7317 -0.1950 -1.4492
18447TIP3    H276757   4.426   0.171   2.261 -0.2761  0.7229 -0.2711
18448TIP3   OH276758   5.283   5.347   5.718 -0.0957  0.2600  0.6006
18448TIP3    H176759   5.217   5.347   5.787  0.2589 -0.1640  0.9529
18448TIP3    H276760   5.285   5.256   5.687  3.2331 -0.8804  3.4851
18449TIP3   OH276761   4.352   0.893  16.191 -0.0155  0.1295 -0.2655
18449TIP3    H176762   4.278   0.891  16.130 -2.1937 -1.2736  2.1481
18449TIP3    H276763   4.404   0.816  16.168 -0.2749  0.1476 -0.9431
18450TIP3   OH276764   6.713   5.017   3.863  0.3760  0.0829  0.1116
18450TIP3    H176765   6.716   5.097   3.914  0.8575  0.8143 -1.0291
18450TIP3    H276766   6.681   5.044   3.777 -2.2152 -1.3988  0.4719
18451TIP3   OH276767   4.384   4.043   1.956  0.1929 -0.6671 -0.2345
18451TIP3    H176768   4.367   4.003   1.870  0.7556 -2.6575  0.5123
18451TIP3    H276769   4.470   4.009   1.981  0.4648  0.6423  0.7227
18452TIP3   OH276770   0.953   6.884   4.203  0.2505 -0.5702 -0.4015
18452TIP3    H176771   0.988   6.796   4.194  2.1331  0.1892 -1.0955
18452TIP3    H276772   1.023   6.933   4.247 -0.0876  0.9395 -1.4729
18453TIP3   OH276773   1.180   4.405   1.007 -0.1916  0.4530  0.6443
18453TIP3    H176774   1.219   4.357   0.935 -0.4387 -0.0020  0.8054
18453TIP3    H276775   1.130   4.339   1.055  0.6422  0.5689  1.7153
18454TIP3   OH276776   4.860   4.747   2.533  0.0901 -0.1953 -0.1909
18454TIP3    H176777   4.840   4.685   2.603  0.0135 -0.5730 -0.5412
18454TIP3    H276778   4.816   4.711   2.456  0.0064  0.3205 -0.3885
18455TIP3   OH276779   1.743   2.475   0.257 -0.2513  0.2277  0.0802
18455TIP3    H176780   1.712   2.566   0.251  0.3858  0.4255 -0.4119
18455TIP3    H276781   1.834   2.483   0.284 -0.2265 -0.2771  0.1490
18456TIP3   OH276782   3.806   5.133  14.953  0.0012  0.1549 -0.7776
18456TIP3    H176783   3.773   5.215  14.917  0.3273  1.3258  1.4104
18456TIP3    H276784   3.900   5.147  14.963  0.1577 -0.7262 -0.9998
18457TIP3   OH276785   4.739   2.853   0.949 -0.3086 -0.7550  0.3137
18457TIP3    H176786   4.773   2.859   0.860  1.7671 -0.4885  1.0623
18457TIP3    H276787   4.744   2.760   0.970 -0.2225 -0.7415  0.3540
18458TIP3   OH276788   3.761   0.850   5.211  0.2887 -0.5148 -0.2026
18458TIP3    H176789   3.706   0.920   5.176 -2.2609 -1.2532  1.9663
18458TIP3    H276790   3.803   0.889   5.287  0.7911 -0.6866 -0.3877
18459TIP3   OH276791   3.433   6.382   1.595  0.2125  0.1087  0.3079
18459TIP3    H176792   3.339   6.388   1.577 -0.0092 -0.1736  1.3191
18459TIP3    H276793   3.470   6.343   1.516 -0.5458  0.0446 -0.0231
18460TIP3   OH276794   0.830   2.342   1.054  0.1336 -0.2525 -0.4115
18460TIP3    H176795   0.875   2.402   0.994  0.1133  0.2417  0.0564
18460TIP3    H276796   0.758   2.305   1.002 -0.5295  0.9714 -0.4016
18461TIP3   OH276797   5.212   1.528  15.985  0.2733 -0.2186  0.5045
18461TIP3    H176798   5.136   1.556  15.934 -0.5571  0.5065  2.0772
18461TIP3    H276799   5.287   1.567  15.941 -0.4128  0.3622 -0.1640
18462TIP3   OH276800   5.862   6.582  11.464 -0.1990 -0.4582  0.5731
18462TIP3    H176801   5.773   6.613  11.482  0.1325  0.5604  0.5041
18462TIP3    H276802   5.906   6.587  11.549 -0.3638 -1.5625  0.7458
18463TIP3   OH276803   1.987   2.341   4.334  0.3131  0.4644  0.5866
18463TIP3    H176804   1.986   2.408   4.402 -1.9866  1.9384 -0.7598
18463TIP3    H276805   2.044   2.377   4.266 -0.8048  1.0234 -0.0743
18464TIP3   OH276806   0.774   5.376   1.893  0.6888  0.1562 -0.0157
18464TIP3    H176807   0.728   5.459   1.899 -1.4040 -0.7864 -1.5254
18464TIP3    H276808   0.820   5.367   1.976 -0.0354  2.2310  0.6608
18465TIP3   OH276809   0.465   0.292   1.144 -0.3278 -0.5666 -0.2807
18465TIP3    H176810   0.403   0.235   1.190  0.1055 -0.0494  0.9976
18465TIP3    H276811   0.459   0.375   1.191  1.8230 -0.7031  0.3248
18466TIP3   OH276812   6.666   3.648   5.521  0.0919 -0.4193 -0.3481
18466TIP3    H176813   6.730   3.582   5.495 -0.1447 -0.2345 -1.4079
18466TIP3    H276814   6.581   3.603   5.515 -0.0069 -0.2298 -0.3800
18467TIP3   OH276815   1.948   1.965  14.526  0.1793 -0.1134  0.0391
18467TIP3    H176816   1.964   1.998  14.614  3.7079 -1.5298  0.0625
18467TIP3    H276817   2.034   1.962  14.485 -1.1484 -0.9155 -2.9804
18468TIP3   OH276818   4.737   2.825  14.857 -0.2100  0.2398 -0.0009
18468TIP3    H176819   4.717   2.789  14.944  0.0765 -1.0420 -0.4397
18468TIP3    H276820   4.657   2.810  14.806  0.2832 -0.8058 -0.4950
18469TIP3   OH276821   0.585   3.093   0.459  0.0568  0.3735  0.1332
18469TIP3    H176822   0.588   3.094   0.364 -0.9206  1.0628  0.0910
18469TIP3    H276823   0.643   3.021   0.485  0.1047 -0.0008 -0.9870
18470TIP3   OH276824   3.965   3.453   5.811 -0.0693 -0.4124 -0.0866
18470TIP3    H176825   3.939   3.528   5.864 -2.5067  0.1914 -1.9496
18470TIP3    H276826   3.925   3.378   5.855 -0.8840 -0.0921 -0.2579
18471TIP3   OH276827   2.773   5.536  12.552  0.7083 -0.0734  0.1641
18471TIP3    H176828   2.857   5.501  12.583  0.9533 -0.1346 -0.5516
18471TIP3    H276829   2.790   5.629  12.536  0.4733  0.0456  0.5849
18472TIP3   OH276830   5.143   2.410  13.746 -0.4435  0.0303 -0.1236
18472TIP3    H176831   5.105   2.326  13.769 -0.8810 -0.5403 -2.5705
18472TIP3    H276832   5.227   2.388  13.706  0.2370  0.9124  0.7777
18473TIP3   OH276833   3.218   3.401  14.534  0.4363  0.5489 -0.4548
18473TIP3    H176834   3.174   3.421  14.617  0.7645 -1.3881  0.2594
18473TIP3    H276835   3.178   3.319  14.506  0.5434  1.0320 -2.0946
18474TIP3   OH276836   0.020   4.622  13.395  0.1530  0.0832 -0.1652
18474TIP3    H176837  -0.044   4.599  13.328  0.6500 -0.2983 -0.5172
18474TIP3    H276838   0.064   4.539  13.416  0.5307  0.3372  0.0685
18475TIP3   OH276839   1.979   6.118   1.578 -0.6599 -0.2367 -0.5550
18475TIP3    H176840   1.918   6.069   1.523 -1.0789 -1.5643  1.0096
18475TIP3    H276841   1.926   6.189   1.614 -0.5925  0.1557 -1.2151
18476TIP3   OH276842   0.303   0.071   4.714  0.4403 -0.0967  0.4026
18476TIP3    H176843   0.364   0.052   4.642  0.5791 -0.5783  0.6393
18476TIP3    H276844   0.225   0.021   4.693 -0.0967  0.9596 -0.1873
18477TIP3   OH276845   1.194   3.835   4.707  0.2077  0.3542  0.3202
18477TIP3    H176846   1.185   3.762   4.647 -1.0314 -0.6479  1.6514
18477TIP3    H276847   1.273   3.815   4.758 -0.3970 -0.3453  1.0118
18478TIP3   OH276848   4.539   4.109  15.758  0.4779 -0.1895  0.3071
18478TIP3    H176849   4.510   4.018  15.762 -0.6830  0.2013  1.1489
18478TIP3    H276850   4.560   4.132  15.849  0.0154  0.6079  0.2225
18479TIP3   OH276851   5.809   4.821  11.328  0.7869  0.0574 -0.2142
18479TIP3    H176852   5.741   4.772  11.283 -1.1120  0.5128  1.9411
18479TIP3    H276853   5.780   4.912  11.324  1.4589  0.3143  0.4368
18480TIP3   OH276854   6.104   6.412  13.540 -0.4520 -0.1482 -0.0922
18480TIP3    H176855   6.158   6.465  13.599 -1.0310  0.4104 -0.0559
18480TIP3    H276856   6.055   6.476  13.488 -1.9035 -0.6305  0.6335
18481TIP3   OH276857   0.494   1.749  11.618 -0.2301  0.2240  0.5181
18481TIP3    H176858   0.472   1.732  11.527  2.4865 -1.2909  0.0262
18481TIP3    H276859   0.415   1.726  11.667 -1.7680  1.1545 -1.4163
18482TIP3   OH276860   6.678   5.322   2.222 -0.2534  0.0239 -0.4623
18482TIP3    H176861   6.615   5.393   2.221 -0.8748 -0.4752  0.6937
18482TIP3    H276862   6.731   5.338   2.300 -0.7039 -1.0135  0.0835
18483TIP3   OH276863   2.667   2.118   1.635  0.3238 -0.0346  0.1030
18483TIP3    H176864   2.615   2.159   1.566  2.4547  1.3131 -0.8094
18483TIP3    H276865   2.640   2.026   1.634 -1.5483  0.4676 -0.7019
18484TIP3   OH276866   4.890   2.382   0.208  0.3396 -0.3969  0.3913
18484TIP3    H176867   4.903   2.300   0.161 -3.2996  0.0713 -1.8499
18484TIP3    H276868   4.900   2.450   0.141  1.6454  0.9223  1.8357
18485TIP3   OH276869   0.873   6.320   3.404 -0.0954  0.6158  0.3620
18485TIP3    H176870   0.905   6.354   3.321 -2.6910  2.4134 -0.0455
18485TIP3    H276871   0.898   6.386   3.469  2.6954 -1.1920  1.2936
18486TIP3   OH276872   4.576   2.617  10.812  0.3799  0.0456 -0.2082
18486TIP3    H176873   4.626   2.550  10.766  2.9311  2.8715 -1.9276
18486TIP3    H276874   4.586   2.595  10.904  2.5604 -1.0242 -0.6299
18487TIP3   OH276875   5.159   1.176  11.937 -0.0289  0.5999  0.0325
18487TIP3    H176876   5.190   1.267  11.932  0.0427  0.5255 -1.1107
18487TIP3    H276877   5.064   1.184  11.942 -0.0314  0.7422 -0.1935
18488TIP3   OH276878   0.543   1.026  13.738  0.2315 -0.1232  0.3449
18488TIP3    H176879   0.587   1.016  13.654  0.6995 -1.0000  0.6815
18488TIP3    H276880   0.483   0.953  13.743 -0.4514  0.4301  0.3917
18489TIP3   OH276881   2.864   0.849  14.746  0.0803  0.1606 -0.2428
18489TIP3    H176882   2.952   0.880  14.724  0.7340 -1.0890  0.5351
18489TIP3    H276883   2.821   0.925  14.785  0.7479  0.8331 -0.7873
18490TIP3   OH276884   6.669   0.884   5.932 -0.6388 -0.1090 -0.6661
18490TIP3    H176885   6.601   0.893   5.866 -0.2519  0.3926 -0.9974
18490TIP3    H276886   6.726   0.959   5.920  0.0619 -0.5962 -0.4863
18491TIP3   OH276887   0.479   2.615   0.163  0.6581 -0.2258  0.3771
18491TIP3    H176888   0.519   2.667   0.233 -0.7839  2.8998 -0.9557
18491TIP3    H276889   0.389   2.602   0.191 -0.1195  1.6135 -1.0793
18492TIP3   OH276890   1.584   3.733   2.214 -0.1564 -0.2475 -0.2321
18492TIP3    H176891   1.612   3.744   2.123  0.7583 -0.4892  0.0125
18492TIP3    H276892   1.489   3.721   2.209 -0.1247 -0.1440 -1.1430
18493TIP3   OH276893   5.947   4.869  14.691  0.0405 -0.4247  0.1173
18493TIP3    H176894   5.851   4.871  14.691  0.0181 -0.5185 -1.2339
18493TIP3    H276895   5.974   4.954  14.658  0.4929  0.2236  2.0319
18494TIP3   OH276896   1.737   5.389  11.589 -0.3086 -0.2304 -0.6095
18494TIP3    H176897   1.717   5.319  11.527 -1.7480 -1.3384  1.0246
18494TIP3    H276898   1.815   5.359  11.635  1.3288  1.0225 -2.4344
18495TIP3   OH276899   2.689   1.506  12.702 -0.4595  0.2668 -0.1089
18495TIP3    H176900   2.753   1.556  12.752  2.0092 -2.7837  0.0559
18495TIP3    H276901   2.670   1.560  12.625  2.0074  1.4687  0.0496
18496TIP3   OH276902   6.796   0.706   3.958 -0.2157  0.4895 -0.0715
18496TIP3    H176903   6.748   0.637   3.913 -2.3251  0.8562  1.4496
18496TIP3    H276904   6.802   0.776   3.893 -2.2338  0.6063 -0.2212
18497TIP3   OH276905   5.476   1.778  14.009  0.0263 -0.4452  0.1743
18497TIP3    H176906   5.407   1.806  13.949  0.3608  0.3550  0.1628
18497TIP3    H276907   5.555   1.774  13.955  0.3874  0.5523  0.6069
18498TIP3   OH276908   1.190   2.357  10.677 -0.1399 -0.1453 -0.6004
18498TIP3    H176909   1.123   2.408  10.722 -1.3483 -0.4214 -2.0032
18498TIP3    H276910   1.141   2.286  10.635  1.0882 -0.5852 -1.3273
18499TIP3   OH276911   5.357   2.748  13.449  0.0822  0.0864  0.1495
18499TIP3    H176912   5.264   2.725  13.447  0.3029 -0.9229  0.7611
18499TIP3    H276913   5.385   2.726  13.538  0.8800  0.5033  0.0093
18500TIP3   OH276914   2.176   2.652  16.652 -0.3758 -0.5675 -0.0382
18500TIP3    H176915   2.143   2.742  16.646 -2.2820 -1.2439 -0.1501
18500TIP3    H276916   2.159   2.625  16.742  1.3545 -0.4270  0.3683
18501TIP3   OH276917   2.020   4.161   0.074 -0.4335  0.1969  0.1599
18501TIP3    H176918   1.939   4.186   0.031 -0.7640 -0.4795  0.3807
18501TIP3    H276919   2.057   4.244   0.105 -0.6332  0.5947 -0.6284
18502TIP3   OH276920   5.159   3.886  14.721  0.0382  0.6821 -0.4093
18502TIP3    H176921   5.139   3.817  14.658  2.4873 -0.0226 -0.5361
18502TIP3    H276922   5.218   3.844  14.784 -1.4861  1.6591  1.7830
18503TIP3   OH276923   6.216   0.506   0.580  0.3642 -0.0600  0.1979
18503TIP3    H176924   6.184   0.595   0.596 -2.3609 -1.1000  1.1772
18503TIP3    H276925   6.205   0.493   0.486 -2.7338 -0.4808  0.5266
18504TIP3   OH276926   6.419   3.167  11.786  0.5182  0.3206 -0.2818
18504TIP3    H176927   6.405   3.117  11.866 -1.3759  0.6087 -0.3838
18504TIP3    H276928   6.432   3.257  11.816  0.7992  0.2790 -0.2691
18505TIP3   OH276929   0.393   4.603   3.289 -0.3595 -0.5556  0.1264
18505TIP3    H176930   0.405   4.535   3.222 -2.1020 -2.2466  1.4545
18505TIP3    H276931   0.417   4.560   3.371 -0.5131  0.7783  0.8893
18506TIP3   OH276932   1.375   0.017   4.926 -0.1096  0.8526 -0.3059
18506TIP3    H176933   1.453   0.060   4.892  0.2123  1.1034  0.7361
18506TIP3    H276934   1.361   0.056   5.012 -0.0846 -0.7939  0.4777
18507TIP3   OH276935   4.409   2.360  13.464 -0.0362  0.1134  0.4854
18507TIP3    H176936   4.394   2.446  13.424  1.4925 -0.3972 -1.3657
18507TIP3    H276937   4.405   2.298  13.390 -0.6968 -1.3790  1.7074
18508TIP3   OH276938   1.297   1.694  12.456 -0.2802 -0.6535  0.1202
18508TIP3    H176939   1.371   1.664  12.509  0.1717 -1.5941 -0.9761
18508TIP3    H276940   1.227   1.631  12.474 -0.3090 -0.6455  0.0397
18509TIP3   OH276941   6.532   4.116   3.376  0.1544  0.4254  0.2951
18509TIP3    H176942   6.465   4.066   3.423  0.9796 -0.4142  0.6053
18509TIP3    H276943   6.483   4.177   3.322 -0.8446  0.6934  1.4651
18510TIP3   OH276944   3.380   0.300   2.825 -0.0250 -0.1955  0.1149
18510TIP3    H176945   3.387   0.366   2.894 -1.1981  0.5585 -0.4656
18510TIP3    H276946   3.418   0.342   2.748 -1.1217 -0.0293 -0.3518
18511TIP3   OH276947   1.346   2.596   0.574 -0.1661 -0.4223  0.5457
18511TIP3    H176948   1.264   2.546   0.576  0.1383 -0.9777 -0.2487
18511TIP3    H276949   1.394   2.568   0.651  0.2741 -1.8520 -0.2173
18512TIP3   OH276950   5.991   2.109  13.673 -0.1646 -0.0474 -0.2299
18512TIP3    H176951   6.081   2.105  13.705 -0.6247  0.3716  1.1995
18512TIP3    H276952   5.944   2.158  13.740 -1.5495 -0.6051 -0.7510
18513TIP3   OH276953   4.912   6.800  12.231 -0.3853 -0.0095 -0.2026
18513TIP3    H176954   4.864   6.822  12.151 -1.7606  2.4756  1.1780
18513TIP3    H276955   5.003   6.793  12.203 -0.6554  1.9889 -1.8429
18514TIP3   OH276956   3.544   3.652  11.896  0.2222 -0.1565 -0.6595
18514TIP3    H176957   3.564   3.559  11.881  0.7828  0.2271 -2.6630
18514TIP3    H276958   3.574   3.695  11.816  0.1366  1.7916  0.3182
18515TIP3   OH276959   4.695   2.324   4.723  0.0557 -0.2211 -0.0026
18515TIP3    H176960   4.724   2.243   4.765  0.2403 -0.2334 -0.1536
18515TIP3    H276961   4.748   2.393   4.764 -0.6833 -0.0689  0.7298
18516TIP3   OH276962   4.444   2.885   4.894 -0.1906  0.6748 -0.0781
18516TIP3    H176963   4.431   2.893   4.800  4.0768  1.1073 -0.8407
18516TIP3    H276964   4.444   2.790   4.911 -0.4144  0.5781 -0.6151
18517TIP3   OH276965   1.846   2.612   3.516 -0.0391  0.1601 -0.3185
18517TIP3    H176966   1.887   2.533   3.549  2.5215  2.2026  1.9038
18517TIP3    H276967   1.916   2.659   3.470 -0.6029  2.4176  0.9562
18518TIP3   OH276968   2.984   4.857   1.532  0.6178 -1.0698  0.4901
18518TIP3    H176969   3.016   4.890   1.448  1.0040 -2.1186  0.2068
18518TIP3    H276970   2.999   4.929   1.593 -0.9617  0.2571 -0.5819
18519TIP3   OH276971   2.731   4.428  15.690  0.7921  0.5932  0.1491
18519TIP3    H176972   2.774   4.404  15.772 -0.0897 -0.2159  0.3994
18519TIP3    H276973   2.800   4.465  15.636  1.9142 -1.1217  0.3357
18520TIP3   OH276974   0.555   2.116   1.934  0.3300  0.3284  0.0849
18520TIP3    H176975   0.601   2.074   1.861 -0.8842 -2.0167  0.5831
18520TIP3    H276976   0.476   2.153   1.895  0.6428  0.8380 -0.0856
18521TIP3   OH276977   3.200   2.231   4.308  0.4351  0.3076  0.3091
18521TIP3    H176978   3.286   2.216   4.270 -0.1432  0.6671 -1.2228
18521TIP3    H276979   3.178   2.149   4.352  0.7131 -0.4929 -1.0126
18522TIP3   OH276980   3.430   6.357  14.163  0.6331  1.1023  0.0419
18522TIP3    H176981   3.421   6.289  14.096 -1.0020  3.2042 -2.0409
18522TIP3    H276982   3.367   6.333  14.231  0.7825  0.0379 -0.1824
18523TIP3   OH276983   2.755   5.635  11.126  0.3638  0.2300  0.4428
18523TIP3    H176984   2.756   5.608  11.217  1.0435 -0.9742  0.0904
18523TIP3    H276985   2.718   5.560  11.079  4.0037 -0.9915 -0.7928
18524TIP3   OH276986   2.213   4.607   2.047 -0.2048  0.1005  0.3594
18524TIP3    H176987   2.294   4.631   2.003  0.7404  1.0390  2.4544
18524TIP3    H276988   2.212   4.512   2.047  1.2464  0.0704  0.8675
18525TIP3   OH276989   1.118   2.857   2.084 -0.0549 -0.1140  0.1054
18525TIP3    H176990   1.056   2.910   2.135 -0.3422 -0.6789  0.3559
18525TIP3    H276991   1.065   2.819   2.014  0.5618  1.5947 -1.3724
18526TIP3   OH276992   2.593   0.514   2.573  0.3111  0.1418  0.0458
18526TIP3    H176993   2.605   0.469   2.656 -1.4880  0.6908  0.6381
18526TIP3    H276994   2.500   0.538   2.571  0.8410  2.3726 -0.9786
18527TIP3   OH276995   4.015   4.658  15.450 -0.1565 -0.1754 -0.5513
18527TIP3    H176996   3.932   4.697  15.475 -0.9231 -1.8456 -0.3086
18527TIP3    H276997   4.069   4.663  15.529 -0.3666  0.0719 -0.4237
18528TIP3   OH276998   5.827   0.745  13.675 -0.1364  0.3700  0.3897
18528TIP3    H176999   5.880   0.680  13.720 -0.4382  0.6666  1.1977
18528TIP3    H277000   5.745   0.747  13.723 -1.5706 -1.2257 -1.7701
18529TIP3   OH277001   4.421   1.362   6.338  0.5967  0.4750  0.1182
18529TIP3    H177002   4.375   1.441   6.366  1.2599  0.9410 -0.1011
18529TIP3    H277003   4.501   1.393   6.296  0.5294 -0.2791 -0.6153
18530TIP3   OH277004   0.696   0.814   1.973 -0.7568  0.0772 -0.1040
18530TIP3    H177005   0.737   0.790   2.056 -0.1218 -0.2215 -0.4900
18530TIP3    H277006   0.716   0.907   1.962 -0.9826  0.1561  0.1561
18531TIP3   OH277007   3.845   6.490   2.655 -0.3153  0.5668 -0.2392
18531TIP3    H177008   3.802   6.460   2.735  0.5912  0.4472  0.2226
18531TIP3    H277009   3.796   6.448   2.584 -0.3852 -0.3144  0.3107
18532TIP3   OH277010   2.414   3.220  13.415  0.1315  0.0788 -0.2861
18532TIP3    H177011   2.385   3.310  13.398 -1.1509 -0.5182 -1.4863
18532TIP3    H277012   2.410   3.178  13.329  0.9257 -1.0753  0.2281
18533TIP3   OH277013   4.419   6.398  13.110 -0.1847 -0.1005 -0.1821
18533TIP3    H177014   4.425   6.439  13.196 -0.8347  0.4797 -0.4036
18533TIP3    H277015   4.326   6.406  13.086 -0.5949 -2.7122  0.2631
18534TIP3   OH277016   1.946   6.263  11.758 -0.3069  0.2465 -0.1456
18534TIP3    H177017   2.041   6.273  11.758 -0.3772  1.0006 -0.5079
18534TIP3    H277018   1.930   6.184  11.810  0.5220  0.0139 -0.2305
18535TIP3   OH277019   2.777   6.392   2.996 -0.7467  0.5484 -0.5064
18535TIP3    H177020   2.715   6.450   2.952  0.6378  1.6816 -1.0226
18535TIP3    H277021   2.738   6.378   3.082 -2.7509 -0.4826 -1.5002
18536TIP3   OH277022   2.942   1.668   0.761  0.0232  0.7684 -0.3043
18536TIP3    H177023   2.869   1.711   0.806  0.7563 -0.0141  1.7506
18536TIP3    H277024   2.980   1.610   0.828  0.2507 -1.6226 -2.3622
18537TIP3   OH277025   5.160   3.548  13.387  0.5232  0.3132 -0.0327
18537TIP3    H177026   5.225   3.478  13.388  1.3313  1.0522  0.3933
18537TIP3    H277027   5.114   3.537  13.304  1.2320 -0.1800 -0.3649
18538TIP3   OH277028   5.699   3.336   5.949  0.2409  0.4848  0.4458
18538TIP3    H177029   5.614   3.368   5.921 -0.6849  0.2751  2.7625
18538TIP3    H277030   5.685   3.242   5.962  1.2138  0.2094 -0.3812
18539TIP3   OH277031   4.207   6.163   3.893 -0.1179 -0.4841 -0.0569
18539TIP3    H177032   4.204   6.131   3.803  1.0114 -1.0004  0.0818
18539TIP3    H277033   4.148   6.105   3.941 -2.6733  1.2448 -0.8539
18540TIP3   OH277034   5.223   6.731  11.796 -0.6527  0.1635  0.2496
18540TIP3    H177035   5.312   6.738  11.829 -0.4999 -0.4021 -0.0421
18540TIP3    H277036   5.207   6.637  11.786 -1.1649  0.2706 -0.0065
18541TIP3   OH277037   5.459   1.478  16.099  0.0514  0.4776  0.0047
18541TIP3    H177038   5.370   1.510  16.080 -0.4319 -1.0261 -0.4084
18541TIP3    H277039   5.513   1.516  16.030 -0.6782 -0.3050 -1.0347
18542TIP3   OH277040   3.118   4.829   5.829 -0.2370 -0.5461  0.2092
18542TIP3    H177041   3.031   4.799   5.802 -0.0773 -1.1025  0.3056
18542TIP3    H277042   3.102   4.913   5.873 -0.7906 -0.9181  0.7309
18543TIP3   OH277043   1.400   0.544  14.047 -0.3644 -0.0282  0.2161
18543TIP3    H177044   1.479   0.547  13.993 -1.9860 -0.1525 -2.3013
18543TIP3    H277045   1.420   0.601  14.122  2.1104 -0.1521 -0.2572
18544TIP3   OH277046   2.187   5.680  12.539  0.3727  0.1235  0.2853
18544TIP3    H177047   2.253   5.639  12.483 -0.2750 -1.0011  0.3070
18544TIP3    H277048   2.238   5.722  12.609  1.2645  2.6196 -1.7380
18545TIP3   OH277049   3.074   2.361  11.603  0.2644 -0.6106 -0.2142
18545TIP3    H177050   3.001   2.410  11.639  1.2606  1.1653 -0.5050
18545TIP3    H277051   3.053   2.350  11.510  0.1520 -0.5010 -0.2015
18546TIP3   OH277052   5.886   5.546  15.411  0.2169  0.4726 -0.5173
18546TIP3    H177053   5.916   5.634  15.436 -1.6346  0.6915  1.1285
18546TIP3    H277054   5.943   5.487  15.459 -0.7329  0.8546  1.1457
18547TIP3   OH277055   2.071   0.811  16.168 -0.0101  0.2885 -0.0306
18547TIP3    H177056   2.128   0.869  16.118 -0.9798  0.6453 -0.7507
18547TIP3    H277057   2.131   0.760  16.222  1.0301  0.3351 -1.0873
18548TIP3   OH277058   5.571   0.681  15.262 -0.1969 -0.2850  0.0873
18548TIP3    H177059   5.628   0.732  15.205  0.0546 -1.2919 -0.5860
18548TIP3    H277060   5.584   0.718  15.349  2.6868 -1.4654  0.2544
18549TIP3   OH277061   6.021   6.365   4.342  1.0594  0.4293  0.3085
18549TIP3    H177062   6.071   6.447   4.340 -0.0717  1.1862  1.6086
18549TIP3    H277063   5.930   6.392   4.350  0.7509 -0.9601  2.1366
18550TIP3   OH277064   3.542   2.680   4.311 -0.4072 -0.1003 -0.5874
18550TIP3    H177065   3.608   2.611   4.318 -0.1082  0.2978  0.5916
18550TIP3    H277066   3.498   2.681   4.396 -0.2500  1.3115 -0.5016
18551TIP3   OH277067   5.117   1.712  11.112 -0.8320  0.5565 -0.5041
18551TIP3    H177068   5.024   1.695  11.099 -0.7590 -0.8182  0.4605
18551TIP3    H277069   5.125   1.732  11.206 -0.2758  1.6664 -0.7681
18552TIP3   OH277070   6.717   5.604   4.307  0.4154  0.4351 -0.1610
18552TIP3    H177071   6.692   5.618   4.399 -0.0443  0.1235 -0.2331
18552TIP3    H277072   6.634   5.587   4.263  0.8802 -2.6268 -0.0694
18553TIP3   OH277073   5.319   3.616  15.429  0.1933 -0.6045  0.4372
18553TIP3    H177074   5.243   3.641  15.377  0.9073 -0.5904 -0.6415
18553TIP3    H277075   5.295   3.533  15.469 -1.0836  0.2874  1.6562
18554TIP3   OH277076   6.429   1.450  15.035 -0.4520 -0.4080  0.1941
18554TIP3    H177077   6.399   1.465  15.125  1.0655  0.1988  0.6412
18554TIP3    H277078   6.470   1.363  15.038  0.9588  0.2282  0.5189
18555TIP3   OH277079   5.618   0.649   2.341  0.0008  0.7309 -0.3289
18555TIP3    H177080   5.669   0.710   2.395 -0.1185  0.8914 -0.3964
18555TIP3    H277081   5.664   0.648   2.257  0.0749  0.6322 -0.2865
18556TIP3   OH277082   2.679   0.639   5.445  0.0820 -1.0664 -0.2917
18556TIP3    H177083   2.745   0.661   5.511  0.1590 -0.2811 -0.6219
18556TIP3    H277084   2.612   0.707   5.455  1.4222  0.8223 -2.8898
18557TIP3   OH277085   5.014   0.251  11.886 -0.1752 -0.3284 -0.3853
18557TIP3    H177086   4.992   0.168  11.844  1.0335 -0.2628 -1.2156
18557TIP3    H277087   4.930   0.295  11.899 -0.8950 -1.9111  0.6133
18558TIP3   OH277088   0.170   2.657  12.497  0.0579 -0.2025 -0.4737
18558TIP3    H177089   0.184   2.563  12.490  1.4444  0.0069 -0.8178
18558TIP3    H277090   0.229   2.684  12.567 -0.5752  0.3736 -0.1497
18559TIP3   OH277091   5.571   5.496   5.065  0.3547 -0.5289 -0.4497
18559TIP3    H177092   5.496   5.500   5.124  0.5378 -0.5787 -0.2101
18559TIP3    H277093   5.554   5.563   4.999 -0.2337 -1.0155 -0.7968
18560TIP3   OH277094   5.519   5.645   3.359  0.3623 -0.6385  0.1495
18560TIP3    H177095   5.447   5.594   3.323  0.7105 -0.1138 -1.3656
18560TIP3    H277096   5.598   5.599   3.333  0.6439  0.0408 -0.2248
18561TIP3   OH277097   2.690   5.141   4.021  0.0506 -0.0602  0.1169
18561TIP3    H177098   2.721   5.064   3.974  0.3410 -0.0374  0.2697
18561TIP3    H277099   2.646   5.106   4.098 -0.3426 -0.0945 -0.1209
18562TIP3   OH277100   3.602   0.307  14.605 -0.1396 -1.2255  0.0614
18562TIP3    H177101   3.620   0.223  14.563  0.5077 -0.9761 -0.1733
18562TIP3    H277102   3.608   0.290  14.699 -0.3305 -1.5069  0.0224
18563TIP3   OH277103   2.652   1.229  14.132 -0.1628  0.1066 -0.1859
18563TIP3    H177104   2.563   1.195  14.125 -0.3845  0.6844 -0.2513
18563TIP3    H277105   2.643   1.323  14.114  0.5186  0.1000 -0.6046
18564TIP3   OH277106   5.683   0.773   3.918  0.0583 -0.6432  0.2101
18564TIP3    H177107   5.755   0.789   3.979  0.3042  0.5842 -0.3713
18564TIP3    H277108   5.718   0.796   3.832 -1.0153 -0.0367 -0.0853
18565TIP3   OH277109   5.032   4.812   0.080  0.1774 -0.2180 -0.2032
18565TIP3    H177110   4.979   4.744   0.040 -1.1172  0.3355  0.5334
18565TIP3    H277111   5.051   4.780   0.168 -0.1615  0.2267  0.0343
18566TIP3   OH277112   4.490   5.768  12.901 -0.1786  0.0416  0.2745
18566TIP3    H177113   4.406   5.805  12.874  0.4666 -0.3941 -2.7336
18566TIP3    H277114   4.552   5.840  12.891  0.3460 -0.5729 -1.1456
18567TIP3   OH277115   1.758   4.296  13.176  0.0643  0.4857 -0.3751
18567TIP3    H177116   1.704   4.253  13.111 -0.8809 -2.2383  2.0120
18567TIP3    H277117   1.703   4.300  13.254  1.3906  2.9352  0.5484
18568TIP3   OH277118   5.862   4.122   2.958 -0.6854 -0.0788  0.0067
18568TIP3    H177119   5.889   4.038   2.923  0.3695  0.0519  0.4723
18568TIP3    H277120   5.819   4.101   3.040 -0.0395 -0.1416  0.3341
18569TIP3   OH277121   1.513   3.547  16.108 -0.6276  0.4561 -0.5117
18569TIP3    H177122   1.469   3.480  16.161 -0.6057 -0.6744 -1.8292
18569TIP3    H277123   1.501   3.629  16.156 -0.8058 -0.4638  1.0768
18570TIP3   OH277124   6.876   1.148  12.723 -0.5943  0.0226 -0.0486
18570TIP3    H177125   6.805   1.137  12.787  0.0120  0.5325  0.7366
18570TIP3    H277126   6.944   1.088  12.753  0.2264  1.2408  0.5913
18571TIP3   OH277127   2.036   1.426  14.599  0.3939  0.8130  0.6201
18571TIP3    H177128   1.981   1.449  14.524  0.7987 -0.2868 -0.0497
18571TIP3    H277129   2.125   1.448  14.571  0.6813 -0.6518  0.3011
18572TIP3   OH277130   4.743   2.070   4.695  0.0276  0.7184  0.1567
18572TIP3    H177131   4.778   1.984   4.672  1.7997  1.3785  0.2751
18572TIP3    H277132   4.675   2.086   4.629  0.7696 -0.0893 -0.8393
18573TIP3   OH277133   4.273   1.018   2.148  0.2644 -0.3898 -0.1658
18573TIP3    H177134   4.339   0.954   2.175  0.7651 -0.4052 -1.3796
18573TIP3    H277135   4.219   1.031   2.226 -0.7738 -3.3988 -0.2403
18574TIP3   OH277136   2.901   0.259  16.150  0.0615 -0.1614 -0.4601
18574TIP3    H177137   2.889   0.165  16.163 -0.8291 -0.0902 -0.7185
18574TIP3    H277138   2.989   0.266  16.112 -1.0657 -1.2096 -3.6179
18575TIP3   OH277139   6.531   3.230   4.225 -0.1472  0.3904 -0.3551
18575TIP3    H177140   6.493   3.182   4.151 -1.2687  1.2856 -0.3947
18575TIP3    H277141   6.545   3.318   4.191 -0.4757  0.7552  0.4194
18576TIP3   OH277142   6.683   5.145   1.536 -0.8020 -0.6447  0.1921
18576TIP3    H177143   6.611   5.104   1.488 -1.6356  0.3814  0.5314
18576TIP3    H277144   6.641   5.194   1.607  0.2886 -0.7091  0.9207
18577TIP3   OH277145   5.677   2.048   5.071 -0.1261  0.3085  0.4781
18577TIP3    H177146   5.662   1.994   4.994  0.0780  1.4222 -0.3708
18577TIP3    H277147   5.610   2.021   5.133  0.2037 -1.1689  0.2381
18578TIP3   OH277148   4.692   2.459  11.554  0.0468  0.8176  0.1329
18578TIP3    H177149   4.612   2.509  11.537 -0.2128 -0.0502 -1.3461
18578TIP3    H277150   4.712   2.416  11.471 -0.5677 -2.7375  1.6345
18579TIP3   OH277151   2.025   5.149  14.854  0.2101  0.5557 -1.2828
18579TIP3    H177152   2.019   5.236  14.815  0.9893  0.5276 -1.4635
18579TIP3    H277153   2.118   5.132  14.863  0.0722  0.4918  0.4507
18580TIP3   OH277154   3.940   5.297  12.497 -0.2091  0.0465 -0.9323
18580TIP3    H177155   4.032   5.307  12.473  0.0909 -1.4422 -0.5208
18580TIP3    H277156   3.897   5.269  12.416  0.0540 -1.0074 -0.7277
18581TIP3   OH277157   4.451   2.568  11.804  0.8699 -0.2601 -0.1918
18581TIP3    H177158   4.387   2.636  11.783 -0.5634 -1.2513  0.7782
18581TIP3    H277159   4.512   2.569  11.731 -1.5226 -0.7879 -2.3145
18582TIP3   OH277160   1.532   4.567  13.323  0.1016 -0.4276  0.3412
18582TIP3    H177161   1.606   4.565  13.384  0.8003  1.0825 -0.3880
18582TIP3    H277162   1.455   4.551  13.377  0.9274 -1.7553  1.1632
18583TIP3   OH277163   4.605   4.688  10.202 -0.3925  0.4307  0.0765
18583TIP3    H177164   4.622   4.755  10.268 -0.8547 -0.8209  1.5124
18583TIP3    H277165   4.581   4.738  10.124 -0.8450  1.9458  1.1330
18584TIP3   OH277166   2.839   4.998  16.416  0.1305  0.0914  0.0714
18584TIP3    H177167   2.888   4.930  16.370  1.6146  0.9501  0.3453
18584TIP3    H277168   2.876   4.999  16.504 -1.7005 -0.5355  0.9207
18585TIP3   OH277169   0.037   1.508   1.466 -0.5339 -0.6110  0.1894
18585TIP3    H177170   0.088   1.439   1.508  2.0125  0.9290 -0.2111
18585TIP3    H277171  -0.016   1.544   1.537  0.4020 -0.9747  1.1005
18586TIP3   OH277172   3.104   4.216  12.482 -0.5530  0.1754 -0.4420
18586TIP3    H177173   3.080   4.125  12.499  1.3410  0.2057  3.2668
18586TIP3    H277174   3.022   4.257  12.451 -2.0931 -2.2342  0.1877
18587TIP3   OH277175   6.275   0.548   3.723  0.7475 -0.2209 -0.2569
18587TIP3    H177176   6.236   0.531   3.637 -0.4942 -0.4902  0.3497
18587TIP3    H277177   6.244   0.477   3.779 -1.0317  1.5857  1.2084
18588TIP3   OH277178   2.525   0.802  12.929 -0.8226 -0.2433 -0.2474
18588TIP3    H177179   2.558   0.792  13.018 -1.2502  0.0686 -0.0473
18588TIP3    H277180   2.521   0.713  12.894  2.1890 -0.1742 -1.0328
18589TIP3   OH277181   4.125   0.308   3.618  0.0107  0.2349  0.3575
18589TIP3    H177182   4.061   0.261   3.563  0.9776  1.2077 -1.7040
18589TIP3    H277183   4.181   0.239   3.653 -0.8806 -0.4488  0.4857
18590TIP3   OH277184   3.924   1.934   4.153 -0.5376 -0.7737  0.0197
18590TIP3    H177185   4.015   1.923   4.122 -0.9025 -0.5192 -1.2141
18590TIP3    H277186   3.871   1.915   4.076 -1.5936 -1.9316  0.9900
18591TIP3   OH277187   3.043   2.448   3.467 -0.2053  0.6962 -0.3719
18591TIP3    H177188   2.996   2.453   3.550 -0.1343  1.7428 -0.3840
18591TIP3    H277189   3.106   2.520   3.470  0.5089  0.1180 -0.9060
18592TIP3   OH277190   1.384   4.970   1.237  0.6682  0.5011 -0.1331
18592TIP3    H177191   1.388   5.065   1.243  1.0824  0.4480  0.4914
18592TIP3    H277192   1.475   4.941   1.250  0.7138  0.0710 -1.2861
18593TIP3   OH277193   3.185   3.367   1.029 -0.1809  1.0076 -0.7841
18593TIP3    H177194   3.248   3.317   0.979 -0.0330  0.6361 -0.2347
18593TIP3    H277195   3.203   3.345   1.120 -1.0697  0.9314 -0.6156
18594TIP3   OH277196   2.022   2.059   1.105  0.2881  0.6867 -0.4479
18594TIP3    H177197   2.029   1.972   1.065 -0.2086  0.3535  0.1753
18594TIP3    H277198   2.081   2.114   1.053 -1.0536  0.5125 -2.2425
18595TIP3   OH277199   1.152   2.670  11.256 -0.6801  0.4915 -0.1006
18595TIP3    H177200   1.075   2.619  11.230  0.1272  0.6620 -3.1405
18595TIP3    H277201   1.121   2.761  11.256 -0.7868  0.4556 -0.0956
18596TIP3   OH277202   1.701   3.506   6.412  0.6934  0.8806  0.5413
18596TIP3    H177203   1.773   3.488   6.351  0.4656 -0.1174  0.5397
18596TIP3    H277204   1.716   3.445   6.484 -1.1023 -0.6286 -0.2670
18597TIP3   OH277205   5.984   0.469   1.823 -0.0605 -0.5128 -0.2793
18597TIP3    H177206   5.967   0.534   1.755 -1.0542 -0.3074  0.1430
18597TIP3    H277207   5.920   0.400   1.807  0.9319 -1.3507 -0.6665
18598TIP3   OH277208   4.712   0.551   9.981 -0.3269 -0.2454  0.5561
18598TIP3    H177209   4.735   0.642   9.962 -0.6190 -0.4343 -0.7763
18598TIP3    H277210   4.622   0.555  10.013  0.1430  0.0684  1.9038
18599TIP3   OH277211   2.750   3.655  11.946  0.2677  0.7334 -0.0032
18599TIP3    H177212   2.709   3.586  11.894  0.8883  1.0368 -0.9359
18599TIP3    H277213   2.727   3.736  11.900  0.9551  0.9939  0.0998
18600TIP3   OH277214   2.108   2.770  11.946 -0.4181 -0.2268  0.0972
18600TIP3    H177215   2.093   2.862  11.969 -2.0309 -0.7177  1.1775
18600TIP3    H277216   2.041   2.750  11.880  0.2790 -0.4872 -0.5429
18601TIP3   OH277217   2.981   2.348  13.676  0.3400 -0.5124  0.2268
18601TIP3    H177218   3.077   2.353  13.677  0.3417 -0.5026  0.0375
18601TIP3    H277219   2.953   2.412  13.741  0.4236  0.4727 -0.6840
18602TIP3   OH277220   5.937   0.725  14.965 -0.3675  0.0778 -0.2279
18602TIP3    H177221   5.965   0.649  15.016  3.0245  0.6074 -1.0722
18602TIP3    H277222   5.931   0.693  14.875  2.2762  0.9108 -0.7989
18603TIP3   OH277223   1.881   5.707  11.154  0.2415 -0.2480  0.0553
18603TIP3    H177224   1.887   5.627  11.207 -1.4491 -0.3397  0.1854
18603TIP3    H277225   1.809   5.756  11.195  0.1900  0.5795 -0.9955
18604TIP3   OH277226   2.220   5.850   5.001  0.2303 -0.7236 -0.4770
18604TIP3    H177227   2.167   5.903   4.941  2.7460  0.9777 -1.3734
18604TIP3    H277228   2.308   5.852   4.963  1.2696 -2.2296  1.6648
18605TIP3   OH277229   6.827   3.148  16.381 -0.4152  0.4162 -0.0395
18605TIP3    H177230   6.854   3.174  16.293  1.7374  1.4758  0.8497
18605TIP3    H277231   6.909   3.146  16.431 -1.7672  1.9657  2.4529
18606TIP3   OH277232   0.175   0.401  15.340 -0.0971  0.0475  0.1561
18606TIP3    H177233   0.170   0.478  15.397  1.1927  1.1215 -1.1041
18606TIP3    H277234   0.125   0.425  15.262 -1.3064 -1.1611  0.5172
18607TIP3   OH277235   4.780   6.282  13.667 -0.0187  0.0706  0.4778
18607TIP3    H177236   4.750   6.266  13.756 -2.3909  0.2350 -0.2299
18607TIP3    H277237   4.800   6.376  13.664 -1.3359  0.3615  0.4713
18608TIP3   OH277238   0.447   4.691  11.352  0.2004 -0.4663  0.0779
18608TIP3    H177239   0.487   4.609  11.382  1.0148 -0.1297 -0.0821
18608TIP3    H277240   0.497   4.716  11.275  0.5593  0.6655  0.6541
18609TIP3   OH277241   6.531   1.353   1.317 -0.0690 -0.2578  0.4844
18609TIP3    H177242   6.595   1.312   1.375 -0.7052 -1.3564  0.4202
18609TIP3    H277243   6.579   1.371   1.236 -0.0812 -2.0246  0.0532
18610TIP3   OH277244   6.008   5.058   4.396 -0.3571  0.5526  0.3049
18610TIP3    H177245   5.960   5.029   4.473 -0.4605  2.0049  0.8252
18610TIP3    H277246   6.086   5.002   4.393  0.7828  1.8579  2.7691
18611TIP3   OH277247   3.887   0.959  13.330 -0.6414 -0.2914  0.5032
18611TIP3    H177248   3.964   0.903  13.325  0.1496  0.8892 -1.5803
18611TIP3    H277249   3.873   0.989  13.240 -0.5002  3.5354  1.5956
18612TIP3   OH277250   4.826   3.498  13.841  0.1709 -0.3025  0.2515
18612TIP3    H177251   4.914   3.500  13.803  0.2632  0.6933  0.4990
18612TIP3    H277252   4.799   3.406  13.833  0.6543 -0.3527 -1.1218
18613TIP3   OH277253   4.600   5.820   5.656 -0.3975  0.0881 -0.2336
18613TIP3    H177254   4.683   5.774   5.670 -0.0681  0.7615  0.1166
18613TIP3    H277255   4.566   5.836   5.744 -1.1993 -0.7024 -0.3951
18614TIP3   OH277256   3.897   5.158   2.904  0.0781  0.1965  0.8387
18614TIP3    H177257   3.914   5.127   2.815  0.6587  2.0512  0.2435
18614TIP3    H277258   3.942   5.243   2.908 -2.6405  1.7159  1.7724
18615TIP3   OH277259   0.718   2.062   0.585  0.1492  0.1237 -0.4225
18615TIP3    H177260   0.714   2.007   0.507 -0.1315 -0.3923 -0.0503
18615TIP3    H277261   0.789   2.124   0.567  0.1756 -0.0775 -1.0281
18616TIP3   OH277262   4.087   5.966  11.555  0.3471 -0.2729 -0.3701
18616TIP3    H177263   4.129   6.012  11.483  0.9270 -2.0487 -1.2113
18616TIP3    H277264   4.054   5.885  11.517 -0.8844 -0.4683  1.0024
18617TIP3   OH277265   5.875   4.993   1.673 -0.0518 -0.0778 -0.1717
18617TIP3    H177266   5.889   4.899   1.674  0.8469  0.0399 -0.5462
18617TIP3    H277267   5.865   5.015   1.580  0.3324  0.2645 -0.1369
18618TIP3   OH277268   1.478   5.014   3.424 -0.4773  0.0895 -0.2340
18618TIP3    H177269   1.560   4.988   3.466 -2.1151 -2.1692  1.8980
18618TIP3    H277270   1.470   5.107   3.442  1.2545  0.2107  0.1011
18619TIP3   OH277271   2.719   0.426  14.190  0.1252  0.5280  0.6369
18619TIP3    H177272   2.686   0.514  14.172 -0.5798  0.1951  0.2348
18619TIP3    H277273   2.699   0.377  14.110  1.9647  0.4023  0.2316
18620TIP3   OH277274   5.427   2.190  13.979 -0.1716 -0.1806 -0.2491
18620TIP3    H177275   5.520   2.212  13.984 -0.4144  0.6930  1.0384
18620TIP3    H277276   5.415   2.120  14.043 -0.3910 -0.3494 -0.4691
18621TIP3   OH277277   1.457   0.211  13.464 -0.5672  0.3414 -0.1342
18621TIP3    H177278   1.404   0.140  13.429 -0.4182  0.8213 -1.3968
18621TIP3    H277279   1.395   0.283  13.477 -0.8211 -0.1551  1.6675
18622TIP3   OH277280   5.817   0.858   4.495 -0.0252  0.3341  0.0340
18622TIP3    H177281   5.731   0.817   4.495  0.3525 -0.5576 -1.2033
18622TIP3    H277282   5.870   0.801   4.439  1.9236 -0.2511  2.3016
18623TIP3   OH277283   0.229   5.580  12.863 -0.3649  0.7715  0.2117
18623TIP3    H177284   0.215   5.496  12.907  1.1202  0.2275 -0.3041
18623TIP3    H277285   0.218   5.645  12.932 -0.4412  0.0914  0.8567
18624TIP3   OH277286   4.992   5.920  11.517  0.3495 -0.0369  0.3433
18624TIP3    H177287   5.050   5.865  11.570  1.4099  0.0633 -0.6621
18624TIP3    H277288   5.020   5.903  11.427 -0.1344  1.2222 -0.0566
18625TIP3   OH277289   5.981   5.814   3.880 -0.4245 -0.0868 -0.0575
18625TIP3    H177290   5.890   5.805   3.854 -1.5174 -0.9158  3.4452
18625TIP3    H277291   5.985   5.899   3.924 -0.5937 -1.5136  3.0108
18626TIP3   OH277292   6.417   4.709  14.292  0.1641 -0.4081 -0.0901
18626TIP3    H177293   6.493   4.753  14.330 -0.5618  2.2819 -1.4511
18626TIP3    H277294   6.349   4.718  14.359  0.6447 -1.6675  0.6016
18627TIP3   OH277295   4.686   2.359  11.944  0.1441  0.4912 -0.1165
18627TIP3    H177296   4.758   2.303  11.914 -0.6852  0.4742 -2.2217
18627TIP3    H277297   4.676   2.424  11.875 -2.4734 -0.0668 -0.3419
18628TIP3   OH277298   4.142   5.557   5.180 -0.1934  0.3869  0.0396
18628TIP3    H177299   4.174   5.597   5.099 -0.2999  2.2226  0.8339
18628TIP3    H277300   4.073   5.497   5.152 -0.0241  0.7557 -1.2574
18629TIP3   OH277301   5.607   3.633  11.346  0.7968 -0.1241 -0.2461
18629TIP3    H177302   5.523   3.631  11.301  0.1468  3.3212  0.5006
18629TIP3    H277303   5.667   3.585  11.289 -0.9688  0.1224 -2.4279
18630TIP3   OH277304   1.037   6.252   2.576  0.0818  0.0534 -0.6824
18630TIP3    H177305   0.978   6.327   2.566  2.6499  2.0220 -2.6943
18630TIP3    H277306   1.029   6.204   2.493 -1.9303 -2.3595  0.7831
18631TIP3   OH277307   5.590   0.036  15.978 -0.0774 -0.3872 -0.2047
18631TIP3    H177308   5.523   0.095  16.011  1.6753  1.0207  1.0390
18631TIP3    H277309   5.670   0.088  15.979  1.2562 -2.3288 -0.5953
18632TIP3   OH277310   2.140   5.577   6.058 -0.1059  0.1772  0.6558
18632TIP3    H177311   2.157   5.486   6.032  2.5088  0.1167  2.2729
18632TIP3    H277312   2.103   5.569   6.146  2.4910  0.6572  1.8776
18633TIP3   OH277313   1.481   4.007   1.318  0.1920  0.6775  0.1982
18633TIP3    H177314   1.556   4.059   1.291 -0.6650  1.6246 -0.4535
18633TIP3    H277315   1.409   4.070   1.324 -0.9816 -0.4744 -1.0465
18634TIP3   OH277316   0.233   3.702   5.458 -0.5221 -0.3769  0.3946
18634TIP3    H177317   0.217   3.788   5.420  0.6398 -0.9593 -1.5738
18634TIP3    H277318   0.282   3.720   5.538 -0.2076  0.8124 -0.0397
18635TIP3   OH277319   4.367   1.228  13.732 -0.0540  0.6143  0.4329
18635TIP3    H177320   4.299   1.169  13.766  0.4746 -0.7494 -0.7639
18635TIP3    H277321   4.436   1.169  13.702  1.5168  1.9697  1.2815
18636TIP3   OH277322   1.627   6.667   2.327  0.2693 -0.4931 -0.2286
18636TIP3    H177323   1.546   6.696   2.369  0.6608 -0.7002  0.6893
18636TIP3    H277324   1.635   6.724   2.250 -0.0003  0.5092  0.4616
18637TIP3   OH277325   4.004   3.988  14.749  0.2684  0.3273 -0.2646
18637TIP3    H177326   4.017   4.066  14.803 -1.6228 -0.0103  0.7323
18637TIP3    H277327   3.910   3.984  14.734 -0.0066 -2.9491  1.5419
18638TIP3   OH277328   6.849   5.220  13.053  0.1563  0.1699  0.0235
18638TIP3    H177329   6.817   5.138  13.090  1.3391 -0.9629 -1.3403
18638TIP3    H277330   6.782   5.284  13.075 -0.1449 -0.8427  2.3107
18639TIP3   OH277331   0.277   1.302   2.173 -0.2346 -0.1553  0.0096
18639TIP3    H177332   0.254   1.394   2.186 -2.0559 -0.4531 -0.7294
18639TIP3    H277333   0.253   1.260   2.256  1.0933  0.1030  0.5372
18640TIP3   OH277334   3.551   2.288   2.241 -0.1919 -0.0007 -0.0753
18640TIP3    H177335   3.612   2.229   2.286 -0.7789 -1.4174 -1.0543
18640TIP3    H277336   3.465   2.260   2.270 -0.4744  0.5514 -0.3708
18641TIP3   OH277337   4.077   4.145   1.211 -0.2725 -0.1294  0.8339
18641TIP3    H177338   4.046   4.232   1.186 -0.5915  0.0265  1.7524
18641TIP3    H277339   4.056   4.137   1.304 -1.3820 -1.6636  0.5006
18642TIP3   OH277340   4.246   5.696   4.008  0.5963 -0.4336  0.6178
18642TIP3    H177341   4.304   5.727   4.077 -0.4104 -0.7324  1.6257
18642TIP3    H277342   4.246   5.600   4.016 -0.6710 -0.4121  1.2007
18643TIP3   OH277343   2.544   5.522   2.534  0.1678  0.3904 -0.2049
18643TIP3    H177344   2.609   5.526   2.463  1.0260 -0.4028  0.5085
18643TIP3    H277345   2.474   5.467   2.498  2.0693 -2.8430  0.6101
18644TIP3   OH277346   4.898   3.784  12.838 -0.4417  0.0093  0.4978
18644TIP3    H177347   4.923   3.715  12.776 -1.7193 -0.1117  0.0882
18644TIP3    H277348   4.805   3.770  12.854 -0.5568  1.1810  1.0028
18645TIP3   OH277349   1.020   2.059  10.980  0.1985  0.6033  0.6066
18645TIP3    H177350   0.980   1.978  10.947  1.0117 -0.0971  1.2837
18645TIP3    H277351   1.068   2.094  10.905 -2.4277  2.0433 -0.5652
18646TIP3   OH277352   5.244   3.728  15.934  0.1021 -0.4418  0.3837
18646TIP3    H177353   5.169   3.764  15.887  1.4419 -0.4915 -1.9550
18646TIP3    H277354   5.316   3.731  15.871  2.2914  0.2643  2.7011
18647TIP3   OH277355   5.277   1.361   1.373  0.1984 -0.0137 -0.4197
18647TIP3    H177356   5.351   1.392   1.321  1.5413  0.5116  1.7080
18647TIP3    H277357   5.231   1.301   1.315  1.9686  0.0685 -1.9961
18648TIP3   OH277358   4.380   4.938  10.483 -0.1942 -0.0279 -0.1400
18648TIP3    H177359   4.462   4.910  10.443  2.3248  3.1523  2.2487
18648TIP3    H277360   4.349   5.009  10.427  1.3825  1.9513  1.3230
18649TIP3   OH277361   3.712   1.538  14.316 -0.0463 -0.4705 -0.1732
18649TIP3    H177362   3.678   1.456  14.351  0.2412 -1.4237 -2.0126
18649TIP3    H277363   3.644   1.602  14.336 -1.5375 -1.7058 -1.0032
18650TIP3   OH277364   0.984   0.480  15.815  0.0615 -0.4625  0.0280
18650TIP3    H177365   1.044   0.552  15.794 -0.2951 -0.5166 -1.2921
18650TIP3    H277366   0.999   0.416  15.745 -0.2943 -1.2638  0.6644
18651TIP3   OH277367   3.547   2.374  15.628 -0.4326 -0.1442  0.2036
18651TIP3    H177368   3.551   2.283  15.658  1.7831 -0.7304 -1.5781
18651TIP3    H277369   3.541   2.425  15.709  0.2647 -1.8051  1.3824
18652TIP3   OH277370   2.416   4.279  15.347 -0.7445  0.3890  0.3000
18652TIP3    H177371   2.404   4.242  15.259 -0.1863  0.5058  0.1719
18652TIP3    H277372   2.399   4.372  15.336  1.3576  0.7823 -0.1484
18653TIP3   OH277373   1.616   1.802  12.812 -0.2311 -0.1310  0.2878
18653TIP3    H177374   1.656   1.737  12.869  1.8002 -0.8212 -1.7905
18653TIP3    H277375   1.688   1.860  12.786 -1.6390  1.9010  0.6197
18654TIP3   OH277376   4.675   5.469  13.255 -0.2924  0.2674 -0.3096
18654TIP3    H177377   4.676   5.529  13.329 -0.4402 -0.7000  0.4945
18654TIP3    H277378   4.613   5.508  13.193 -1.5116  0.1944  0.8356
18655TIP3   OH277379   5.462   5.786  14.273  0.1974  0.0647  0.4382
18655TIP3    H177380   5.507   5.733  14.207 -0.8620 -0.4582  0.1149
18655TIP3    H277381   5.497   5.874  14.261  0.2526 -0.0843 -0.6123
18656TIP3   OH277382   5.852   5.767  14.199  0.1667 -0.2917  0.1418
18656TIP3    H177383   5.912   5.773  14.273 -0.3348  0.3265  0.5127
18656TIP3    H277384   5.853   5.854  14.160 -0.0598 -0.4340 -0.1868
18657TIP3   OH277385   0.821   5.734  12.987  0.3609  0.1300  0.0592
18657TIP3    H177386   0.728   5.741  13.009  0.8964 -0.2040  2.8467
18657TIP3    H277387   0.839   5.810  12.931 -1.3195  0.8703  0.4645
18658TIP3   OH277388   5.822   2.445   2.118 -0.4083  0.2180 -0.7696
18658TIP3    H177389   5.825   2.512   2.186  0.8847  1.2332 -1.7824
18658TIP3    H277390   5.813   2.362   2.166 -0.4262  0.9825  0.5770
18659TIP3   OH277391   1.849   2.717   0.851 -0.2767 -0.1527  0.0287
18659TIP3    H177392   1.759   2.695   0.875 -0.3099 -2.4155 -1.8404
18659TIP3    H277393   1.849   2.719   0.755  1.2760  1.7412  0.0024
18660TIP3   OH277394   6.120   1.848  14.234  0.5861  0.1344  0.5016
18660TIP3    H177395   6.075   1.787  14.292 -0.0613 -0.4852 -0.6254
18660TIP3    H277396   6.052   1.908  14.204  0.8660  0.3076  0.2054
18661TIP3   OH277397   5.112   5.254  15.936  0.6038 -0.3911 -0.0212
18661TIP3    H177398   5.042   5.195  15.908 -0.0245  0.6087 -0.5888
18661TIP3    H277399   5.188   5.225  15.885  1.0556 -2.4416  1.6681
18662TIP3   OH277400   4.511   6.618  16.414 -0.1047  0.1719 -0.1542
18662TIP3    H177401   4.464   6.536  16.424 -0.6489  0.5586  0.5755
18662TIP3    H277402   4.492   6.645  16.324 -0.0773 -0.4058 -0.3364
18663TIP3   OH277403   4.172   0.307   2.017 -0.1078 -0.8260 -0.6517
18663TIP3    H177404   4.081   0.329   2.038  0.4071  0.9889 -0.1533
18663TIP3    H277405   4.193   0.233   2.074 -1.4014 -1.5859 -1.1255
18664TIP3   OH277406   4.671   1.433  11.828 -0.0573  0.4211 -0.5536
18664TIP3    H177407   4.688   1.519  11.788 -1.7881  1.4830  0.8594
18664TIP3    H277408   4.595   1.400  11.781  0.8366 -0.5707 -1.3579
18665TIP3   OH277409   0.759   2.417   0.376 -0.4596 -0.1549 -0.4059
18665TIP3    H177410   0.717   2.389   0.294 -1.0863  0.1023 -0.1735
18665TIP3    H277411   0.811   2.493   0.351  0.5601 -0.9612 -0.8648
18666TIP3   OH277412   4.343   5.300   0.855 -0.1298 -0.5795  0.3144
18666TIP3    H177413   4.402   5.239   0.899  1.8289  0.4562 -0.7427
18666TIP3    H277414   4.321   5.257   0.773  0.7372 -0.1922 -0.1421
18667TIP3   OH277415   3.915   0.797   2.354  0.4254  0.7229 -0.0297
18667TIP3    H177416   3.926   0.727   2.290 -0.8021  2.6585 -2.5342
18667TIP3    H277417   3.831   0.779   2.396  0.9225 -0.1871  0.6165
18668TIP3   OH277418   4.397   5.963   0.150  0.0813 -0.2420 -0.9125
18668TIP3    H177419   4.364   5.913   0.224 -0.4088 -1.2468 -1.7746
18668TIP3    H277420   4.441   6.039   0.189  0.4868 -1.1306  0.4175
18669TIP3   OH277421   2.936   1.061   2.037 -0.4175  0.1630  0.5125
18669TIP3    H177422   2.862   1.103   1.994 -1.1108 -0.8799  0.6509
18669TIP3    H277423   2.939   1.101   2.124 -0.8481  0.1745  0.5212
18670TIP3   OH277424   1.355   0.383   1.546  0.4287  0.3542  0.4957
18670TIP3    H177425   1.292   0.415   1.481  0.1301 -0.4389  0.3843
18670TIP3    H277426   1.305   0.379   1.628  0.6363  0.7587  0.6452
18671TIP3   OH277427   6.467   0.175   5.855 -0.1597  0.5497  0.6681
18671TIP3    H177428   6.430   0.253   5.895 -1.4271 -0.6290  1.9139
18671TIP3    H277429   6.552   0.164   5.897 -0.5798  0.4938  1.5141
18672TIP3   OH277430   4.464   6.207  11.847 -0.1895  0.4052  0.1870
18672TIP3    H177431   4.504   6.279  11.895 -2.3120  0.0126  2.7408
18672TIP3    H277432   4.503   6.128  11.885  1.5576  0.0828 -2.0699
18673TIP3   OH277433   0.689   5.393  15.959 -0.1616 -0.2610  0.0371
18673TIP3    H177434   0.748   5.427  15.892  1.0629 -0.4068  0.9826
18673TIP3    H277435   0.747   5.370  16.032 -1.4762  0.3345  1.3356
18674TIP3   OH277436   0.781   2.339  12.478  0.1664 -0.1284 -0.1282
18674TIP3    H177437   0.789   2.295  12.563  0.9158 -1.6743 -0.9753
18674TIP3    H277438   0.690   2.325  12.452  0.0546 -0.0385  0.2084
18675TIP3   OH277439   1.731   4.354   2.373 -0.4200 -0.6925 -0.2466
18675TIP3    H177440   1.654   4.296   2.373 -1.0898  0.1646 -0.9428
18675TIP3    H277441   1.732   4.392   2.461 -0.2385 -1.4066  0.0683
18676TIP3   OH277442   0.116   5.737  14.956  0.6563 -0.5707  0.1643
18676TIP3    H177443   0.180   5.669  14.937 -0.1638 -2.2309  2.8307
18676TIP3    H277444   0.034   5.689  14.971 -0.6789  1.2867 -0.7961
18677TIP3   OH277445   1.531   5.482  16.256  0.0273  0.0095 -0.5149
18677TIP3    H177446   1.446   5.444  16.234  0.2437 -1.0837  0.4086
18677TIP3    H277447   1.591   5.446  16.191 -0.0886  0.1659 -0.7051
18678TIP3   OH277448   2.386   5.348   2.819 -0.3068 -0.4284 -0.2935
18678TIP3    H177449   2.398   5.353   2.724 -0.3263 -0.2242 -0.2858
18678TIP3    H277450   2.474   5.337   2.854 -0.3457 -0.9942 -0.3649
18679TIP3   OH277451   3.451   5.119   4.565 -0.4109  0.0832  0.3564
18679TIP3    H177452   3.388   5.047   4.569 -0.9961  0.4651 -1.1339
18679TIP3    H277453   3.412   5.188   4.619 -0.2540 -0.4180  1.1152
18680TIP3   OH277454   1.783   1.999  11.956  0.1960 -0.3873 -0.0296
18680TIP3    H177455   1.845   1.934  11.922 -0.5123 -0.5237 -1.1259
18680TIP3    H277456   1.817   2.022  12.042  2.7357  0.7905 -1.2203
18681TIP3   OH277457   3.404   4.849   3.385  0.0262  0.3644 -0.1408
18681TIP3    H177458   3.437   4.781   3.328 -0.3711 -1.4089  1.6159
18681TIP3    H277459   3.441   4.930   3.351  0.3694 -0.6867 -2.4178
18682TIP3   OH277460   1.304   4.182   0.461 -0.0179 -0.0851 -0.3739
18682TIP3    H177461   1.250   4.240   0.514 -0.8222 -1.0469 -0.1200
18682TIP3    H277462   1.390   4.183   0.503 -0.1292  0.6260 -0.1625
18683TIP3   OH277463   0.092   4.284   3.403 -0.3598  0.6053  0.0581
18683TIP3    H177464   0.174   4.238   3.420 -0.5160 -0.0121 -0.7890
18683TIP3    H277465   0.054   4.300   3.490  1.1256  1.8040  0.5306
18684TIP3   OH277466   4.432   5.901  15.573 -0.3976  0.7301 -0.2863
18684TIP3    H177467   4.365   5.870  15.512 -0.1239 -1.3336  0.4032
18684TIP3    H277468   4.382   5.928  15.651 -0.5458  0.8081 -0.4063
18685TIP3   OH277469   1.189   4.420   0.523  0.3560 -0.6508  0.1424
18685TIP3    H177470   1.203   4.476   0.599 -0.0056 -1.6155  0.9355
18685TIP3    H277471   1.173   4.481   0.451 -0.2822  0.2576  1.0348
18686TIP3   OH277472   2.829   6.656  10.550  0.5092 -0.2483 -0.1585
18686TIP3    H177473   2.849   6.687  10.461  1.3046  0.0869  0.1308
18686TIP3    H277474   2.898   6.693  10.604 -1.4820  1.8917  1.1064
18687TIP3   OH277475   3.968   4.006  15.233 -0.3527 -0.1846  0.1869
18687TIP3    H177476   4.014   4.066  15.293 -1.6714  1.0624  0.0081
18687TIP3    H277477   3.925   4.064  15.170 -1.6989 -1.3243  0.0121
18688TIP3   OH277478   5.394   4.065  15.833 -0.4581  0.1636 -0.1477
18688TIP3    H177479   5.393   4.144  15.779 -0.1597 -0.5273 -1.2010
18688TIP3    H277480   5.321   4.012  15.798 -0.8128  0.0713  0.7080
18689TIP3   OH277481   4.219   4.854  12.345  0.4171  0.0413 -1.0684
18689TIP3    H177482   4.154   4.909  12.301  1.9586  1.9012 -1.1776
18689TIP3    H277483   4.285   4.837  12.277  0.8215 -0.4768 -0.5539
18690TIP3   OH277484   2.663   1.513   0.389  0.0842  0.1051  0.5862
18690TIP3    H177485   2.673   1.520   0.294  0.6157 -1.9745  0.4469
18690TIP3    H277486   2.753   1.505   0.421 -0.1035  0.6611  1.2661
18691TIP3   OH277487   3.557   6.750   0.569  0.1860  0.1763 -0.3294
18691TIP3    H177488   3.522   6.664   0.548  2.1126 -0.8178  0.2477
18691TIP3    H277489   3.652   6.740   0.558  0.7236  1.3724  2.4782
18692TIP3   OH277490   2.721   0.111   5.254  0.5851  0.0073 -0.5940
18692TIP3    H177491   2.640   0.159   5.235  0.8847  0.2856 -1.2065
18692TIP3    H277492   2.786   0.180   5.270  0.6762 -0.2152  0.0073
18693TIP3   OH277493   6.873   1.589   1.026  0.1008  0.1656 -0.3695
18693TIP3    H177494   6.852   1.571   0.934 -0.8657  0.5968 -0.2489
18693TIP3    H277495   6.968   1.582   1.031  0.1694  0.2097 -1.4263
18694TIP3   OH277496   4.639   5.827   3.680  0.0996  0.5420 -0.7568
18694TIP3    H177497   4.672   5.915   3.698  0.8215  0.0820  0.2376
18694TIP3    H277498   4.580   5.808   3.753  0.3794 -0.0148 -0.6747
18695TIP3   OH277499   6.710   2.509  11.818 -0.1739  0.1491 -0.1920
18695TIP3    H177500   6.786   2.567  11.826 -0.0093 -0.1380  0.4316
18695TIP3    H277501   6.715   2.453  11.896 -0.9542  0.0416 -0.2121
18696TIP3   OH277502   2.263   1.077  15.407  0.0307 -0.7672  0.5518
18696TIP3    H177503   2.198   1.026  15.358 -0.6890  1.0055 -0.4686
18696TIP3    H277504   2.316   1.119  15.339  0.4609 -0.0217  1.3294
18697TIP3   OH277505   5.912   1.276  15.822 -0.0218  0.3902 -0.6236
18697TIP3    H177506   6.006   1.277  15.836 -0.0438 -0.7035 -0.2507
18697TIP3    H277507   5.881   1.359  15.858  0.5801 -0.0637  1.0376
18698TIP3   OH277508   3.328   4.306   1.429  0.0595  0.1588 -0.0264
18698TIP3    H177509   3.341   4.384   1.375  0.3791  0.5240  0.5709
18698TIP3    H277510   3.409   4.297   1.479 -0.8570  0.8627  1.6921
18699TIP3   OH277511   3.631   3.803  15.617  0.0072  0.5490  0.1769
18699TIP3    H177512   3.646   3.871  15.551  0.6475 -1.5764 -2.0327
18699TIP3    H277513   3.710   3.804  15.670 -0.0158  1.5441  0.2260
18700TIP3   OH277514   3.987   2.003  13.094 -0.1246  0.0661 -0.2762
18700TIP3    H177515   3.998   2.062  13.019 -0.2831  1.5035  0.8000
18700TIP3    H277516   3.964   1.919  13.054 -1.2383  1.0293 -1.7992
18701TIP3   OH277517   5.881   1.191  16.098 -0.5875  0.0706 -0.4543
18701TIP3    H177518   5.853   1.215  16.010  2.8409  1.2987 -1.3650
18701TIP3    H277519   5.931   1.110  16.086  0.4887  0.6141  0.2036
18702TIP3   OH277520   3.913   6.204  16.639  0.0580 -0.2484 -0.3719
18702TIP3    H177521   3.991   6.148  16.637 -0.4989 -1.0653 -0.1111
18702TIP3    H277522   3.922   6.254  16.720 -0.4299 -1.4809  0.4872
18703TIP3   OH277523   1.160   6.517  14.632 -0.5240 -0.3721  0.0171
18703TIP3    H177524   1.108   6.448  14.674  0.9416 -0.5951  1.5914
18703TIP3    H277525   1.175   6.485  14.543 -4.6929  0.6272 -1.2639
18704TIP3   OH277526   3.192   2.202   3.656 -0.5907  0.4722 -0.9689
18704TIP3    H177527   3.149   2.258   3.721 -0.7305 -2.4918  1.7425
18704TIP3    H277528   3.119   2.160   3.609 -0.5454  0.0911 -0.6977
18705TIP3   OH277529   6.620   0.330  12.867  0.0970 -0.0797  0.0187
18705TIP3    H177530   6.706   0.370  12.851  0.3087  0.8235  2.8350
18705TIP3    H277531   6.565   0.361  12.795  2.0251 -0.5583 -1.7761
18706TIP3   OH277532   0.499   0.990  15.570 -0.3084 -0.1185 -0.3144
18706TIP3    H177533   0.587   0.954  15.582 -0.5449 -1.0282 -1.1654
18706TIP3    H277534   0.483   1.040  15.651  0.9510  0.0224 -0.1185
18707TIP3   OH277535   2.911   2.148  11.968  0.3486 -0.1062 -0.8336
18707TIP3    H177536   2.938   2.233  12.001  0.2312 -0.2693 -0.3142
18707TIP3    H277537   2.978   2.126  11.903 -1.3385  1.8531 -3.4489
18708TIP3   OH277538   5.795   4.643  15.168  0.4195 -0.3119  0.3023
18708TIP3    H177539   5.700   4.635  15.178  0.1843  1.4830 -0.2220
18708TIP3    H277540   5.817   4.581  15.100 -0.0888 -2.0394  1.6297
18709TIP3   OH277541   5.629   6.441  13.432  0.5799 -0.4419  0.1613
18709TIP3    H177542   5.648   6.407  13.345  0.2399  0.0178 -0.0920
18709TIP3    H277543   5.541   6.410  13.452  0.8936 -1.0664  0.5999
18710TIP3   OH277544   4.275   4.992   0.101  0.2440 -0.1753  0.3684
18710TIP3    H177545   4.352   4.987   0.044 -0.5269 -1.4089 -0.6472
18710TIP3    H277546   4.214   5.050   0.054  0.1066 -0.1437  0.5856
18711TIP3   OH277547   0.363   6.098   5.556  0.2757 -0.6651  0.0127
18711TIP3    H177548   0.360   6.175   5.500 -0.0817 -0.2903  0.5299
18711TIP3    H277549   0.442   6.109   5.609 -0.8563  0.4275  1.5563
18712TIP3   OH277550   0.168   2.895  16.519 -0.3517 -0.8248 -0.1194
18712TIP3    H177551   0.176   2.990  16.532  0.6502 -0.6689 -1.5005
18712TIP3    H277552   0.169   2.885  16.423 -0.6788 -2.2090  0.0119
18713TIP3   OH277553   6.775   0.562  13.372 -0.0287  0.2301 -0.2465
18713TIP3    H177554   6.820   0.505  13.436 -2.8513 -1.7345  0.1520
18713TIP3    H277555   6.745   0.502  13.304  0.0199  1.8334 -1.7304
18714TIP3   OH277556   3.538   0.367   2.266  0.3629 -0.2525 -0.2363
18714TIP3    H177557   3.611   0.314   2.233  0.6223  0.8962 -1.6089
18714TIP3    H277558   3.461   0.330   2.223  0.3888 -0.2466 -0.2878
18715TIP3   OH277559   4.837   4.231  13.432 -0.6743 -0.4195  0.1414
18715TIP3    H177560   4.771   4.162  13.440 -0.2245 -0.6644  2.6695
18715TIP3    H277561   4.792   4.311  13.462 -0.7115  0.0808 -1.1913
18716TIP3   OH277562   6.218   0.966   3.704  0.0175 -0.0202  0.1216
18716TIP3    H177563   6.163   0.939   3.630 -1.4003  2.5731  0.1006
18716TIP3    H277564   6.271   1.037   3.669 -0.2749  0.8662  1.4240
18717TIP3   OH277565   5.919   1.216   1.783  0.5273 -0.0397 -0.0009
18717TIP3    H177566   5.846   1.274   1.808  0.1442  0.5013 -2.2095
18717TIP3    H277567   5.908   1.139   1.839  0.2724  1.4324  2.0953
18718TIP3   OH277568   4.858   0.116  13.108 -0.5080 -0.8149  0.1809
18718TIP3    H177569   4.931   0.057  13.089 -1.6913 -2.4720  0.5488
18718TIP3    H277570   4.788   0.059  13.139 -2.1881  0.6356 -0.7397
18719TIP3   OH277571   1.648   2.199  16.274  0.4348 -0.2313  0.9921
18719TIP3    H177572   1.678   2.249  16.350  1.6938 -0.3185  0.5783
18719TIP3    H277573   1.722   2.142  16.252 -0.1357 -0.6378  0.0729
18720TIP3   OH277574   3.457   2.792  11.913  0.3362  0.4576 -0.6228
18720TIP3    H177575   3.413   2.720  11.958  1.9072 -1.0618 -1.4081
18720TIP3    H277576   3.408   2.870  11.939 -1.3575 -0.8614  0.3432
18721TIP3   OH277577   5.502   1.560   1.004  0.0254 -0.0937 -0.2568
18721TIP3    H177578   5.558   1.514   1.066 -1.1674  0.2017  1.1321
18721TIP3    H277579   5.413   1.529   1.025 -0.4522  0.3254 -1.5665
18722TIP3   OH277580   6.555   3.446   0.962  0.0005  0.6744  0.1454
18722TIP3    H177581   6.629   3.397   0.997  0.3994 -0.3579 -1.9864
18722TIP3    H277582   6.594   3.501   0.893 -1.0351  1.1394 -0.0843
18723TIP3   OH277583   1.340   2.853  16.347  0.4295  0.0422 -0.3223
18723TIP3    H177584   1.246   2.862  16.361  0.1220  0.2054 -2.2623
18723TIP3    H277585   1.357   2.759  16.358 -0.2419 -0.2198 -1.4515
18724TIP3   OH277586   2.553   0.238  12.691  0.2212 -0.2506  0.1719
18724TIP3    H177587   2.581   0.324  12.659  0.7551  0.2050  1.7434
18724TIP3    H277588   2.619   0.215  12.757 -1.9997 -0.0199  2.6579
18725TIP3   OH277589   5.370   1.606   3.153 -0.0733  0.2164 -0.4233
18725TIP3    H177590   5.443   1.649   3.199  1.1551 -0.2814 -1.8378
18725TIP3    H277591   5.294   1.661   3.173  0.7828  1.0528  0.6686
18726TIP3   OH277592   1.258   1.311  14.863 -0.0400 -0.5288  0.1351
18726TIP3    H177593   1.316   1.345  14.794  0.2278  0.1768  0.6959
18726TIP3    H277594   1.189   1.265  14.815  0.2532 -0.2264 -0.6008
18727TIP3   OH277595   1.951   3.189  16.265 -0.3182  0.3525  0.6158
18727TIP3    H177596   1.935   3.129  16.192 -1.9124  0.3512  0.9302
18727TIP3    H277597   1.885   3.257  16.254  1.3042  1.9711  0.3959
18728TIP3   OH277598   6.599   6.180   2.879 -0.1376  0.0595 -0.1614
18728TIP3    H177599   6.573   6.122   2.950 -0.1703  1.1314  0.7384
18728TIP3    H277600   6.695   6.177   2.880 -0.1036  0.8459  0.6281
18729TIP3   OH277601   3.968   1.845  15.210  0.1892 -0.2356 -0.1907
18729TIP3    H177602   3.891   1.845  15.267 -0.5349 -0.0207 -1.1290
18729TIP3    H277603   4.014   1.764  15.232 -0.1066 -0.1817  0.6494
18730TIP3   OH277604   2.435   0.028  12.072 -0.1438 -0.2437  0.1189
18730TIP3    H177605   2.518   0.066  12.042  0.6879 -1.5036  0.7421
18730TIP3    H277606   2.369   0.069  12.016  1.1474 -1.0943 -2.2034
18731TIP3   OH277607   1.213   0.456   1.786  0.9162  0.2506 -0.6798
18731TIP3    H177608   1.283   0.439   1.849  0.2089  0.3773  0.1635
18731TIP3    H277609   1.217   0.550   1.770 -1.3573  1.0232  2.2771
18732TIP3   OH277610   2.270   1.014  12.356 -0.0407  0.3979  1.0073
18732TIP3    H177611   2.186   0.987  12.317 -0.6767 -0.7236  2.9760
18732TIP3    H277612   2.250   1.097  12.398  0.7682  1.8549 -1.3014
18733TIP3   OH277613   0.415   6.206   2.158  0.5339 -0.3007 -0.0620
18733TIP3    H177614   0.444   6.116   2.141 -1.0624 -0.8917  0.0916
18733TIP3    H277615   0.319   6.202   2.149  0.5064  1.6447 -1.1778
18734TIP3   OH277616   1.674   5.221  11.390 -0.5051  0.4057  0.1328
18734TIP3    H177617   1.767   5.201  11.379 -0.6117 -0.9660  1.3668
18734TIP3    H277618   1.630   5.159  11.332 -0.6885  0.4211  0.2578
18735TIP3   OH277619   3.801   6.723  10.804 -0.2886 -0.1988  0.0595
18735TIP3    H177620   3.799   6.762  10.891  0.5531 -0.6069  0.2699
18735TIP3    H277621   3.886   6.749  10.768 -0.9389  0.6124 -0.9462
18736TIP3   OH277622   1.621   6.140   4.757  0.1885 -0.1417  0.1355
18736TIP3    H177623   1.599   6.232   4.748 -0.1388 -0.0357  1.7087
18736TIP3    H277624   1.594   6.117   4.846 -1.9604 -2.3632 -0.9590
18737TIP3   OH277625   2.581   1.222  14.626 -0.4582 -0.4318  0.3469
18737TIP3    H177626   2.642   1.234  14.552 -0.3987  0.7240  0.5762
18737TIP3    H277627   2.620   1.150  14.676 -0.3893 -1.1017 -0.6273
18738TIP3   OH277628   1.367   6.653   5.303 -0.2306 -0.8041  0.1614
18738TIP3    H177629   1.334   6.726   5.355 -1.0802 -1.9279  1.2435
18738TIP3    H277630   1.296   6.634   5.241  0.5056  0.0888 -1.0074
18739TIP3   OH277631   1.396   6.532   1.744 -0.6123 -0.1388  0.0246
18739TIP3    H177632   1.374   6.453   1.793  1.5057 -2.2499 -2.1708
18739TIP3    H277633   1.322   6.544   1.684 -0.5756 -0.9845 -0.2030
18740TIP3   OH277634   6.377   1.480   2.792  0.0613  0.9188 -0.5112
18740TIP3    H177635   6.374   1.385   2.782 -0.6110  0.8782 -0.0351
18740TIP3    H277636   6.438   1.495   2.864  0.5114  0.8774 -0.8818
18741TIP3   OH277637   0.806   0.798   2.693 -0.0700  0.0241  0.4492
18741TIP3    H177638   0.835   0.861   2.628 -0.6505  0.3330  0.4823
18741TIP3    H277639   0.824   0.713   2.654 -0.8927  0.1950 -0.3534
18742TIP3   OH277640   3.161   1.780   4.105  0.2935 -0.4594  0.8949
18742TIP3    H177641   3.222   1.810   4.038 -0.2655 -1.0134  0.1162
18742TIP3    H277642   3.108   1.856   4.126 -0.8717 -0.7624 -0.7930
18743TIP3   OH277643   0.727   3.434   3.217 -0.6259  0.1634 -0.1454
18743TIP3    H177644   0.789   3.484   3.164  0.1979  1.1780  1.6492
18743TIP3    H277645   0.756   3.450   3.307 -1.9474 -1.4734  0.6115
18744TIP3   OH277646   0.195   0.893   0.642 -0.6240 -0.1221  1.0418
18744TIP3    H177647   0.131   0.901   0.571 -0.5117  0.9414  1.0459
18744TIP3    H277648   0.168   0.813   0.689  0.1220 -1.6646 -0.9881
18745TIP3   OH277649   4.438   2.119   1.769 -0.3014  0.0650 -0.0603
18745TIP3    H177650   4.532   2.120   1.753 -0.2296 -1.2757  0.1907
18745TIP3    H277651   4.403   2.185   1.709  0.8390  0.9738  0.2297
18746TIP3   OH277652   1.853   2.332   0.046 -0.1752  0.3401  0.4674
18746TIP3    H177653   1.833   2.404   0.106 -1.1390 -0.0452  0.6278
18746TIP3    H277654   1.948   2.320   0.053 -0.1341  0.9950  1.1195
18747TIP3   OH277655   0.767   5.773  16.181 -0.0282  0.1249 -0.7299
18747TIP3    H177656   0.694   5.718  16.207 -0.3242  0.3943 -0.9863
18747TIP3    H277657   0.825   5.774  16.257 -0.9279  0.9869 -0.0330
18748TIP3   OH277658   1.282   5.853   1.912 -0.8055 -0.4977 -0.1248
18748TIP3    H177659   1.334   5.819   1.985  0.9472  0.4077 -0.9008
18748TIP3    H277660   1.210   5.791   1.903 -0.3002 -1.3718  1.4861
18749TIP3   OH277661   2.720   1.022   4.292  0.6050 -0.0741  0.4079
18749TIP3    H177662   2.775   0.967   4.348  1.1500 -0.7880 -0.7967
18749TIP3    H277663   2.656   1.061   4.352  1.4346 -0.4741  1.5833
18750TIP3   OH277664   3.833   4.145  12.459 -0.3067 -0.3224  0.3580
18750TIP3    H177665   3.828   4.155  12.364 -1.2142  1.7848  0.5788
18750TIP3    H277666   3.917   4.184  12.483  0.1298 -1.2536  0.4164
18751TIP3   OH277667   0.528   2.677  16.598  0.1279  0.4152 -0.2032
18751TIP3    H177668   0.512   2.677  16.692 -0.1191  0.2210 -0.2435
18751TIP3    H277669   0.611   2.629  16.588  0.7848  1.4903  0.0131
18752TIP3   OH277670   4.248   2.517   4.793 -0.2114  0.1404 -0.0813
18752TIP3    H177671   4.161   2.492   4.762 -1.4524  1.1151  2.3052
18752TIP3    H277672   4.285   2.570   4.722 -0.6873 -1.9072 -1.9640
18753TIP3   OH277673   4.947   3.879  16.045 -0.0044  0.8085 -0.2470
18753TIP3    H177674   5.002   3.950  16.079  0.3544  0.4506 -0.0749
18753TIP3    H277675   4.860   3.919  16.035 -0.0545  0.9844  0.8506
18754TIP3   OH277676   6.195   6.021  13.082 -0.0926 -0.1370  0.2281
18754TIP3    H177677   6.253   5.966  13.134  0.8208 -0.2526 -0.8855
18754TIP3    H277678   6.165   5.965  13.011  0.1715  0.5486 -0.4431
18755TIP3   OH277679   3.380   5.329  12.515 -0.1313  0.4648 -0.6910
18755TIP3    H177680   3.325   5.379  12.575 -0.2185  1.2705 -1.4414
18755TIP3    H277681   3.442   5.283  12.573 -1.6366 -0.5744  0.1828
18756TIP3   OH277682   4.799   3.742  13.745 -0.3837  0.0818 -0.0339
18756TIP3    H177683   4.719   3.779  13.781  0.0202  0.6230  0.3340
18756TIP3    H277684   4.805   3.654  13.782 -0.7432  0.0860  0.0288
18757TIP3   OH277685   1.727   0.843  15.312  0.4723 -0.4484  0.5006
18757TIP3    H177686   1.643   0.844  15.357 -0.8206  1.1167 -1.7262
18757TIP3    H277687   1.731   0.758  15.268  0.4503 -0.8432  1.2472
18758TIP3   OH277688   0.363   1.530   5.141  0.2292 -0.2919 -0.5801
18758TIP3    H177689   0.400   1.489   5.219  0.1022  1.3091  0.3793
18758TIP3    H277690   0.367   1.463   5.073  1.4066 -1.3545  0.5040
18759TIP3   OH277691   6.084   4.898   2.430  0.0499  0.1055  0.3659
18759TIP3    H177692   6.088   4.897   2.526 -0.7772 -1.1701  0.4117
18759TIP3    H277693   6.036   4.819   2.407  0.5040  0.2296 -1.1327
18760TIP3   OH277694   6.552   6.524   1.867  0.0994 -0.9660  0.0957
18760TIP3    H177695   6.634   6.573   1.855 -0.4983  0.1043  0.2866
18760TIP3    H277696   6.514   6.521   1.779  1.2895 -3.2450 -0.4122
18761TIP3   OH277697   1.245   0.670  12.427 -0.0807 -0.0712  0.1259
18761TIP3    H177698   1.284   0.751  12.394  2.0272 -0.5339  1.2659
18761TIP3    H277699   1.287   0.656  12.512 -0.7320 -2.1194  0.1705
18762TIP3   OH277700   1.852   1.227  11.394  0.3619  0.1511  0.2370
18762TIP3    H177701   1.767   1.218  11.436  1.4948 -1.1852  2.4416
18762TIP3    H277702   1.847   1.171  11.317 -1.2344  1.3424 -0.5766
18763TIP3   OH277703   3.952   5.636  10.493 -0.5275  0.1617  0.2652
18763TIP3    H177704   3.958   5.576  10.567 -1.1984 -1.0951 -0.6663
18763TIP3    H277705   4.039   5.675  10.486 -0.0985 -0.6656  0.9266
18764TIP3   OH277706   3.237   1.301  11.632  0.3974  0.0684  0.0142
18764TIP3    H177707   3.163   1.360  11.630  0.6035  0.3873  1.1465
18764TIP3    H277708   3.206   1.225  11.681  0.3742 -0.4482 -0.7747
18765TIP3   OH277709   3.936   5.640  13.988 -0.0249 -0.1408  0.4425
18765TIP3    H177710   3.859   5.689  13.959  0.8415  0.8579 -0.1885
18765TIP3    H277711   3.910   5.604  14.073 -1.7738 -1.1949 -0.4741
18766TIP3   OH277712   0.810   2.752  16.150  0.3272 -0.5674 -0.6011
18766TIP3    H177713   0.839   2.661  16.152 -1.4321 -1.1758 -0.9201
18766TIP3    H277714   0.772   2.764  16.064  0.8758  0.6137 -0.7075
18767TIP3   OH277715   5.720   6.782  15.804  1.0622 -0.0494  0.1515
18767TIP3    H177716   5.780   6.835  15.752  0.0232  1.0174  0.0010
18767TIP3    H277717   5.667   6.845  15.852  0.3295 -0.9672  0.5946
18768TIP3   OH277718   1.593   0.445   0.974 -0.4483  0.1861  0.0579
18768TIP3    H177719   1.532   0.383   1.015 -0.5746  0.4698  0.3153
18768TIP3    H277720   1.598   0.418   0.883 -0.4227 -0.2607  0.1909
18769TIP3   OH277721   6.673   2.388  11.586  0.4653 -0.0460  0.3899
18769TIP3    H177722   6.762   2.356  11.575 -0.1255 -1.7139  0.0252
18769TIP3    H277723   6.671   2.423  11.675  1.4139 -0.2071  0.4838
18770TIP3   OH277724   2.045   4.380  10.420 -0.4027  0.5952  0.8284
18770TIP3    H177725   2.023   4.291  10.447  1.9873 -1.3242 -2.6981
18770TIP3    H277726   1.970   4.408  10.367  0.1599 -0.7787 -0.7879
18771TIP3   OH277727   6.383   1.358  13.731 -0.2101  0.6999 -0.4322
18771TIP3    H177728   6.359   1.342  13.822 -3.4257 -2.4025 -1.6147
18771TIP3    H277729   6.342   1.442  13.710 -0.0380  1.0987  0.7507
18772TIP3   OH277730   3.332   1.020  16.611 -0.3548  0.1835  0.0177
18772TIP3    H177731   3.283   1.096  16.643  1.0978  0.9477  0.5026
18772TIP3    H277732   3.421   1.035  16.641  0.5240 -0.4106 -2.1478
18773TIP3   OH277733   6.406   0.090  15.240  0.5969  0.1162  0.8479
18773TIP3    H177734   6.422   0.023  15.174  0.1143  0.3664  0.4675
18773TIP3    H277735   6.481   0.084  15.300  1.0596 -0.0787  0.2527
18774TIP3   OH277736   1.716   3.151   1.480  0.2775  0.5608 -0.3954
18774TIP3    H177737   1.696   3.067   1.522  2.1476 -0.2065 -0.9431
18774TIP3    H277738   1.733   3.129   1.389  1.6803  1.3937 -0.3581
18775TIP3   OH277739   0.510   5.438  11.195 -0.1235  0.0739  0.2524
18775TIP3    H177740   0.494   5.518  11.245 -1.0805 -1.1836  2.1320
18775TIP3    H277741   0.587   5.399  11.237  2.2301  1.3979 -2.5807
18776TIP3   OH277742   6.419   0.503  16.447 -0.1680 -0.3386  0.2003
18776TIP3    H177743   6.386   0.495  16.537 -1.0015 -2.5336 -0.2294
18776TIP3    H277744   6.422   0.413  16.415 -2.3381  0.4980 -2.8398
18777TIP3   OH277745   0.413   4.503   2.893  0.3606 -0.1627  0.3706
18777TIP3    H177746   0.409   4.585   2.942  1.2715 -0.1729  0.4942
18777TIP3    H277747   0.506   4.478   2.897  0.4821 -0.1383 -1.4064
18778TIP3   OH277748   4.388   6.388   3.801  0.0024  0.5190  0.1019
18778TIP3    H177749   4.323   6.451   3.830 -0.5569  0.3941 -0.8320
18778TIP3    H277750   4.368   6.308   3.849 -0.6721  0.4253 -0.3271
18779TIP3   OH277751   4.819   0.295   4.530  0.0626 -0.1509 -0.5455
18779TIP3    H177752   4.867   0.337   4.459 -1.3481  1.7085 -0.4654
18779TIP3    H277753   4.877   0.304   4.606 -0.9064  3.5524 -0.0500
18780TIP3   OH277754   6.715   6.282   3.204 -0.5051 -0.2278  0.3270
18780TIP3    H177755   6.746   6.238   3.283  0.4793  0.4725  0.3493
18780TIP3    H277756   6.620   6.288   3.216 -0.3713 -0.1287  1.4608
18781TIP3   OH277757   4.155   0.866  11.789 -0.3829  0.0214  0.5672
18781TIP3    H177758   4.113   0.839  11.707  0.6096 -0.4318  0.1950
18781TIP3    H277759   4.110   0.947  11.813  0.1558  0.8661 -1.1121
18782TIP3   OH277760   4.824   3.580   0.831  0.5601 -0.3113  0.0598
18782TIP3    H177761   4.766   3.651   0.802  1.3557  0.1984 -0.3081
18782TIP3    H277762   4.910   3.621   0.839  0.5650 -0.6513  2.2751
18783TIP3   OH277763   3.233   5.370  11.267  0.5241  0.1870  0.2009
18783TIP3    H177764   3.179   5.409  11.337  1.2859  0.5619  0.5898
18783TIP3    H277765   3.280   5.299  11.310  0.5566  0.0443 -0.0704
18784TIP3   OH277766   4.595   1.196  13.225 -0.3614 -0.6830  0.2466
18784TIP3    H177767   4.684   1.213  13.195  0.8590 -1.2526  3.1632
18784TIP3    H277768   4.542   1.195  13.145  2.0180  0.8378 -1.4916
18785TIP3   OH277769   6.077   3.504   0.944 -0.2654  0.0209 -0.4830
18785TIP3    H177770   6.152   3.444   0.940 -0.3281 -0.3763  2.2653
18785TIP3    H277771   6.112   3.588   0.915  0.0359 -1.0553 -3.6074
18786TIP3   OH277772   3.876   2.496   0.619  0.2204 -0.3407  0.0694
18786TIP3    H177773   3.837   2.417   0.580 -0.8100 -0.2365  0.8658
18786TIP3    H277774   3.968   2.492   0.593  0.1181 -1.6447 -0.1623
18787TIP3   OH277775   4.884   1.253   3.770  0.3574  0.4169 -0.3972
18787TIP3    H177776   4.878   1.213   3.857 -2.2245  2.1907  0.3549
18787TIP3    H277777   4.910   1.344   3.788 -1.2348  1.0992 -1.3136
18788TIP3   OH277778   6.626   2.372  15.032  0.5753  0.5314  0.1190
18788TIP3    H177779   6.694   2.341  15.092  0.1685  1.1286  0.9052
18788TIP3    H277780   6.628   2.467  15.040 -0.9003  0.5298  0.7803
18789TIP3   OH277781   3.466   1.490  10.220 -0.1998 -0.5371  0.0077
18789TIP3    H177782   3.516   1.443  10.287 -1.5558 -2.0993 -0.0148
18789TIP3    H277783   3.374   1.477  10.246 -0.7741 -1.3492 -2.2173
18790TIP3   OH277784   3.160   4.024  16.007  0.0958 -0.5957  0.7295
18790TIP3    H177785   3.230   3.970  16.044 -0.7944 -0.6893  2.3610
18790TIP3    H277786   3.083   3.967  16.008 -0.3818  0.0302  0.5000
18791TIP3   OH277787   2.019   5.781   4.246 -0.4042  0.0624 -0.1665
18791TIP3    H177788   2.068   5.855   4.280  0.4294  0.2801 -1.7561
18791TIP3    H277789   2.001   5.804   4.154  0.7950 -2.1122 -1.0164
18792TIP3   OH277790   3.033   0.409   2.111  0.2098  0.3171 -0.0177
18792TIP3    H177791   3.089   0.459   2.051  1.7330  0.4923  1.4616
18792TIP3    H277792   2.951   0.458   2.114 -0.3847 -0.3031 -2.7672
18793TIP3   OH277793   4.675   6.565  12.629  0.1252  0.5688 -0.3740
18793TIP3    H177794   4.708   6.612  12.706  1.3821 -2.0515  0.8237
18793TIP3    H277795   4.725   6.601  12.556  1.9957  0.2501  0.6879
18794TIP3   OH277796   1.449   2.071  11.148 -0.0105 -0.0378 -0.0197
18794TIP3    H177797   1.539   2.101  11.161 -0.3346  0.9626  0.0030
18794TIP3    H277798   1.413   2.129  11.081 -0.5041 -0.7174 -0.3553
18795TIP3   OH277799   5.833   5.980   1.178 -0.0398 -0.6644  0.3355
18795TIP3    H177800   5.805   5.914   1.114  0.7201  0.3179 -1.0654
18795TIP3    H277801   5.752   6.021   1.206 -0.2978  1.3557 -2.7994
18796TIP3   OH277802   3.607   6.273  10.774  0.6313  0.5198  0.7876
18796TIP3    H177803   3.689   6.322  10.767  0.2224  1.2244  0.8271
18796TIP3    H277804   3.606   6.217  10.696  1.2908  0.2711  0.9460
18797TIP3   OH277805   3.988   0.883  11.087  0.1612  0.5056 -0.4554
18797TIP3    H177806   3.905   0.876  11.041  0.0908  1.6542 -0.5392
18797TIP3    H277807   4.054   0.861  11.021 -0.1118 -2.1620  0.0639
18798TIP3   OH277808   6.074   1.236  14.597  0.2853 -0.0572  0.1795
18798TIP3    H177809   6.012   1.287  14.648  2.0583  0.8207  1.5230
18798TIP3    H277810   6.048   1.145  14.612 -1.0496  0.3045  0.1766
18799TIP3   OH277811   0.009   5.971  16.055 -0.1472  1.1537 -0.2832
18799TIP3    H177812   0.059   5.917  15.994  1.2136  1.9953  0.0564
18799TIP3    H277813   0.016   5.926  16.139 -1.7375  0.1774 -0.6187
18800TIP3   OH277814   4.678   5.699   0.940  0.1810  0.6419  0.7277
18800TIP3    H177815   4.622   5.662   0.872  0.4936 -1.7151  1.6452
18800TIP3    H277816   4.669   5.793   0.930  0.0866  0.3854 -2.4118
18801TIP3   OH277817   6.227   3.500   2.685 -0.1220 -0.2577  0.1857
18801TIP3    H177818   6.290   3.478   2.617  0.2709  4.2891 -1.2456
18801TIP3    H277819   6.156   3.545   2.638 -1.8278 -0.4745  2.3734
18802TIP3   OH277820   1.011   2.833  13.738 -0.5998  0.5866 -0.2200
18802TIP3    H177821   1.033   2.852  13.829 -0.8346  0.1219 -0.0605
18802TIP3    H277822   1.091   2.850  13.690 -0.3328  0.3717  0.1437
18803TIP3   OH277823   3.359   3.881   2.982  0.2025  0.5887  0.2562
18803TIP3    H177824   3.420   3.903   2.911  0.0753  0.1133 -0.0092
18803TIP3    H277825   3.414   3.843   3.050  0.0513 -1.1788 -0.5645
18804TIP3   OH277826   5.136   3.767   0.339 -0.0069 -0.2230 -0.4306
18804TIP3    H177827   5.069   3.811   0.392 -0.7413 -2.0628  0.2716
18804TIP3    H277828   5.210   3.755   0.399  0.2835  0.2287 -0.6897
18805TIP3   OH277829   6.414   3.118  13.740 -0.1154 -0.4651  0.2129
18805TIP3    H177830   6.390   3.137  13.830  0.9601 -0.6642  0.5504
18805TIP3    H277831   6.509   3.108  13.741  0.0510  0.6108 -1.1369
18806TIP3   OH277832   0.940   6.722  13.454  0.7389 -0.1912 -0.4456
18806TIP3    H177833   0.968   6.642  13.410  1.9952  0.8035 -1.5137
18806TIP3    H277834   0.921   6.784  13.384  0.9316  0.8234  0.3659
18807TIP3   OH277835   1.771   2.582  12.254  0.0670  0.0369 -0.3860
18807TIP3    H177836   1.829   2.531  12.197  1.0011  0.9843 -0.3254
18807TIP3    H277837   1.689   2.588  12.205  0.2285 -0.7691 -0.7795
18808TIP3   OH277838   1.757   6.729   1.763 -0.0965 -0.1709  0.0399
18808TIP3    H177839   1.679   6.779   1.786 -0.5569 -0.6671 -0.4027
18808TIP3    H277840   1.774   6.752   1.671  0.4100  0.1028  0.1974
18809TIP3   OH277841   5.598   5.440   4.003  0.4552  0.1196  0.1345
18809TIP3    H177842   5.542   5.503   3.956  0.2833 -0.3448 -0.2920
18809TIP3    H277843   5.625   5.378   3.936 -0.5297 -1.0847  0.8152
18810TIP3   OH277844   3.390   1.817  12.663 -0.4639 -0.4907  0.4027
18810TIP3    H177845   3.301   1.815  12.699  0.4171  0.6294  2.8647
18810TIP3    H277846   3.413   1.910  12.662  1.9195 -0.9013  3.3212
18811TIP3   OH277847   1.046   2.654  15.690  0.0117  0.2767  0.2480
18811TIP3    H177848   1.103   2.593  15.736  0.5146  0.9714  0.5539
18811TIP3    H277849   1.104   2.721  15.655 -0.2859 -0.4568 -1.8365
18812TIP3   OH277850   4.137   6.324   0.661  0.1662  0.4011  1.0236
18812TIP3    H177851   4.186   6.310   0.742  1.6219 -0.0944  0.1065
18812TIP3    H277852   4.204   6.326   0.592 -1.1682 -1.4694 -0.4537
18813TIP3   OH277853   2.405   6.048  14.684 -0.8612 -0.5570 -0.3685
18813TIP3    H177854   2.470   6.033  14.753 -0.4146  0.3536 -0.5832
18813TIP3    H277855   2.443   6.005  14.607 -0.8996 -0.7327 -0.2902
18814TIP3   OH277856   3.898   5.935   5.871 -0.4386  0.4258  0.3348
18814TIP3    H177857   3.858   5.851   5.893 -0.9463  0.4769 -0.3697
18814TIP3    H277858   3.990   5.914   5.852 -0.9223 -0.2548 -1.4691
18815TIP3   OH277859   1.849   1.646  14.843  0.3680 -0.3212 -0.3003
18815TIP3    H177860   1.937   1.609  14.851  0.3617 -0.0957  0.9645
18815TIP3    H277861   1.795   1.589  14.897  0.0861  0.6536  0.4561
18816TIP3   OH277862   0.739   0.351   1.284 -0.3315 -0.4723  0.0220
18816TIP3    H177863   0.670   0.346   1.217 -0.2076 -0.9604 -0.0727
18816TIP3    H277864   0.721   0.432   1.331 -2.0088 -1.3974  1.1112
18817TIP3   OH277865   5.348   0.054  16.583 -0.1776 -0.1380  0.7228
18817TIP3    H177866   5.303   0.070  16.501  0.7840 -2.1354 -0.2733
18817TIP3    H277867   5.431   0.102  16.576  0.8160 -1.9199 -0.4176
18818TIP3   OH277868   0.865   5.148  13.966 -0.0577 -0.0273  0.4882
18818TIP3    H177869   0.867   5.238  13.999 -0.1886 -0.7816  2.7378
18818TIP3    H277870   0.951   5.112  13.988  0.0068 -0.4725 -0.4233
18819TIP3   OH277871   6.568   1.576   0.721  0.7264  0.7405 -0.0357
18819TIP3    H177872   6.660   1.597   0.708  0.8826 -0.2703 -0.6127
18819TIP3    H277873   6.568   1.498   0.776  0.2862 -0.5906 -1.8634
18820TIP3   OH277874   2.218   0.421   4.571  0.3944 -0.1756  0.0738
18820TIP3    H177875   2.200   0.442   4.480  1.6846 -1.8459 -0.6094
18820TIP3    H277876   2.132   0.408   4.610 -0.2749  2.2450 -0.4152
18821TIP3   OH277877   2.451   1.126  15.208 -0.3719 -0.1855 -0.3515
18821TIP3    H177878   2.530   1.116  15.261 -1.6550 -2.6270  1.2699
18821TIP3    H277879   2.470   1.076  15.128 -0.7094 -1.8891  0.6046
18822TIP3   OH277880   0.476   5.544   2.722  0.1822 -0.0261 -1.2240
18822TIP3    H177881   0.562   5.502   2.719  0.7749  0.8340  1.2396
18822TIP3    H277882   0.418   5.478   2.760 -0.2223 -0.4929 -2.5857
18823TIP3   OH277883   3.637   6.888   1.354 -0.1424 -0.0768  0.5244
18823TIP3    H177884   3.638   6.967   1.301 -1.2665 -0.4203 -0.0441
18823TIP3    H277885   3.652   6.919   1.444  3.8532  0.3197 -0.1044
18824TIP3   OH277886   3.500   3.883   5.148 -0.1060  0.1697 -0.1104
18824TIP3    H177887   3.580   3.926   5.180 -1.3362  1.3486  1.5794
18824TIP3    H277888   3.465   3.837   5.225 -1.6310  0.6394 -0.4878
18825TIP3   OH277889   2.711   2.318   2.388  0.2862  0.0206  0.8500
18825TIP3    H177890   2.725   2.413   2.394  1.4711 -0.1934  1.8697
18825TIP3    H277891   2.625   2.304   2.428 -0.6284  0.8206 -0.7580
18826TIP3   OH277892   3.875   2.125  15.754 -0.5707 -0.3049  0.0081
18826TIP3    H177893   3.927   2.066  15.808 -0.3422  0.5108  0.6957
18826TIP3    H277894   3.934   2.151  15.684 -0.1313  0.4042  0.6348
18827TIP3   OH277895   3.424   0.360   6.085 -0.2111 -0.1490 -0.3708
18827TIP3    H177896   3.415   0.270   6.113  2.5436 -0.7930 -1.2726
18827TIP3    H277897   3.354   0.372   6.020  0.2019 -2.1059 -1.2525
18828TIP3   OH277898   3.851   5.765   0.003 -0.2832 -0.2586  0.7900
18828TIP3    H177899   3.805   5.683  -0.018  0.7119 -0.9640  1.3086
18828TIP3    H277900   3.890   5.750   0.089  0.7362  0.4006  0.4594
18829TIP3   OH277901   5.712   3.975  12.379  0.1372 -0.2522  0.4500
18829TIP3    H177902   5.631   3.925  12.385  0.0676 -0.0702  1.2226
18829TIP3    H277903   5.746   3.958  12.292 -1.7977  1.2875 -0.6819
18830TIP3   OH277904   4.154   5.782   2.862 -0.4375  0.0961 -0.5421
18830TIP3    H177905   4.165   5.877   2.861 -0.7004  0.1826  1.5019
18830TIP3    H277906   4.102   5.764   2.940 -0.6144 -1.7218 -1.0206
18831TIP3   OH277907   6.507   2.298  13.169  0.2765  0.5228 -0.6211
18831TIP3    H177908   6.431   2.257  13.209  1.0132  0.7610  1.0973
18831TIP3    H277909   6.516   2.382  13.215  3.3374 -0.7794  1.4128
18832TIP3   OH277910   3.774   6.575   3.792  0.5140  0.4399  0.3390
18832TIP3    H177911   3.718   6.569   3.869 -0.8222  1.6047 -0.4988
18832TIP3    H277912   3.837   6.644   3.813  0.9891 -0.1460  0.8726
18833TIP3   OH277913   0.978   0.405   5.910  0.2364 -0.1398  0.7391
18833TIP3    H177914   0.956   0.312   5.906  0.2772 -0.4698  4.4345
18833TIP3    H277915   0.895   0.451   5.901 -0.0319 -0.6210  0.7542
18834TIP3   OH277916   6.414   0.259  16.321 -0.4649 -0.3310  0.5281
18834TIP3    H177917   6.415   0.329  16.256 -0.6649 -0.6140  0.2170
18834TIP3    H277918   6.328   0.220  16.313 -0.0080 -1.2488  0.0178
18835TIP3   OH277919   3.207   0.128   2.967 -0.1859  0.0885  0.3082
18835TIP3    H177920   3.267   0.143   2.894  0.6286  1.9477  1.2982
18835TIP3    H277921   3.176   0.215   2.992  0.5264 -0.3214  2.9504
18836TIP3   OH277922   1.972   2.184   0.319 -0.4738 -0.6092 -0.1693
18836TIP3    H177923   1.950   2.202   0.410  1.6959 -1.9583  0.7185
18836TIP3    H277924   2.007   2.266   0.286 -1.8220  0.0513  0.0166
18837TIP3   OH277925   3.814   2.400  16.262 -0.0510  0.1990  0.3154
18837TIP3    H177926   3.879   2.338  16.228 -1.7201 -1.2698 -0.3917
18837TIP3    H277927   3.755   2.346  16.315 -0.9956  1.3857  0.5233
18838TIP3   OH277928   0.531   6.316   5.698  0.3843 -0.2448 -0.0176
18838TIP3    H177929   0.568   6.392   5.742 -1.3361  0.0842  0.9561
18838TIP3    H277930   0.556   6.242   5.753  1.7738 -0.3737 -0.7847
18839TIP3   OH277931   0.758   2.715  12.227 -0.7957  0.0913 -0.1646
18839TIP3    H177932   0.841   2.675  12.253 -0.6588  0.1820 -0.4566
18839TIP3    H277933   0.736   2.774  12.299  0.1519  1.1896 -0.7372
18840TIP3   OH277934   4.826   2.269  14.311  0.3422 -0.0148 -0.4806
18840TIP3    H177935   4.840   2.228  14.396 -1.2583  1.1417  0.3993
18840TIP3    H277936   4.740   2.237  14.282  0.6805 -0.0670 -1.4730
18841TIP3   OH277937   5.657   4.847   2.160  0.1241  0.3195 -0.1649
18841TIP3    H177938   5.679   4.772   2.215  0.3822  0.9462  0.6088
18841TIP3    H277939   5.647   4.810   2.072  1.0173 -0.4977  0.0576
18842TIP3   OH277940   2.700   5.794  14.623 -0.5374  0.3998  1.6949
18842TIP3    H177941   2.636   5.751  14.679  0.7360 -2.1607  1.3045
18842TIP3    H277942   2.769   5.729  14.610  0.2222  1.6081 -1.1598
18843TIP3   OH277943   3.166   1.602  14.066 -0.1675  0.0927 -0.1730
18843TIP3    H177944   3.110   1.572  13.995  0.6152 -2.6972  0.2931
18843TIP3    H277945   3.252   1.612  14.026 -0.0838  0.1770  0.0290
18844TIP3   OH277946   6.441   1.526   0.110 -0.7342  0.2237 -1.0411
18844TIP3    H177947   6.521   1.551   0.063  0.6368 -0.9863  0.5170
18844TIP3    H277948   6.384   1.489   0.042 -0.5773  2.3368 -2.4114
18845TIP3   OH277949   6.557   0.759   0.735 -0.2767  0.7258  0.0986
18845TIP3    H177950   6.627   0.765   0.671  0.1731 -3.9827 -0.2061
18845TIP3    H277951   6.478   0.746   0.684 -0.2370 -0.9280  0.4097
18846TIP3   OH277952   0.403   6.295  15.984 -0.1175 -0.0038 -0.2768
18846TIP3    H177953   0.403   6.324  15.893  1.1765 -1.4680 -0.7979
18846TIP3    H277954   0.432   6.371  16.034 -1.8606  1.1473 -0.9143
18847TIP3   OH277955   3.002   5.948  15.747 -0.2638 -0.2251 -0.0692
18847TIP3    H177956   3.035   6.033  15.776  0.7545 -1.2047  1.8645
18847TIP3    H277957   3.081   5.897  15.730 -0.8240 -1.2607  0.3393
18848TIP3   OH277958   5.955   5.820  15.074 -0.2336 -0.2980  0.0677
18848TIP3    H177959   6.026   5.882  15.092 -1.0186  0.8924 -0.7011
18848TIP3    H277960   5.908   5.812  15.157 -1.8765  2.5307 -0.4673
18849TIP3   OH277961   0.715   4.851   2.851  0.6492 -0.6324  0.6135
18849TIP3    H177962   0.799   4.869   2.894  1.0292 -1.0574  0.0691
18849TIP3    H277963   0.677   4.780   2.902  0.0269  0.3939  1.6185
18850TIP3   OH277964   1.760   6.826  16.145 -0.1651 -0.2298 -0.0654
18850TIP3    H177965   1.799   6.775  16.216  1.3266  1.7913  0.6988
18850TIP3    H277966   1.774   6.773  16.066  0.6516 -1.3053  0.7701
18851TIP3   OH277967   0.731   4.189   4.189 -0.3666  0.2905  0.3665
18851TIP3    H177968   0.640   4.203   4.213 -0.4888  0.2774 -0.0737
18851TIP3    H277969   0.776   4.171   4.272 -0.8602 -0.2469  0.5219
18852TIP3   OH277970   0.808   1.721  12.088  0.2095  0.3204 -0.4505
18852TIP3    H177971   0.819   1.685  12.176 -1.4175  2.2326  0.6269
18852TIP3    H277972   0.744   1.663  12.046  0.8867 -0.5224 -0.3370
18853TIP3   OH277973   0.559   3.904  14.562 -0.4682  0.0101  0.1371
18853TIP3    H177974   0.640   3.881  14.515  0.1929  1.2123  0.6366
18853TIP3    H277975   0.560   3.999  14.566 -2.2920  0.0912 -0.4599
18854TIP3   OH277976   0.073   2.163  12.753 -0.5437 -0.2870  0.1442
18854TIP3    H177977   0.000   2.138  12.695 -0.9553 -0.8052  0.8670
18854TIP3    H277978   0.082   2.089  12.813  0.1150  0.0874  0.5180
18855TIP3   OH277979   6.086   3.301   5.004 -0.3721  0.4497  0.0931
18855TIP3    H177980   6.133   3.379   5.033  2.2509 -1.0215  0.1666
18855TIP3    H277981   6.110   3.234   5.068 -1.9229 -0.6169 -0.3901
18856TIP3   OH277982   0.865   6.637   5.093  0.0013  0.2085  0.4284
18856TIP3    H177983   0.831   6.695   5.161 -0.7463  0.8566 -0.4616
18856TIP3    H277984   0.787   6.594   5.058 -0.0947  2.1460 -2.0394
18857TIP3   OH277985   6.220   0.674   1.505 -0.0349 -0.5940 -0.5620
18857TIP3    H177986   6.129   0.700   1.522  0.5218 -0.6893  3.5612
18857TIP3    H277987   6.229   0.589   1.547  2.6657  0.8287  2.1195
18858TIP3   OH277988   4.453   2.282  16.391 -0.4996 -0.0920 -0.1968
18858TIP3    H177989   4.545   2.266  16.410  0.2474  2.1785 -1.5641
18858TIP3    H277990   4.443   2.377  16.394 -2.5901 -0.2284 -0.9266
18859TIP3   OH277991   4.385   1.754   2.037  0.4778 -0.5483 -0.2018
18859TIP3    H177992   4.314   1.692   2.018 -0.8026  0.7652  0.0593
18859TIP3    H277993   4.350   1.808   2.107 -0.2534  3.1331 -3.0594
18860TIP3   OH277994   1.704   3.194   2.971  0.5273  0.4843 -0.0241
18860TIP3    H177995   1.705   3.244   2.890 -1.5432  3.6099  1.6586
18860TIP3    H277996   1.786   3.217   3.015  1.0090 -0.0996 -0.6143
18861TIP3   OH277997   4.205   5.117   5.650  0.5356 -0.3308  0.3643
18861TIP3    H177998   4.164   5.072   5.724  0.5405 -0.4787  0.2762
18861TIP3    H277999   4.214   5.208   5.680 -0.0810 -0.2438  0.2931
18862TIP3   OH278000   0.653   0.044   1.322  0.1437  0.0760 -0.5948
18862TIP3    H178001   0.703   0.026   1.402  0.8045  1.4328 -0.6624
18862TIP3    H278002   0.562   0.041   1.349  0.2919 -1.2475 -0.1909
18863TIP3   OH278003   6.696   2.040   0.240  0.3532  0.1057 -0.8146
18863TIP3    H178004   6.663   2.020   0.328  0.2947  1.6628 -0.4559
18863TIP3    H278005   6.621   2.026   0.182 -0.3544  1.4940 -0.2781
18864TIP3   OH278006   0.445   5.287   0.239 -0.1778 -0.0142  0.3462
18864TIP3    H178007   0.418   5.199   0.212 -0.0678 -0.5184  1.7876
18864TIP3    H278008   0.404   5.298   0.325  1.3470  0.5999  1.0132
18865TIP3   OH278009   6.157   1.820  12.479  0.6374 -0.2795  0.0334
18865TIP3    H178010   6.188   1.738  12.516  3.1308 -0.1667 -1.5886
18865TIP3    H278011   6.151   1.804  12.385  1.6850  1.4811 -0.3853
18866TIP3   OH278012   1.524   1.677   5.350 -0.0184 -0.3831 -0.0321
18866TIP3    H178013   1.471   1.599   5.330 -0.6639  0.5884 -2.5936
18866TIP3    H278014   1.464   1.737   5.393 -0.2686 -0.3196 -0.4615
18867TIP3   OH278015   6.049   4.359  12.868 -0.1280  0.1731  0.7800
18867TIP3    H178016   5.967   4.314  12.849  0.2562  0.2576 -1.3457
18867TIP3    H278017   6.110   4.289  12.891 -0.2499 -0.1191  0.2291
18868TIP3   OH278018   2.922   4.583  12.486  0.1953  0.2428 -0.3884
18868TIP3    H178019   2.930   4.622  12.573  0.7342  0.0673 -0.3620
18868TIP3    H278020   3.008   4.548  12.466  0.0515  0.1942 -0.9552
18869TIP3   OH278021   3.509   1.294  12.826 -0.3354  0.2233  0.0478
18869TIP3    H178022   3.473   1.375  12.862  0.1589 -1.1542  4.1298
18869TIP3    H278023   3.592   1.321  12.787  0.9990  1.5794  3.3955
18870TIP3   OH278024   6.180   1.214  12.481  0.4509  0.0326 -0.1347
18870TIP3    H178025   6.222   1.178  12.403 -0.3035 -1.0671 -0.0543
18870TIP3    H278026   6.107   1.155  12.499 -0.9416  1.6888 -0.0652
18871TIP3   OH278027   6.561   2.489   2.842 -0.4283  0.6953 -0.6383
18871TIP3    H178028   6.501   2.563   2.855 -1.5714  0.2222 -2.7579
18871TIP3    H278029   6.642   2.530   2.813 -0.2325  1.2359  0.5839
18872TIP3   OH278030   6.540   4.428   5.254  0.5435  0.0250  0.0976
18872TIP3    H178031   6.541   4.393   5.165  0.0287 -1.1358  0.5253
18872TIP3    H278032   6.455   4.472   5.261  0.9755  0.9305 -0.2764
18873TIP3   OH278033   5.745   4.406  11.045  0.1553 -0.1888  0.3095
18873TIP3    H178034   5.656   4.378  11.023  0.1903  0.3959 -0.6496
18873TIP3    H278035   5.758   4.377  11.135 -0.6318 -1.1934  0.1169
18874TIP3   OH278036   3.984   0.795   3.926 -0.3016  0.2012 -0.2490
18874TIP3    H178037   3.980   0.701   3.909 -0.0897  0.2105 -0.3612
18874TIP3    H278038   4.035   0.801   4.007  1.1692  0.3019 -1.1435
18875TIP3   OH278039   2.026   4.043  12.400 -0.4770  0.5433  0.1145
18875TIP3    H178040   2.006   4.069  12.489  1.3359  3.9058 -0.2982
18875TIP3    H278041   2.104   3.987  12.408  0.4838  1.9151  0.6150
18876TIP3   OH278042   2.052   6.732  10.442  0.2161  0.1733 -0.1834
18876TIP3    H178043   2.128   6.779  10.410 -0.9457  0.2575 -3.1470
18876TIP3    H278044   2.057   6.646  10.400 -1.2861  0.1754 -0.4374
18877TIP3   OH278045   0.540   4.480  16.254 -0.0267  0.5394  0.2532
18877TIP3    H178046   0.512   4.544  16.189  1.7245  2.5321  1.3337
18877TIP3    H278047   0.608   4.429  16.210 -0.1784  0.5914 -0.0465
18878TIP3   OH278048   4.671   6.835  13.793  0.3170 -0.2661 -0.5426
18878TIP3    H178049   4.586   6.791  13.801  0.8903 -1.2182  0.6461
18878TIP3    H278050   4.735   6.765  13.799  1.2303  0.5833 -0.0076
18879TIP3   OH278051   6.897   2.721  14.498 -0.5340  0.1127  0.3598
18879TIP3    H178052   6.827   2.682  14.445 -1.9049  1.1111  1.3499
18879TIP3    H278053   6.853   2.746  14.579  1.3910 -0.8911  1.7732
18880TIP3   OH278054   1.927   5.007  16.462  0.2286 -0.3109 -0.2361
18880TIP3    H178055   1.847   4.978  16.504 -0.4486  0.2139 -1.1240
18880TIP3    H278056   1.978   5.048  16.532 -0.6316  0.0701  0.1803
18881TIP3   OH278057   2.318   2.616  16.136 -0.7252 -0.6778  0.1034
18881TIP3    H178058   2.285   2.675  16.204  1.7321 -0.7506  1.4826
18881TIP3    H278059   2.327   2.532  16.180  0.3917 -0.8690 -0.4575
18882TIP3   OH278060   0.255   6.133  14.199  0.0033  0.3854  0.3288
18882TIP3    H178061   0.269   6.056  14.143  0.6783 -0.1915  1.2590
18882TIP3    H278062   0.271   6.207  14.141 -0.5142 -0.1736 -0.5531
18883TIP3   OH278063   1.941   4.658   0.143  0.0660  0.3387 -0.0661
18883TIP3    H178064   1.955   4.574   0.101 -2.3083 -0.2385  0.1819
18883TIP3    H278065   2.018   4.670   0.198  0.7216 -1.3865 -0.5415
18884TIP3   OH278066   3.334   2.644   1.945 -0.2613  0.1005 -0.4121
18884TIP3    H178067   3.265   2.599   1.895 -0.0272 -0.3633 -0.3215
18884TIP3    H278068   3.379   2.698   1.881 -0.6261  0.3060 -0.4987
18885TIP3   OH278069   6.695   3.109  13.666 -0.2790  0.1972  0.0520
18885TIP3    H178070   6.774   3.101  13.719  0.4335  3.1455 -0.3894
18885TIP3    H278071   6.718   3.068  13.582 -0.3716 -1.7438  0.9172
18886TIP3   OH278072   2.251   5.475  16.131  0.7493 -0.3386 -0.1393
18886TIP3    H178073   2.181   5.529  16.167  0.4041 -0.3418 -0.7937
18886TIP3    H278074   2.297   5.532  16.069  1.9149 -0.0474  0.9609
18887TIP3   OH278075   6.791   0.931   3.794 -0.2746  0.4769  0.7904
18887TIP3    H178076   6.849   0.923   3.718 -0.4829  0.6675  0.6113
18887TIP3    H278077   6.828   1.003   3.845 -0.8934  1.2152  0.1986
18888TIP3   OH278078   5.906   4.972  12.043 -0.2079 -0.1110  0.0237
18888TIP3    H178079   5.843   4.963  12.115 -1.3580 -0.1107 -0.9464
18888TIP3    H278080   5.915   5.066  12.031  0.5754 -0.0939  0.6429
18889TIP3   OH278081   5.563   5.626  12.282 -0.1578  0.4090 -0.4639
18889TIP3    H178082   5.656   5.639  12.301  0.2006 -1.4084 -0.8210
18889TIP3    H278083   5.538   5.705  12.234  1.2291  0.8730 -0.4826
18890TIP3   OH278084   2.704   0.478  14.811  0.5491 -0.7010 -0.4462
18890TIP3    H178085   2.729   0.567  14.787  0.6741 -0.8798 -0.9982
18890TIP3    H278086   2.774   0.448  14.869  0.9320 -0.7209 -0.9069
18891TIP3   OH278087   6.350   2.298   5.332  0.5724  0.3094  0.3723
18891TIP3    H178088   6.288   2.333   5.269  2.1026  0.4586 -1.1110
18891TIP3    H278089   6.299   2.233   5.382 -0.4762 -0.5096 -1.6283
18892TIP3   OH278090   5.683   1.103   5.107  0.4310 -0.4346 -0.3480
18892TIP3    H178091   5.602   1.145   5.136  0.0216 -0.3205 -1.6350
18892TIP3    H278092   5.751   1.169   5.121 -0.1508  0.5723 -2.0311
18893TIP3   OH278093   4.097   0.740  14.193 -0.4448 -0.3754  0.2871
18893TIP3    H178094   4.080   0.832  14.209 -0.2940 -0.2752 -0.1359
18893TIP3    H278095   4.138   0.709  14.274 -3.6681 -0.9183  1.8489
18894TIP3   OH278096   2.792   6.064  13.536  0.4255  0.3484 -0.0595
18894TIP3    H178097   2.857   6.134  13.531  1.1150 -0.3348 -1.1965
18894TIP3    H278098   2.775   6.041  13.444 -0.8379 -0.0251  0.2470
18895TIP3   OH278099   4.176   6.021   3.653  0.0906  0.1148 -0.1285
18895TIP3    H178100   4.103   6.007   3.593 -0.1690  1.5441 -0.1771
18895TIP3    H278101   4.254   6.022   3.597  0.1759 -1.3987 -0.0769
18896TIP3   OH278102   4.261   5.818  14.432 -0.0054  0.1589  0.5360
18896TIP3    H178103   4.220   5.904  14.438 -0.2080  0.1888 -0.8087
18896TIP3    H278104   4.344   5.834  14.387 -0.3355 -0.4089 -0.3168
18897TIP3   OH278105   1.433   5.615  14.590 -0.0875 -0.2257 -0.7813
18897TIP3    H178106   1.511   5.573  14.553  0.9024  0.2346  0.7126
18897TIP3    H278107   1.373   5.620  14.516 -0.6160 -4.8765 -0.9889
18898TIP3   OH278108   1.298   6.074  13.913 -0.8829  0.2948 -0.0565
18898TIP3    H178109   1.332   6.056  13.825 -2.8762  0.1700 -0.8438
18898TIP3    H278110   1.361   6.136  13.950 -0.3854  0.9215 -1.8389
18899TIP3   OH278111   2.390   2.893  13.306 -0.6443  0.0430 -0.0120
18899TIP3    H178112   2.343   2.819  13.266  0.7743 -1.0964  0.3537
18899TIP3    H278113   2.363   2.969  13.255 -1.3243 -0.8890 -1.0887
18900TIP3   OH278114   3.124   4.567   3.686  0.4314 -0.0531 -0.0675
18900TIP3    H178115   3.137   4.475   3.661 -2.3344 -0.6729  0.4767
18900TIP3    H278116   3.190   4.615   3.635  0.4106 -2.0936 -2.1803
18901TIP3   OH278117   0.180   5.384   5.261 -0.1441 -0.4834 -0.5478
18901TIP3    H178118   0.220   5.334   5.332 -0.7523 -1.0032 -0.5605
18901TIP3    H278119   0.241   5.375   5.188  0.7166  0.4419  0.0336
18902TIP3   OH278120   4.380   2.637   4.997 -1.0866  0.2366  0.9079
18902TIP3    H178121   4.332   2.587   4.931 -1.1942  3.1646 -1.4781
18902TIP3    H278122   4.313   2.671   5.056 -1.3140 -0.1196  0.8567
18903TIP3   OH278123   6.081   5.431   5.125  0.1919  0.1625  0.1778
18903TIP3    H178124   5.994   5.469   5.136  0.4355  0.9663 -0.5673
18903TIP3    H278125   6.066   5.338   5.111 -0.4162 -0.0965  2.2531
18904TIP3   OH278126   5.676   4.329  15.183 -0.3949  0.4300  0.1491
18904TIP3    H178127   5.740   4.335  15.112  0.7571 -1.6742  0.9499
18904TIP3    H278128   5.726   4.344  15.263 -1.0329 -0.5131  0.7427
18905TIP3   OH278129   3.560   6.673   0.902 -0.3401 -0.1666 -0.6727
18905TIP3    H178130   3.630   6.702   0.844 -0.4110  0.0642 -0.6437
18905TIP3    H278131   3.524   6.754   0.938  0.0088 -0.3301  0.0544
18906TIP3   OH278132   2.565   1.620  11.309  0.0150  0.6977  0.3507
18906TIP3    H178133   2.601   1.616  11.220 -1.2746  0.2818 -0.1817
18906TIP3    H278134   2.574   1.712  11.334 -0.6129  1.0542 -0.6691
18907TIP3   OH278135   2.873   0.299  12.202  0.4579 -0.2962 -0.1096
18907TIP3    H178136   2.837   0.384  12.229 -1.7180 -0.8563 -0.9957
18907TIP3    H278137   2.833   0.236  12.262  0.4799 -0.8809 -0.6932
18908TIP3   OH278138   5.285   2.473  13.206  0.0933  0.2176  0.2956
18908TIP3    H178139   5.370   2.490  13.247  0.5683  1.2369 -1.0399
18908TIP3    H278140   5.224   2.531  13.252  0.0693 -0.5877  1.3232
18909TIP3   OH278141   5.737   0.876   5.565 -0.1055 -0.4765 -0.0806
18909TIP3    H178142   5.744   0.953   5.509 -0.0254 -0.2225  0.2751
18909TIP3    H278143   5.792   0.896   5.641  0.3877 -1.1266 -0.2552
18910TIP3   OH278144   5.305   3.312  13.030  0.7518 -0.1555  0.1169
18910TIP3    H178145   5.373   3.247  13.011  1.7927  0.6496  0.9973
18910TIP3    H278146   5.295   3.361  12.949  1.4719 -0.0603  0.0796
18911TIP3   OH278147   5.214   2.281  11.034 -0.1402  0.0288 -0.1782
18911TIP3    H178148   5.191   2.188  11.039 -0.5138  0.1657  0.9010
18911TIP3    H278149   5.153   2.319  10.971 -0.5392 -0.2986  0.0105
18912TIP3   OH278150   1.558   1.637  13.680  0.1172 -0.0360 -0.2967
18912TIP3    H178151   1.540   1.579  13.605  0.4086  0.2647 -0.6038
18912TIP3    H278152   1.653   1.646  13.680  0.1159 -0.0185  0.1030
18913TIP3   OH278153   3.489   1.296   0.604  0.1507 -0.4142  0.2739
18913TIP3    H178154   3.568   1.348   0.618  0.5666 -1.4394  2.2536
18913TIP3    H278155   3.419   1.346   0.646  0.0316 -0.2187 -0.1522
18914TIP3   OH278156   0.133   0.960   3.615 -0.1055 -0.4776  0.2786
18914TIP3    H178157   0.101   0.917   3.536  0.4073 -2.1245  0.9091
18914TIP3    H278158   0.228   0.968   3.601  0.1057 -1.4520  0.9789
18915TIP3   OH278159   2.632   3.776   3.832 -0.2109  0.2087  0.0082
18915TIP3    H178160   2.611   3.825   3.911  0.8978  2.0115 -0.7694
18915TIP3    H278161   2.624   3.840   3.761  4.0530  0.1568 -0.7658
18916TIP3   OH278162   1.487   6.769   1.854 -0.6005 -0.4707  0.3232
18916TIP3    H178163   1.432   6.835   1.811 -0.1887 -0.7925 -0.7453
18916TIP3    H278164   1.455   6.686   1.820  0.7533 -0.6470 -0.6130
18917TIP3   OH278165   6.295   6.792   2.778 -0.5273 -0.3709  0.8381
18917TIP3    H178166   6.312   6.847   2.855 -0.3877  1.2135 -0.2642
18917TIP3    H278167   6.213   6.826   2.743 -0.1253 -0.4498 -0.2161
18918TIP3   OH278168   6.457   4.754  14.578  0.1042  0.3945 -0.3400
18918TIP3    H178169   6.400   4.677  14.575 -1.2882  1.3930 -0.0613
18918TIP3    H278170   6.420   4.810  14.646  1.2179  1.2331 -0.3867
18919TIP3   OH278171   0.766   0.844  15.294  0.1927 -0.1366  0.0036
18919TIP3    H178172   0.759   0.891  15.212 -0.1870  1.3806  0.8746
18919TIP3    H278173   0.853   0.804  15.291 -0.3111 -1.1965 -1.6618
18920TIP3   OH278174   1.099   4.955  13.900  0.1084 -0.4017 -0.9661
18920TIP3    H178175   1.141   4.929  13.982 -0.6280 -0.9518 -0.7509
18920TIP3    H278176   1.069   4.873  13.861 -1.9367  0.0326 -0.4454
18921TIP3   OH278177   4.528   3.252   5.422  0.0820 -0.7491 -0.4800
18921TIP3    H178178   4.498   3.209   5.342  2.2224 -0.8112 -1.3251
18921TIP3    H278179   4.478   3.333   5.426 -1.2322 -1.5100 -0.9736
18922TIP3   OH278180   6.355   1.806   1.517  0.5410 -0.1443 -0.0778
18922TIP3    H178181   6.259   1.803   1.526  0.4996  1.0541  0.0745
18922TIP3    H278182   6.382   1.715   1.522 -0.6004 -0.5071 -0.1496
18923TIP3   OH278183   3.598   4.228  11.620  0.5253 -0.0924  0.2864
18923TIP3    H178184   3.667   4.174  11.582 -0.2060 -1.5684  1.0033
18923TIP3    H278185   3.633   4.317  11.616  2.8364 -0.8722  1.3346
18924TIP3   OH278186   6.792   5.540   0.578  0.6307  0.2193 -0.2261
18924TIP3    H178187   6.697   5.545   0.587  0.5278 -0.4240 -0.8145
18924TIP3    H278188   6.810   5.567   0.488  1.3190  3.3195  0.7250
18925TIP3   OH278189   2.426   0.897  12.681  0.2610 -0.0544 -0.1998
18925TIP3    H178190   2.439   0.904  12.775  0.0494 -0.3785 -0.1474
18925TIP3    H278191   2.505   0.855  12.649  0.2529 -0.1104 -0.1456
18926TIP3   OH278192   0.239   1.014  11.844 -0.7660  0.1214 -0.1576
18926TIP3    H178193   0.187   1.015  11.925 -1.0331  1.8622 -0.3069
18926TIP3    H278194   0.254   0.921  11.826 -0.7859 -0.3151  1.8286
18927TIP3   OH278195   5.571   4.093  13.047 -0.4010  0.1798  0.2789
18927TIP3    H178196   5.647   4.122  13.098  0.5287 -1.1997 -0.2827
18927TIP3    H278197   5.515   4.049  13.111 -0.1471  0.1339  0.4727
18928TIP3   OH278198   0.361   3.318  16.441 -0.0375  0.2657 -0.0590
18928TIP3    H178199   0.451   3.290  16.423 -0.2819 -0.3577 -0.3465
18928TIP3    H278200   0.364   3.413  16.434  0.7299  0.3004  0.5538
18929TIP3   OH278201   1.397   5.871   3.261 -0.1958  0.0618 -0.2913
18929TIP3    H178202   1.459   5.842   3.327 -1.9804 -1.1874  0.9320
18929TIP3    H278203   1.352   5.946   3.302 -0.2861  0.2253 -0.6869
18930TIP3   OH278204   2.826   3.356  14.087  0.1991 -0.3219 -0.4410
18930TIP3    H178205   2.871   3.380  14.005 -1.5471  2.2110 -0.7741
18930TIP3    H278206   2.769   3.283  14.062 -0.5288  0.6025 -1.6076
18931TIP3   OH278207   0.332   4.513  14.474  0.2325 -0.1124 -0.6933
18931TIP3    H178208   0.329   4.608  14.487  1.4277  0.2098 -2.4809
18931TIP3    H278209   0.379   4.501  14.392 -0.0899 -2.2647 -0.6255
18932TIP3   OH278210   6.200   3.423   1.853 -0.4445 -0.1685 -0.0626
18932TIP3    H178211   6.194   3.448   1.945 -1.2075 -1.8295  0.3782
18932TIP3    H278212   6.222   3.504   1.808 -1.7370  1.0526  1.3749
18933TIP3   OH278213   3.976   0.539   0.098  0.5744  0.0529  0.0561
18933TIP3    H178214   3.912   0.564   0.165 -0.9364 -0.8608 -0.9693
18933TIP3    H278215   4.018   0.621   0.073 -3.0024  1.4998 -2.0010
18934TIP3   OH278216   5.629   1.134  14.480 -1.0156  0.2588  0.0772
18934TIP3    H178217   5.576   1.064  14.443 -1.6500  1.5841 -1.6595
18934TIP3    H278218   5.625   1.205  14.415  0.4555  1.5211  1.2646
18935TIP3   OH278219   4.160   1.724  13.730 -0.0465 -0.2414 -0.0879
18935TIP3    H178220   4.167   1.698  13.638  0.4529 -0.6766  0.0693
18935TIP3    H278221   4.235   1.683  13.773  1.1897  2.0136  0.0596
18936TIP3   OH278222   3.764   1.073  12.524 -0.2693 -0.3758  0.1160
18936TIP3    H178223   3.731   1.145  12.471  1.4206  0.4561  0.1338
18936TIP3    H278224   3.824   1.026  12.466 -0.6349 -1.2071  0.3968
18937TIP3   OH278225   5.899   0.006   5.228 -0.4902 -0.2554  0.3255
18937TIP3    H178226   5.864   0.092   5.253  1.4316  0.3016  1.2919
18937TIP3    H278227   5.958  -0.017   5.299  2.1716 -0.4688 -1.8005
18938TIP3   OH278228   2.554   6.475   5.092  0.0026  0.4185 -0.3561
18938TIP3    H178229   2.633   6.429   5.063  0.3379  0.9133 -0.2461
18938TIP3    H278230   2.555   6.557   5.043 -0.8153  0.1339 -0.8727
18939TIP3   OH278231   4.939   6.258   3.796 -0.4084  0.0808 -0.0427
18939TIP3    H178232   4.864   6.286   3.849  1.7002  3.9101  1.3065
18939TIP3    H278233   4.935   6.313   3.718 -0.4647 -1.7009 -1.3586
18940TIP3   OH278234   0.484   2.481  14.434  0.2237  0.2069  0.2152
18940TIP3    H178235   0.489   2.390  14.405 -1.8248  0.4749 -1.1897
18940TIP3    H278236   0.396   2.490  14.470 -0.0222  1.8816 -0.6946
18941TIP3   OH278237   6.773   4.084  14.362  0.3624 -0.2431 -0.0431
18941TIP3    H178238   6.757   4.162  14.416 -2.0867 -0.7880  0.1194
18941TIP3    H278239   6.731   4.103  14.279  1.6334 -0.5711 -0.7918
18942TIP3   OH278240   0.840   1.286   4.920 -0.0263  0.1186  0.2231
18942TIP3    H178241   0.855   1.208   4.974  0.6795  1.3631  1.9039
18942TIP3    H278242   0.749   1.309   4.938 -0.2154 -0.2574 -0.2230
18943TIP3   OH278243   3.027   1.503  11.071  0.4599  0.0465 -0.1867
18943TIP3    H178244   2.979   1.497  11.153  0.8752 -1.4267 -0.0198
18943TIP3    H278245   3.067   1.417  11.061  2.5671  1.0253 -0.6204
18944TIP3   OH278246   2.118   0.871   0.081  0.2753  0.1529  0.4033
18944TIP3    H178247   2.100   0.920   0.162  2.1404  1.2368  0.2341
18944TIP3    H278248   2.062   0.913   0.015 -0.4129  0.0204  0.8985
18945TIP3   OH278249   6.040   5.808  11.562  1.0761 -0.5424  0.1831
18945TIP3    H178250   6.077   5.872  11.622  2.3325 -0.7417 -0.3594
18945TIP3    H278251   6.101   5.804  11.489  1.1066 -2.4211  0.2483
18946TIP3   OH278252   6.318   1.708   2.293  0.6448 -0.3744 -0.1684
18946TIP3    H178253   6.356   1.661   2.367 -0.8819 -1.0564  0.2323
18946TIP3    H278254   6.390   1.760   2.257  1.4974 -0.2714  1.5974
18947TIP3   OH278255   4.917   3.691   2.941  0.1848 -0.1610 -0.1722
18947TIP3    H178256   4.946   3.630   3.009 -1.3757 -2.4466 -1.4233
18947TIP3    H278257   4.915   3.639   2.861 -1.2026  1.5377 -1.3146
18948TIP3   OH278258   2.201   2.272   1.896  0.3854  0.2505 -0.5699
18948TIP3    H178259   2.215   2.282   1.990 -0.1622 -0.4226 -0.4136
18948TIP3    H278260   2.106   2.273   1.885  0.4453  0.4709 -1.1376
18949TIP3   OH278261   2.901   4.023   2.973 -0.3823  0.8040  0.0836
18949TIP3    H178262   2.861   3.982   2.896  0.6971  2.0594 -1.2050
18949TIP3    H278263   2.923   3.949   3.031  0.6043 -0.3944 -1.7202
18950TIP3   OH278264   6.309   4.025   2.252  0.6062  0.3288  0.3420
18950TIP3    H178265   6.331   3.932   2.264  1.5881  0.5200  0.1131
18950TIP3    H278266   6.392   4.071   2.266 -0.1676  1.3188  2.0026
18951TIP3   OH278267   2.505   2.059   4.724 -0.3925  0.2554  0.8603
18951TIP3    H178268   2.447   2.110   4.667  0.6970  0.1090 -0.4319
18951TIP3    H278269   2.453   1.983   4.750 -0.9230  0.3417  0.0724
18952TIP3   OH278270   2.701   3.351   0.532 -0.4209 -0.0445 -0.3949
18952TIP3    H178271   2.668   3.437   0.502 -3.3056 -1.0823 -0.5663
18952TIP3    H278272   2.731   3.366   0.621 -2.8188  0.8332  0.3484
18953TIP3   OH278273   2.687   1.340  15.895 -0.1486  0.0586  0.2831
18953TIP3    H178274   2.640   1.378  15.820  2.2241  0.3729 -1.1312
18953TIP3    H278275   2.626   1.274  15.929 -1.6689  0.5091 -1.3608
18954TIP3   OH278276   0.794   0.424  13.345  0.1398 -0.2282  0.0838
18954TIP3    H178277   0.763   0.501  13.298  0.2979  0.2000  0.6669
18954TIP3    H278278   0.854   0.459  13.411  0.5844 -0.8910  0.0512
18955TIP3   OH278279   2.701   3.277  15.525 -0.0073 -0.6390 -0.2266
18955TIP3    H178280   2.760   3.312  15.458 -1.6566 -0.8676 -1.8822
18955TIP3    H278281   2.753   3.276  15.605  2.3118 -1.0873 -1.6506
18956TIP3   OH278282   6.631   2.405   4.670 -0.3399 -0.7889  0.2381
18956TIP3    H178283   6.631   2.342   4.598  1.8080 -0.6268  0.0305
18956TIP3    H278284   6.655   2.354   4.747 -2.6660 -0.9671  0.9223
18957TIP3   OH278285   6.552   2.701   0.466 -0.4668 -0.4576 -0.1530
18957TIP3    H178286   6.463   2.705   0.501 -0.4938 -1.6215 -0.0350
18957TIP3    H278287   6.580   2.792   0.460 -1.6005 -0.0875 -0.0213
18958TIP3   OH278288   0.253   4.271  15.623  0.2082  0.4652 -0.2139
18958TIP3    H178289   0.178   4.221  15.591 -0.5500  0.6118  1.2330
18958TIP3    H278290   0.223   4.362  15.624  0.5962  0.5958 -0.1542
18959TIP3   OH278291   3.280   2.891   5.601 -0.3879 -0.1996  0.0492
18959TIP3    H178292   3.279   2.863   5.510 -1.0099  0.9062 -0.3139
18959TIP3    H278293   3.192   2.872   5.633 -0.2387 -0.3825  0.3536
18960TIP3   OH278294   2.296   3.997  11.551 -0.2230  0.0413  0.6124
18960TIP3    H178295   2.221   3.983  11.494 -0.4944  1.5139  0.5602
18960TIP3    H278296   2.344   4.070  11.510  1.3571 -1.0001  0.5260
18961TIP3   OH278297   0.242   2.361  15.629 -0.1779 -0.1691 -0.1774
18961TIP3    H178298   0.202   2.448  15.635  1.8717  0.7973  0.6144
18961TIP3    H278299   0.187   2.305  15.684 -1.0732  0.8153 -0.0390
18962TIP3   OH278300   1.502   5.286  15.099 -0.2364  0.8719 -0.5737
18962TIP3    H178301   1.547   5.215  15.053 -2.4275 -2.0396  1.3937
18962TIP3    H278302   1.572   5.335  15.143  1.2956 -1.0402 -0.7798
18963TIP3   OH278303   5.301   5.561   2.528 -0.2503 -0.4007 -0.3533
18963TIP3    H178304   5.337   5.606   2.452 -1.4158 -0.0092 -0.7023
18963TIP3    H278305   5.264   5.631   2.582  0.8478 -0.6444  0.7498
18964TIP3   OH278306   3.115   1.824   0.633 -0.2444  0.0636  0.4630
18964TIP3    H178307   3.076   1.779   0.708  0.9360 -2.8012 -0.5192
18964TIP3    H278308   3.041   1.859   0.585 -1.1564  0.0261  1.7759
18965TIP3   OH278309   4.590   4.894  15.975  0.5557  0.3652  0.0126
18965TIP3    H178310   4.549   4.956  15.915 -0.8013  0.6987  1.2235
18965TIP3    H278311   4.579   4.934  16.061 -0.3365 -1.5049  0.8280
18966TIP3   OH278312   2.439   3.745  10.982 -0.7179  1.1258 -0.1980
18966TIP3    H178313   2.359   3.749  10.929 -1.6388  0.9900  1.1437
18966TIP3    H278314   2.501   3.800  10.935 -1.6249  1.3103 -1.2248
18967TIP3   OH278315   4.499   0.810   1.035  0.0430  0.5454 -0.0368
18967TIP3    H178316   4.527   0.896   1.005 -1.9080  1.4350  0.5373
18967TIP3    H278317   4.525   0.806   1.127 -1.5694  1.3488  0.4815
18968TIP3   OH278318   5.316   1.159  11.631  0.4880 -0.1287  0.3100
18968TIP3    H178319   5.257   1.229  11.603  0.0297 -0.6698 -0.0942
18968TIP3    H278320   5.397   1.174  11.582  0.7632  0.7098  0.9848
18969TIP3   OH278321   1.198   4.256  12.164  0.2623 -0.1622  0.4037
18969TIP3    H178322   1.137   4.318  12.205  0.0593  1.5656 -2.2335
18969TIP3    H278323   1.164   4.245  12.075  1.0387 -3.1555  0.3849
18970TIP3   OH278324   2.890   2.433  15.750 -0.0659  0.1803  0.3129
18970TIP3    H178325   2.925   2.390  15.828 -0.3814  0.6590  0.7257
18970TIP3    H278326   2.797   2.447  15.771 -0.4853 -0.9403 -0.7010
18971TIP3   OH278327   6.484   5.421   3.529 -0.1509 -0.3331  0.4355
18971TIP3    H178328   6.416   5.488   3.518  1.5785  1.3180 -1.0490
18971TIP3    H278329   6.523   5.412   3.442  1.6339 -1.0582  1.2615
18972TIP3   OH278330   2.376   3.289   1.872  0.5651 -0.0706  0.6307
18972TIP3    H178331   2.449   3.274   1.932  1.7830  4.7939  0.7996
18972TIP3    H278332   2.418   3.311   1.789 -0.7559  1.1967  0.2643
18973TIP3   OH278333   5.062   2.466   3.219  0.2579 -0.0557 -0.0078
18973TIP3    H178334   5.152   2.471   3.187  0.4823  3.1796  0.7417
18973TIP3    H278335   5.011   2.514   3.153 -0.2834  1.2295  1.2952
18974TIP3   OH278336   6.033   5.532   9.986 -0.6192 -0.0405 -0.4564
18974TIP3    H178337   5.961   5.469   9.988  0.2538 -1.1506 -1.6111
18974TIP3    H278338   5.991   5.616   9.971 -1.7167 -0.5736 -0.4790
18975TIP3   OH278339   3.456   1.590  13.956  0.3253 -0.5251  0.3624
18975TIP3    H178340   3.503   1.508  13.942 -1.8463 -1.9818  1.0241
18975TIP3    H278341   3.506   1.635  14.023  1.7442 -1.1404 -0.2325
18976TIP3   OH278342   4.620   2.245   5.112 -0.2749 -0.1497  0.5556
18976TIP3    H178343   4.562   2.253   5.037  0.5398  0.2965 -0.0326
18976TIP3    H278344   4.694   2.192   5.081  0.5521  0.8576  0.7382
18977TIP3   OH278345   1.283   4.973   0.380 -0.4021  0.4780 -0.6044
18977TIP3    H178346   1.333   4.893   0.363 -1.1510 -0.1213 -0.0632
18977TIP3    H278347   1.307   4.998   0.469 -0.6039  0.5244 -0.5627
18978TIP3   OH278348   0.751   0.623  14.081  0.6997 -0.2502 -0.5022
18978TIP3    H178349   0.794   0.666  14.008 -0.3000 -0.1029 -1.0237
18978TIP3    H278350   0.784   0.533  14.080  1.7088  0.1104 -0.2924
18979TIP3   OH278351   2.775   4.997   5.221  0.7242 -0.6256  0.7610
18979TIP3    H178352   2.733   5.041   5.295 -0.1158  0.6151 -0.3989
18979TIP3    H278353   2.858   5.043   5.209  0.9730 -0.9882  1.0763
18980TIP3   OH278354   6.058   6.484   1.280 -0.2090  0.3512 -0.0737
18980TIP3    H178355   6.006   6.539   1.338  0.2821  1.0799 -0.3113
18980TIP3    H278356   6.010   6.485   1.197  0.0616  0.8488 -0.2291
18981TIP3   OH278357   6.143   5.646  11.921 -0.2740  0.6848 -0.0114
18981TIP3    H178358   6.073   5.599  11.876  0.9597 -1.3015  0.0353
18981TIP3    H278359   6.138   5.617  12.012  1.8756 -1.1948 -0.4165
18982TIP3   OH278360   3.080   2.450   1.375 -0.2730  0.0366  0.3050
18982TIP3    H178361   3.154   2.507   1.398 -0.3656  0.5600 -0.6728
18982TIP3    H278362   3.038   2.493   1.300  1.4471 -2.7995 -2.5127
18983TIP3   OH278363   5.578   4.686  15.845 -1.0177 -0.2035  0.1317
18983TIP3    H178364   5.562   4.726  15.759  1.9329  0.4310 -0.2187
18983TIP3    H278365   5.522   4.736  15.905 -0.8915  1.4052 -1.0074
18984TIP3   OH278366   4.808   5.994   3.903  0.4566  0.2016  0.2185
18984TIP3    H178367   4.805   5.899   3.896  0.9441  0.1223  0.9368
18984TIP3    H278368   4.899   6.013   3.927  0.3705  0.8525  0.0522
18985TIP3   OH278369   6.651   4.181   4.021  0.4300  0.1307 -0.0488
18985TIP3    H178370   6.711   4.107   4.025  0.6120  0.2774 -0.0466
18985TIP3    H278371   6.655   4.210   3.929  1.3975  0.9907  0.2501
18986TIP3   OH278372   3.421   6.690   5.514  0.7750 -0.5072  0.1948
18986TIP3    H178373   3.390   6.727   5.597 -0.1515  0.8660 -0.7310
18986TIP3    H278374   3.515   6.679   5.527  0.5795 -0.7664  1.5925
18987TIP3   OH278375   6.468   6.745  12.911 -0.6844  1.1001 -0.5340
18987TIP3    H178376   6.536   6.785  12.857 -0.2760 -0.5807 -1.3290
18987TIP3    H278377   6.410   6.818  12.934  0.6694  2.3389 -0.9132
18988TIP3   OH278378   5.819   5.062   2.574  0.1475  0.3952 -0.6402
18988TIP3    H178379   5.824   5.065   2.478 -1.1205  2.8960 -0.7118
18988TIP3    H278380   5.876   5.133   2.603 -1.4343  1.3232  0.3044
18989TIP3   OH278381   5.314   6.378   4.547  0.1089  0.4215  0.6988
18989TIP3    H178382   5.224   6.356   4.569 -0.2964 -0.6633 -1.6563
18989TIP3    H278383   5.358   6.387   4.631 -1.6478 -1.4701  1.9297
18990TIP3   OH278384   0.715   2.644  14.913 -0.1036  0.4574 -0.6428
18990TIP3    H178385   0.683   2.642  14.823 -0.6295 -1.0039 -0.4557
18990TIP3    H278386   0.637   2.626  14.966  0.6127 -0.9528 -0.0369
18991TIP3   OH278387   2.190   3.074  10.868 -0.1597 -0.0926 -0.2115
18991TIP3    H178388   2.173   3.095  10.960 -0.9683  2.1487 -0.8013
18991TIP3    H278389   2.136   2.996  10.851 -1.2203  0.3778  0.8303
18992TIP3   OH278390   3.307   6.116   2.494  0.6005  0.5406  0.4746
18992TIP3    H178391   3.246   6.050   2.526 -1.2559  2.0336  0.2187
18992TIP3    H278392   3.366   6.068   2.436 -0.6770 -0.8992  0.2987
18993TIP3   OH278393   2.516   2.434  15.774  0.1097 -0.0038  0.1093
18993TIP3    H178394   2.468   2.474  15.701 -1.3918 -0.3764  0.8550
18993TIP3    H278395   2.504   2.340  15.762 -0.4881 -0.0591  1.0412
18994TIP3   OH278396   0.382   3.135   0.080 -0.0625 -0.4373 -1.0911
18994TIP3    H178397   0.380   3.066   0.147 -2.6647  0.7150  0.1505
18994TIP3    H278398   0.314   3.110   0.018 -0.3009  0.4988 -1.2090
18995TIP3   OH278399   0.643   2.779   1.007 -0.6170  0.1460  0.5229
18995TIP3    H178400   0.586   2.705   1.025  0.4896 -1.2146 -1.2226
18995TIP3    H278401   0.727   2.755   1.047  0.2105 -0.3464 -1.3723
18996TIP3   OH278402   2.209   4.703  16.556  0.6074  0.1602 -0.1843
18996TIP3    H178403   2.297   4.742  16.553  0.4009  0.6429 -0.1681
18996TIP3    H278404   2.169   4.730  16.474  0.8706 -1.0436 -0.7225
18997TIP3   OH278405   2.906   1.369  16.621 -0.1864  1.0354 -0.5832
18997TIP3    H178406   2.829   1.357  16.677 -0.0249 -1.5658 -0.7520
18997TIP3    H278407   2.881   1.329  16.538  0.6926  1.9439 -1.2973
18998TIP3   OH278408   3.682   3.364  14.843  0.6299  0.3264 -0.6449
18998TIP3    H178409   3.614   3.401  14.900  0.7367  2.2667 -1.6951
18998TIP3    H278410   3.645   3.369  14.755  1.5539  0.0052 -1.0606
18999TIP3   OH278411   4.042   0.205  15.730 -0.3224  0.3115 -0.2627
18999TIP3    H178412   4.103   0.158  15.787 -1.1896  0.6034  0.9485
18999TIP3    H278413   4.098   0.251  15.667  0.7293  0.7609  0.9493
19000TIP3   OH278414   5.175   2.986   5.906 -0.6666 -0.4254 -0.0452
19000TIP3    H178415   5.144   2.944   5.825 -0.7078  1.3515 -1.0099
19000TIP3    H278416   5.265   2.956   5.915 -0.4278 -0.1147 -1.1571
19001TIP3   OH278417   4.593   3.013  13.463 -0.1819 -0.0328 -0.0870
19001TIP3    H178418   4.595   2.924  13.498 -1.3124 -0.0264  0.0253
19001TIP3    H278419   4.683   3.031  13.438  0.2959 -0.7523  1.0355
19002TIP3   OH278420   1.243   1.113   0.379 -0.1318  0.3733  0.4137
19002TIP3    H178421   1.324   1.076   0.343 -1.2111 -1.9866  0.2073
19002TIP3    H278422   1.233   1.069   0.463 -1.7104 -0.1572 -0.0271
19003TIP3   OH278423   4.271   0.699  14.958 -0.2490 -1.2915  0.4206
19003TIP3    H178424   4.329   0.773  14.975 -0.8742 -1.2641  2.8297
19003TIP3    H278425   4.240   0.713  14.868  1.0704  0.3390  0.1631
19004TIP3   OH278426   0.918   1.959  16.033  0.6122 -0.2390  0.2731
19004TIP3    H178427   0.946   1.934  15.945  1.6171  0.8029  0.2651
19004TIP3    H278428   0.934   2.053  16.037 -0.3486 -0.1047  1.2418
19005TIP3   OH278429   3.551   2.586   5.495 -0.0759  0.0583  0.2737
19005TIP3    H178430   3.598   2.514   5.453  0.1195  0.4290 -0.1452
19005TIP3    H278431   3.564   2.571   5.589 -0.1467 -0.5230  0.1943
19006TIP3   OH278432   2.549   4.041  14.373 -0.5022 -0.0164  0.1561
19006TIP3    H178433   2.577   4.095  14.299 -2.4602 -0.0237 -0.6730
19006TIP3    H278434   2.495   3.972  14.332 -0.9803 -0.4786  1.5258
19007TIP3   OH278435   3.469   0.556  12.170 -0.0355  0.2277  0.1751
19007TIP3    H178436   3.509   0.469  12.159 -0.3683 -0.1120  1.4649
19007TIP3    H278437   3.451   0.585  12.081  1.6188 -0.2900 -0.3717
19008TIP3   OH278438   3.265   1.268  13.538 -0.2129  0.5249 -0.0844
19008TIP3    H178439   3.236   1.341  13.484 -0.1360  0.4534 -0.2233
19008TIP3    H278440   3.184   1.227  13.569 -0.2571  0.5524 -0.1631
19009TIP3   OH278441   4.559   0.433   2.473 -0.0396  0.3805 -0.2431
19009TIP3    H178442   4.483   0.375   2.474 -0.7437  1.2019 -1.8603
19009TIP3    H278443   4.523   0.519   2.495  0.5232  0.6761 -0.4701
19010TIP3   OH278444   2.346   6.780   3.024  0.1861 -0.3062 -0.1577
19010TIP3    H178445   2.325   6.699   3.072 -1.5141  0.9267  1.3098
19010TIP3    H278446   2.292   6.847   3.066  0.0570  1.2400 -2.6214
19011TIP3   OH278447   4.676   3.114  16.158 -0.2075  0.1017  0.5136
19011TIP3    H178448   4.607   3.146  16.217 -2.8445 -1.6729 -1.3926
19011TIP3    H278449   4.680   3.178  16.088  0.7326  0.6127  1.0066
19012TIP3   OH278450   4.878   3.926   2.258 -0.9249 -0.3080  0.0625
19012TIP3    H178451   4.819   3.866   2.213  0.4266 -2.1715  0.6405
19012TIP3    H278452   4.947   3.944   2.194 -0.0268 -1.3946  0.6997
19013TIP3   OH278453   3.221   4.010  11.322  0.7480  0.2249  0.2195
19013TIP3    H178454   3.289   4.077  11.317  0.0905  0.8284 -0.9788
19013TIP3    H278455   3.191   3.999  11.232 -1.2861  0.5390  0.8144
19014TIP3   OH278456   3.986   3.371  16.594 -0.6181  0.2536  1.0329
19014TIP3    H178457   4.015   3.462  16.599 -1.0902  0.5888 -1.1515
19014TIP3    H278458   3.897   3.373  16.631 -2.5145  1.7430 -2.9911
19015TIP3   OH278459   5.818   6.156   0.918  0.5480 -0.3997  0.3071
19015TIP3    H178460   5.761   6.154   0.842 -0.2807  0.6667  0.8742
19015TIP3    H278461   5.886   6.091   0.899  0.7067  0.2650 -1.6072
19016TIP3   OH278462   2.995   2.701  11.486 -0.3340  0.1174  0.3822
19016TIP3    H178463   3.051   2.715  11.562 -0.1772  2.6948 -0.1166
19016TIP3    H278464   2.906   2.716  11.518 -0.3205  0.6197  0.1877
19017TIP3   OH278465   2.352   5.961   0.579  0.4881  0.1925  0.0246
19017TIP3    H178466   2.357   6.054   0.556 -0.6915  0.4587  0.7130
19017TIP3    H278467   2.367   5.959   0.674  0.8051 -0.3486 -0.0359
19018TIP3   OH278468   2.901   4.151  13.479 -0.2568 -0.0076 -0.1044
19018TIP3    H178469   2.886   4.243  13.500 -0.1870 -0.0759  0.2405
19018TIP3    H278470   2.887   4.104  13.561 -1.1618 -0.3979 -0.4652
19019TIP3   OH278471   1.727   4.864  13.370  0.4313 -0.5826  1.0007
19019TIP3    H178472   1.765   4.875  13.283  0.6544  2.2679  1.3545
19019TIP3    H278473   1.785   4.802  13.414  1.8078 -0.1087 -0.0704
19020TIP3   OH278474   2.969   5.311   0.156  0.0978  0.6020  0.8007
19020TIP3    H178475   2.883   5.347   0.179  0.3913  0.1039  2.8920
19020TIP3    H278476   3.028   5.386   0.157 -0.5058  1.2348 -2.2316
19021TIP3   OH278477   3.805   4.631  10.704 -0.4531  0.3624  0.0882
19021TIP3    H178478   3.871   4.653  10.771 -1.2545  0.8560  0.7299
19021TIP3    H278479   3.790   4.714  10.658  0.1476  0.0083 -0.7670
19022TIP3   OH278480   4.499   5.259   6.008  0.5638  0.4766 -0.0465
19022TIP3    H178481   4.559   5.222   6.073 -0.1118 -0.8992 -0.1718
19022TIP3    H278482   4.520   5.213   5.927  0.1493  0.8412 -0.3687
19023TIP3   OH278483   0.872   2.500   2.644  0.0560  0.6422 -0.2890
19023TIP3    H178484   0.806   2.443   2.684  0.2092  0.0556 -0.8723
19023TIP3    H278485   0.950   2.446   2.637  0.8464  1.5343  1.0379
19024TIP3   OH278486   6.889   4.137  14.053 -0.3519 -0.3394  0.1343
19024TIP3    H178487   6.814   4.121  13.996  0.9409 -4.0452 -0.8224
19024TIP3    H278488   6.966   4.128  13.996  0.9183  1.1677  1.4851
19025TIP3   OH278489   6.760   6.064   2.107 -0.0034  0.1394  0.1149
19025TIP3    H178490   6.696   6.128   2.076 -0.8733 -1.0670 -0.6703
19025TIP3    H278491   6.728   6.040   2.194 -1.1002 -1.0321 -0.5823
19026TIP3   OH278492   6.581   6.329  14.769 -0.2696 -0.3293 -0.4725
19026TIP3    H178493   6.500   6.281  14.753  0.8524 -2.7492  0.5483
19026TIP3    H278494   6.646   6.285  14.714  1.1309 -1.0984  1.6647
19027TIP3   OH278495   2.962   0.367  10.895  0.0331  0.6007 -0.0703
19027TIP3    H178496   2.962   0.336  10.986 -1.6649 -1.5811 -0.7482
19027TIP3    H278497   2.978   0.289  10.843 -0.8866  1.4731 -1.7347
19028TIP3   OH278498   3.243   5.296  13.222  0.1687  0.1789  0.7887
19028TIP3    H178499   3.207   5.328  13.139  1.0358 -2.3418 -0.6560
19028TIP3    H278500   3.316   5.356  13.241 -1.2019  1.9149  0.7863
19029TIP3   OH278501   1.760   5.779  14.014  0.1064  0.1971 -0.0127
19029TIP3    H178502   1.774   5.750  14.104 -1.2493 -1.4361 -0.2600
19029TIP3    H278503   1.797   5.867  14.010 -2.9593  1.8948  3.1708
19030TIP3   OH278504   4.075   5.193   3.697 -0.1644  0.1243  0.4553
19030TIP3    H178505   4.112   5.112   3.662 -2.1431 -1.3234  1.5071
19030TIP3    H278506   4.070   5.252   3.622  0.7437 -0.9480 -0.4753
19031TIP3   OH278507   0.902   6.009  11.827 -0.1857  0.2961 -0.1921
19031TIP3    H178508   0.974   6.072  11.819 -0.7065  0.9439  0.1321
19031TIP3    H278509   0.823   6.061  11.814 -0.6250 -0.3170 -0.0171
19032TIP3   OH278510   5.643   4.518  12.802 -0.3020 -0.1591 -0.3873
19032TIP3    H178511   5.673   4.429  12.820  0.1381 -0.3340 -1.8266
19032TIP3    H278512   5.723   4.571  12.805 -0.5686  0.2223  0.5172
19033TIP3   OH278513   1.852   2.880  11.307 -0.5244  0.0319  0.6933
19033TIP3    H178514   1.837   2.785  11.305  1.8008 -0.3685  0.4008
19033TIP3    H278515   1.809   2.913  11.228 -0.0943 -0.9845  0.0191
19034TIP3   OH278516   4.516   6.029   1.769  0.2061  0.2442 -0.1482
19034TIP3    H178517   4.472   6.106   1.733 -1.8605 -0.4958  0.6453
19034TIP3    H278518   4.447   5.979   1.812  1.9930 -0.5184  2.0790
19035TIP3   OH278519   2.441   0.055   4.828  0.5386  0.9583 -0.2552
19035TIP3    H178520   2.458  -0.009   4.759  0.8034 -0.4030  1.0111
19035TIP3    H278521   2.511   0.039   4.892  0.0875  1.9303  0.5023
19036TIP3   OH278522   3.609   2.127  15.741 -0.0845 -0.3714 -0.1985
19036TIP3    H178523   3.606   2.039  15.703  1.1888 -0.3155 -0.4531
19036TIP3    H278524   3.702   2.147  15.750 -0.3616  0.2822  1.4617
19037TIP3   OH278525   3.662   3.397   5.849  0.1223  0.1501  0.1316
19037TIP3    H178526   3.678   3.361   5.936  1.0313 -0.9090 -0.4450
19037TIP3    H278527   3.705   3.335   5.789 -1.6870  0.0658 -1.1699
19038TIP3   OH278528   6.225   3.876  15.739 -1.0819 -0.1799  0.0367
19038TIP3    H178529   6.190   3.790  15.715 -2.0824  1.0124 -3.2299
19038TIP3    H278530   6.148   3.927  15.765 -0.7863  0.3601 -0.1262
19039TIP3   OH278531   0.893   5.631  14.728  0.2509  0.1596 -0.7952
19039TIP3    H178532   0.799   5.626  14.711 -0.2960  0.6182  1.7678
19039TIP3    H278533   0.901   5.686  14.805  2.6769  0.4002 -1.1334
19040TIP3   OH278534   4.782   5.324   5.174 -0.2744 -0.2402  0.0353
19040TIP3    H178535   4.829   5.365   5.246  1.3971 -2.7576  0.5050
19040TIP3    H278536   4.709   5.278   5.215  1.2642 -2.5346  0.3917
19041TIP3   OH278537   5.086   3.344  13.976  0.7138  0.2987  0.0690
19041TIP3    H178538   5.071   3.312  14.065  0.0935  0.1377 -0.0820
19041TIP3    H278539   5.059   3.435  13.979 -3.5086 -0.7139 -0.9217
19042TIP3   OH278540   6.027   5.861   5.530  0.1308 -0.2594 -0.0231
19042TIP3    H178541   6.114   5.857   5.571  0.1529 -0.2110 -0.0647
19042TIP3    H278542   6.045   5.885   5.439 -0.0562  1.8333  0.4543
19043TIP3   OH278543   3.989   2.982  16.357  0.2744 -0.3434  0.4363
19043TIP3    H178544   3.943   2.927  16.421 -1.9052  0.5364 -0.3005
19043TIP3    H278545   3.983   2.933  16.275  1.2071 -0.4729  0.4272
19044TIP3   OH278546   4.614   6.410   4.609  0.2304 -0.2598 -0.8041
19044TIP3    H178547   4.617   6.381   4.518 -0.1669 -1.3516 -0.4771
19044TIP3    H278548   4.617   6.330   4.660  3.9978  0.3329  0.2761
19045TIP3   OH278549   6.591   5.095   4.262 -0.3214  0.2448 -0.1425
19045TIP3    H178550   6.658   5.161   4.280  0.7647 -0.9680  0.4768
19045TIP3    H278551   6.587   5.091   4.167  3.0133 -1.9676 -0.3632
19046TIP3   OH278552   0.721   2.668  10.285 -0.3984  0.2910  0.5980
19046TIP3    H178553   0.686   2.643  10.199  0.6221 -0.7351  0.4615
19046TIP3    H278554   0.772   2.747  10.268  3.4572 -2.2078 -0.6884
19047TIP3   OH278555   5.571   0.226  11.342 -0.2958  0.7330  0.0338
19047TIP3    H178556   5.492   0.172  11.337 -0.0099 -0.0760  2.4748
19047TIP3    H278557   5.627   0.193  11.272 -1.6566  0.5518 -1.0069
19048TIP3   OH278558   2.547   2.767  15.101 -0.4985  0.2886  0.2759
19048TIP3    H178559   2.619   2.785  15.162  0.7743  0.7394 -1.2804
19048TIP3    H278560   2.568   2.681  15.064 -1.8891 -0.5205  1.2859
19049TIP3   OH278561   5.990   0.203  14.258 -0.1044  0.2641  0.3190
19049TIP3    H178562   6.013   0.247  14.176 -0.7257  0.9919  0.5234
19049TIP3    H278563   6.028   0.116  14.250  1.6032  0.9943  0.1193
19050TIP3   OH278564   1.268   4.147  12.815  0.8252  0.0312 -0.2365
19050TIP3    H178565   1.195   4.128  12.873  0.7160  0.1881 -0.3246
19050TIP3    H278566   1.263   4.241  12.799  1.0859  0.0553 -0.1889
19051TIP3   OH278567   1.616   1.746  11.137  0.3524  0.3119  0.1532
19051TIP3    H178568   1.586   1.829  11.172 -2.5582 -0.8689  0.6946
19051TIP3    H278569   1.567   1.734  11.055 -0.1564 -1.3534  0.6562
19052TIP3   OH278570   1.480   3.185   1.799 -0.2254 -0.1788  0.3982
19052TIP3    H178571   1.413   3.181   1.868 -0.2862  2.4469  0.5855
19052TIP3    H278572   1.546   3.245   1.833  0.5250 -0.0425 -1.2064
19053TIP3   OH278573   6.412   4.344  14.378  0.3406 -0.0605 -0.1623
19053TIP3    H178574   6.387   4.423  14.425  1.7086  0.8523 -0.8953
19053TIP3    H278575   6.500   4.324  14.411 -0.2583 -1.7363  0.5566
19054TIP3   OH278576   0.484   1.230  11.124  0.2736  0.4759  0.2095
19054TIP3    H178577   0.538   1.161  11.162  1.8020  1.3092 -0.3384
19054TIP3    H278578   0.411   1.184  11.083  0.0289 -0.6235  1.7985
19055TIP3   OH278579   3.838   6.116  16.122 -0.2967 -0.0584 -0.3240
19055TIP3    H178580   3.902   6.186  16.111 -0.1661  0.0617  1.0672
19055TIP3    H278581   3.809   6.123  16.212 -2.1549 -0.2436 -0.8732
19056TIP3   OH278582   1.156   6.774  13.097 -0.3605 -0.4357 -0.7770
19056TIP3    H178583   1.217   6.705  13.071 -1.7152 -2.1563  0.3397
19056TIP3    H278584   1.101   6.790  13.020 -0.0176 -0.5891 -1.0494
19057TIP3   OH278585   0.068   5.045   5.039  0.4315 -0.2642  0.4248
19057TIP3    H178586  -0.010   5.006   5.000  0.8363  0.3516 -1.0808
19057TIP3    H278587   0.140   4.991   5.006  0.8056  0.4333  0.0813
19058TIP3   OH278588   0.301   2.356  10.331  0.4846  0.7786 -0.0881
19058TIP3    H178589   0.257   2.297  10.270  0.2213  1.4330 -0.5475
19058TIP3    H278590   0.332   2.428  10.276  0.1218  1.4514  0.5728
19059TIP3   OH278591   6.663   4.706   5.141 -0.2817 -0.1595  0.3419
19059TIP3    H178592   6.613   4.742   5.067 -2.1466 -0.0980  1.5638
19059TIP3    H278593   6.612   4.630   5.169  0.0031  0.2271  1.9919
19060TIP3   OH278594   2.409   2.942   1.634 -0.6953  0.4013  0.6549
19060TIP3    H178595   2.440   3.003   1.567 -2.9444 -0.3777 -1.2698
19060TIP3    H278596   2.346   2.993   1.686 -0.7600  0.3793  0.5991
19061TIP3   OH278597   4.958   2.069   2.762 -0.0467 -0.0168 -0.1515
19061TIP3    H178598   4.921   2.036   2.844  1.6175  1.6446  1.3803
19061TIP3    H278599   4.990   1.991   2.717  1.8597 -0.7913  2.3272
19062TIP3   OH278600   0.112   6.817  13.677 -0.3435 -0.1882  0.6158
19062TIP3    H178601   0.140   6.746  13.619 -3.3334  0.2238 -1.5843
19062TIP3    H278602   0.043   6.778  13.731 -1.2961  0.7351  0.1053
19063TIP3   OH278603   3.770   5.270  11.674  0.1569 -0.1269  0.7050
19063TIP3    H178604   3.854   5.282  11.630 -1.1470  1.8653 -1.4595
19063TIP3    H278605   3.779   5.318  11.756  1.3286 -0.5626  0.8616
19064TIP3   OH278606   1.781   1.126  12.037  0.1404 -0.6999  0.0842
19064TIP3    H178607   1.769   1.221  12.033 -0.5111 -0.7937 -0.3121
19064TIP3    H278608   1.696   1.092  12.068 -0.0833 -1.2476 -1.0636
19065TIP3   OH278609   0.986   5.233   9.908 -0.3096  0.1259  0.0242
19065TIP3    H178610   0.960   5.159   9.852  0.7508  1.9774 -3.1434
19065TIP3    H278611   0.903   5.277   9.928 -1.1076 -2.3614  2.9046
19066TIP3   OH278612   3.271   3.683   2.123 -0.0636 -0.4472 -0.1105
19066TIP3    H178613   3.272   3.689   2.218  1.2723 -1.1644 -0.0527
19066TIP3    H278614   3.271   3.589   2.105  2.1076 -0.3907 -0.7589
19067TIP3   OH278615   3.261   1.357   4.027  0.2137  0.5018 -0.7265
19067TIP3    H178616   3.210   1.419   4.079  0.7417  1.6463 -1.5232
19067TIP3    H278617   3.195   1.304   3.981 -0.2864  1.8873 -1.6573
19068TIP3   OH278618   1.647   0.629   1.189 -0.3089  0.4913 -0.2559
19068TIP3    H178619   1.575   0.611   1.249  0.0149  2.3848  0.7875
19068TIP3    H278620   1.631   0.573   1.114 -2.8513  0.8223 -0.0334
19069TIP3   OH278621   3.336   5.173  11.396 -0.4113 -0.5169 -0.3052
19069TIP3    H178622   3.424   5.161  11.433  0.2744  1.6111 -1.1116
19069TIP3    H278623   3.277   5.156  11.470  0.7333 -0.5139  0.6535
19070TIP3   OH278624   0.570   6.211   1.778  0.9006  0.2469 -0.3219
19070TIP3    H178625   0.605   6.136   1.826 -1.9872 -0.6862  0.5521
19070TIP3    H278626   0.523   6.262   1.844 -2.0475 -0.3513 -1.7881
19071TIP3   OH278627   2.628   4.206  10.342  0.1867 -0.2728  0.0131
19071TIP3    H178628   2.610   4.263  10.268 -1.0518 -0.5962  0.0519
19071TIP3    H278629   2.723   4.191  10.338  0.2717  0.4581 -0.9509
19072TIP3   OH278630   4.135   4.799  16.391 -0.0453 -0.0297  0.0276
19072TIP3    H178631   4.132   4.708  16.364  2.8513 -0.9271  2.1579
19072TIP3    H278632   4.093   4.800  16.477  1.0192  0.3483  0.5626
19073TIP3   OH278633   3.896   5.272  15.620 -0.2786  0.0214 -0.4219
19073TIP3    H178634   3.913   5.360  15.589 -1.3830  0.3263 -0.2247
19073TIP3    H278635   3.828   5.238  15.561 -0.2797 -0.4783 -0.1425
19074TIP3   OH278636   4.028   4.646  11.094 -0.2685  0.2863  0.1158
19074TIP3    H178637   3.958   4.585  11.070  1.3282 -0.9589 -1.7046
19074TIP3    H278638   4.025   4.714  11.027 -0.1406  0.6040  0.4271
19075TIP3   OH278639   2.971   3.768   2.289 -0.4055 -0.3056 -0.4169
19075TIP3    H178640   2.898   3.740   2.234 -0.4226 -1.9146  0.3696
19075TIP3    H278641   2.984   3.860   2.267 -2.5679 -0.0141 -0.6983
19076TIP3   OH278642   6.692   6.339  16.571 -0.3603 -0.1351 -0.0070
19076TIP3    H178643   6.714   6.295  16.653  2.9245 -0.1639 -0.7964
19076TIP3    H278644   6.717   6.430  16.584  0.3729 -0.1748 -1.0171
19077TIP3   OH278645   2.287   5.293  16.610 -0.1344 -0.2793 -0.5189
19077TIP3    H178646   2.351   5.241  16.562  1.2430  0.1522  0.7834
19077TIP3    H278647   2.294   5.381  16.572  0.8858  0.0383  0.3529
19078TIP3   OH278648   5.004   3.535   2.740  0.0289  0.0098 -0.1207
19078TIP3    H178649   5.063   3.550   2.666  0.5358  1.4377  0.5422
19078TIP3    H278650   5.047   3.465   2.790  0.9570  0.7489  0.1344
19079TIP3   OH278651   3.440   3.849   3.883  0.3271 -0.3394 -1.0538
19079TIP3    H178652   3.418   3.756   3.886  3.6953 -1.3124 -1.8727
19079TIP3    H278653   3.417   3.876   3.795 -0.8019 -0.3253 -0.7661
19080TIP3   OH278654   5.620   5.391  13.122 -0.3693 -0.4793  0.6029
19080TIP3    H178655   5.625   5.317  13.182  1.7279 -0.4308  0.5504
19080TIP3    H278656   5.526   5.407  13.112 -0.9734 -3.9503 -0.4328
19081TIP3   OH278657   5.081   0.897  14.042  0.0574 -0.3716 -0.1716
19081TIP3    H178658   5.127   0.937  13.968 -0.8488  0.4703 -0.3035
19081TIP3    H278659   5.148   0.891  14.111  0.7002 -0.4238 -0.7911
19082TIP3   OH278660   2.207   4.109  14.394 -0.3012  0.2750  0.6144
19082TIP3    H178661   2.283   4.058  14.368 -0.9998 -0.3903 -0.2019
19082TIP3    H278662   2.140   4.087  14.329 -1.3117  0.5361  1.5322
19083TIP3   OH278663   3.437   1.122  10.456  0.3494  0.1616 -0.2444
19083TIP3    H178664   3.523   1.089  10.481 -0.0921  0.2928  1.6470
19083TIP3    H278665   3.428   1.099  10.364  2.1443 -0.3967 -0.3282
19084TIP3   OH278666   3.083   2.764  16.677  0.2911 -0.0840 -0.8431
19084TIP3    H178667   3.069   2.702  16.605 -0.5482 -0.8139 -0.0649
19084TIP3    H278668   3.172   2.746  16.707  0.0809 -0.8595 -0.6769
19085TIP3   OH278669   2.418   1.701  14.905 -0.0189 -0.2662 -0.0205
19085TIP3    H178670   2.461   1.716  14.989 -2.7387 -0.2366  1.4722
19085TIP3    H278671   2.452   1.616  14.876  1.1782 -0.1428  0.9528
19086TIP3   OH278672   6.651   5.039  12.022  0.4604  0.3412  0.1288
19086TIP3    H178673   6.631   5.036  11.929 -1.0014 -1.9807  0.4457
19086TIP3    H278674   6.740   5.005  12.029  0.1440 -0.6109 -0.3375
19087TIP3   OH278675   1.888   1.533  16.179  0.6208 -0.7515  0.1738
19087TIP3    H178676   1.839   1.450  16.184 -1.2550  0.2778 -0.0725
19087TIP3    H278677   1.907   1.544  16.086 -1.8292  0.4850 -0.2764
19088TIP3   OH278678   5.664   3.386   4.585 -0.1299 -0.1467  0.7775
19088TIP3    H178679   5.711   3.399   4.668 -0.8339  1.9257  0.9028
19088TIP3    H278680   5.576   3.419   4.603 -0.7226 -1.0694 -0.3723
19089TIP3   OH278681   0.070   3.616   2.573  0.4837 -0.2065 -0.6695
19089TIP3    H178682   0.077   3.526   2.604 -0.2911 -0.7630 -1.9895
19089TIP3    H278683   0.022   3.661   2.642 -0.9724 -1.3314 -0.8880
19090TIP3   OH278684   3.615   0.269  13.785  0.1499 -0.3349 -0.3079
19090TIP3    H178685   3.678   0.199  13.768  0.0988 -0.3892 -0.2766
19090TIP3    H278686   3.651   0.346  13.741  0.6829 -0.1442  0.4359
19091TIP3   OH278687   5.525   0.613  11.909 -0.4260  0.7073 -0.3073
19091TIP3    H178688   5.462   0.679  11.881  0.2888  1.1927 -0.7984
19091TIP3    H278689   5.531   0.552  11.835  0.0780  0.9610 -0.4798
19092TIP3   OH278690   3.601   4.271   1.999 -0.4108  0.2202  0.2211
19092TIP3    H178691   3.679   4.327   2.004  1.0557 -1.6572 -0.3891
19092TIP3    H278692   3.631   4.185   2.030 -2.0934 -0.7022 -0.5708
19093TIP3   OH278693   6.611   1.828   0.017  0.6054 -0.0173 -0.0167
19093TIP3    H178694   6.684   1.868  -0.030  1.2357  0.0126  0.9571
19093TIP3    H278695   6.536   1.837  -0.042  1.0289  1.3976 -0.3721
19094TIP3   OH278696   4.689   1.297   5.256  0.0742  0.8465 -0.1128
19094TIP3    H178697   4.677   1.228   5.191  0.6566  1.8436 -1.3151
19094TIP3    H278698   4.607   1.347   5.252 -0.5862 -0.0685  1.1716
19095TIP3   OH278699   0.607   0.004   2.710 -0.2442  0.0328 -0.6667
19095TIP3    H178700   0.610   0.060   2.787 -1.1282 -0.6279 -0.1356
19095TIP3    H278701   0.582  -0.082   2.743 -1.7933  0.0015 -1.8205
19096TIP3   OH278702   6.184   0.761   4.950  0.0235 -0.2716 -0.2423
19096TIP3    H178703   6.194   0.738   4.858  0.8300 -0.0810 -0.2086
19096TIP3    H278704   6.236   0.695   4.997  1.2949  0.8026 -0.0664
19097TIP3   OH278705   0.190   1.511   2.330  0.3956  0.2495 -0.1482
19097TIP3    H178706   0.258   1.473   2.387  0.0937  0.4679  0.3663
19097TIP3    H278707   0.114   1.455   2.345  1.1044 -1.5070 -2.5485
19098TIP3   OH278708   5.040   4.132   6.067  0.2688  0.2224  0.2466
19098TIP3    H178709   5.090   4.198   6.018 -0.7914  0.2833 -0.8141
19098TIP3    H278710   4.975   4.182   6.115  1.1473  0.1367  1.5633
19099TIP3   OH278711   2.120   2.552   2.386 -0.6041  0.2370  0.1230
19099TIP3    H178712   2.094   2.496   2.312  1.7140 -2.8973  1.4593
19099TIP3    H278713   2.181   2.615   2.348  0.7007 -1.4425 -0.6665
19100TIP3   OH278714   5.703   2.409   0.452 -0.2880  0.4620  0.4995
19100TIP3    H178715   5.670   2.416   0.542  0.1142  0.1040  0.6771
19100TIP3    H278716   5.679   2.493   0.411  0.3842  1.0240  1.2223
19101TIP3   OH278717   6.279   2.487   3.119 -0.0096  0.0865  0.0688
19101TIP3    H178718   6.328   2.408   3.096  0.2804  0.7328 -1.6265
19101TIP3    H278719   6.200   2.455   3.164  1.8623 -0.9796  2.8798
19102TIP3   OH278720   5.215   6.242   3.791  0.7123  0.1468  0.3548
19102TIP3    H178721   5.253   6.217   3.707 -0.9878 -0.5592 -0.2318
19102TIP3    H278722   5.121   6.250   3.775  0.2618 -0.5559  2.3010
19103TIP3   OH278723   3.941   1.393  16.078 -0.0055 -0.0854  0.1210
19103TIP3    H178724   3.970   1.304  16.058 -0.0941 -0.0417 -0.2096
19103TIP3    H278725   3.846   1.391  16.067  0.1041  0.3578 -1.1663
19104TIP3   OH278726   2.052   3.516   0.506  0.0284  0.1518  0.3361
19104TIP3    H178727   2.143   3.502   0.483 -0.5679 -1.2029 -1.3928
19104TIP3    H278728   2.030   3.601   0.469  0.0867 -0.3909 -1.0070
19105TIP3   OH278729   5.254   3.113  10.672 -0.2651 -0.5216 -0.5862
19105TIP3    H178730   5.162   3.083  10.676 -0.7011  0.8472  0.9857
19105TIP3    H278731   5.298   3.047  10.618 -2.4068 -0.5363 -2.4831
19106TIP3   OH278732   4.993   6.664  15.804 -0.2666  0.4595  0.0114
19106TIP3    H178733   5.057   6.733  15.782  1.8770 -1.3636  0.1405
19106TIP3    H278734   4.965   6.686  15.893 -0.3727  1.6821 -0.2955
19107TIP3   OH278735   0.256   4.039   3.644  0.1050  0.8159 -0.0113
19107TIP3    H178736   0.250   3.946   3.667  1.6083  0.4518 -0.9571
19107TIP3    H278737   0.292   4.039   3.555 -2.5157  2.2321 -1.1956
19108TIP3   OH278738   4.442   4.275  14.743  0.4801 -0.4360  0.4023
19108TIP3    H178739   4.429   4.181  14.741 -0.8776 -0.2561 -0.9087
19108TIP3    H278740   4.436   4.298  14.836  1.4309 -1.6893  0.8005
19109TIP3   OH278741   2.296   4.103   3.788 -0.2368 -0.5129 -0.0847
19109TIP3    H178742   2.380   4.094   3.833 -0.4496  1.2728  0.7420
19109TIP3    H278743   2.312   4.170   3.721 -0.6275 -1.2253 -0.9058
19110TIP3   OH278744   1.380   0.644  15.325  0.0461 -0.3437 -0.2811
19110TIP3    H178745   1.326   0.685  15.257 -0.2156 -1.0992 -0.5501
19110TIP3    H278746   1.333   0.659  15.406 -0.8403 -1.3888 -0.5688
19111TIP3   OH278747   3.071   1.971  16.044  0.5590 -0.2053  0.4239
19111TIP3    H178748   3.014   1.965  15.967  0.2733 -0.1682  0.6310
19111TIP3    H278749   3.037   2.046  16.092 -1.3621 -2.1202  2.2813
19112TIP3   OH278750   5.458   6.095  14.483  0.0486  0.4738  0.3341
19112TIP3    H178751   5.465   6.096  14.387 -0.5328 -0.6631  0.2631
19112TIP3    H278752   5.531   6.041  14.512 -0.5064 -0.2458  0.4341
19113TIP3   OH278753   3.588   1.268  15.989  0.4958  0.0968 -0.0283
19113TIP3    H178754   3.593   1.173  15.993  0.9474 -0.0968 -2.9381
19113TIP3    H278755   3.502   1.286  15.951  0.6254  0.8440  0.0088
19114TIP3   OH278756   5.506   2.476  12.434  0.1001 -0.0937  0.0184
19114TIP3    H178757   5.468   2.389  12.421 -0.2096  0.0889 -0.3388
19114TIP3    H278758   5.477   2.526  12.358  2.1613 -0.3210 -0.9918
19115TIP3   OH278759   6.075   0.923  10.854  0.0801  0.0087 -0.0319
19115TIP3    H178760   6.082   0.880  10.768 -1.7353 -0.2642 -0.0924
19115TIP3    H278761   5.994   0.887  10.891  0.6334  0.4236  1.6386
19116TIP3   OH278762   5.994   3.577  16.428  0.2248  0.3687 -0.4206
19116TIP3    H178763   5.913   3.535  16.457  0.7283 -0.2204  0.1624
19116TIP3    H278764   6.057   3.558  16.498  1.0318  0.2912 -1.1511
19117TIP3   OH278765   3.215   6.709   1.796  0.2030  0.1298  0.3358
19117TIP3    H178766   3.178   6.732   1.881  0.7782  0.2556  0.5500
19117TIP3    H278767   3.184   6.620   1.780 -0.3730  0.3109  0.4139
19118TIP3   OH278768   0.345   6.258   1.551 -0.0377 -0.2601  0.0036
19118TIP3    H178769   0.435   6.286   1.568  0.4007 -2.4162  1.8089
19118TIP3    H278770   0.291   6.334   1.572  1.2051  0.1521  1.9800
19119TIP3   OH278771   0.901   0.139   1.192 -0.1829 -0.0724  0.3125
19119TIP3    H178772   0.845   0.072   1.230 -1.1550  1.2244  1.2761
19119TIP3    H278773   0.865   0.222   1.226  0.1974  1.0174 -1.7975
19120TIP3   OH278774   6.254   5.951  15.644  0.2486  0.2887 -0.0341
19120TIP3    H178775   6.319   5.999  15.695  1.2127 -0.0616 -0.9120
19120TIP3    H278776   6.229   5.878  15.700  2.0696 -0.6920 -0.4413
19121TIP3   OH278777   5.611   6.661  14.480 -0.1053  0.0491  1.2525
19121TIP3    H178778   5.663   6.589  14.444 -1.3936 -1.0020  1.4170
19121TIP3    H278779   5.666   6.739  14.467  1.5415 -1.0120  1.5376
19122TIP3   OH278780   0.834   0.785   4.763 -0.0039  0.0039  0.0528
19122TIP3    H178781   0.797   0.775   4.675 -0.3865 -2.1730  0.4042
19122TIP3    H278782   0.841   0.880   4.775 -3.2163  0.5061 -0.9934
19123TIP3   OH278783   3.380   4.376  11.166 -0.7728 -0.6814 -0.0824
19123TIP3    H178784   3.405   4.304  11.224  1.1543 -1.1872 -1.4360
19123TIP3    H278785   3.289   4.393  11.187 -0.2609 -1.0799  2.8103
19124TIP3   OH278786   1.083   4.128   2.840  0.2618  0.2523  0.3756
19124TIP3    H178787   1.041   4.197   2.891  0.0083  1.0185 -0.8299
19124TIP3    H278788   1.100   4.058   2.903  0.2785  1.2994  1.5670
19125TIP3   OH278789   4.705   3.882  13.972  0.0959 -0.7875  0.3671
19125TIP3    H178790   4.666   3.797  13.992  0.4347 -1.3850 -1.3063
19125TIP3    H278791   4.670   3.941  14.038 -2.8959 -1.4934 -0.4504
19126TIP3   OH278792   4.011   6.549  12.705  0.1391  0.1308  0.2878
19126TIP3    H178793   4.082   6.599  12.746 -0.4273  0.5588  0.7563
19126TIP3    H278794   3.955   6.524  12.778 -0.0476 -0.4429 -0.0524
19127TIP3   OH278795   3.050   4.174  14.402  0.3422 -0.1454  0.4526
19127TIP3    H178796   3.123   4.179  14.464 -0.4214  0.8243  1.3008
19127TIP3    H278797   3.079   4.226  14.327  1.5452 -1.8738 -0.3425
19128TIP3   OH278798   0.179   1.116  11.030  0.0603  0.4130 -0.5820
19128TIP3    H178799   0.101   1.172  11.039  0.0788  0.2313  0.8256
19128TIP3    H278800   0.158   1.058  10.956 -1.7730 -0.5867  0.6381
19129TIP3   OH278801   4.387   6.654  14.675  0.8756 -0.3709  0.3907
19129TIP3    H178802   4.326   6.585  14.702  1.2883 -0.1830  1.8558
19129TIP3    H278803   4.473   6.620  14.700  1.5366 -0.9699 -2.3129
19130TIP3   OH278804   6.449   6.449   5.534  0.2258 -0.2627  0.1019
19130TIP3    H178805   6.505   6.523   5.557 -0.2387 -0.2271  1.1783
19130TIP3    H278806   6.378   6.452   5.598  0.3407 -1.7798  0.3392
19131TIP3   OH278807   5.230   1.021  10.688  0.3592 -0.2993 -0.6562
19131TIP3    H178808   5.140   1.051  10.699 -0.2166 -2.3130  0.9631
19131TIP3    H278809   5.240   1.007  10.594 -1.0998 -0.2374 -0.8466
19132TIP3   OH278810   1.435   2.781  11.841 -0.0976 -0.3543 -0.2751
19132TIP3    H178811   1.425   2.874  11.822 -0.3514 -0.4833 -0.7803
19132TIP3    H278812   1.350   2.755  11.878  0.0409 -0.3412  0.0556
19133TIP3   OH278813   4.595   1.030  11.253 -0.2758  0.4106  0.2264
19133TIP3    H178814   4.663   1.084  11.293  0.0440 -0.8263  1.4345
19133TIP3    H278815   4.519   1.088  11.246  0.3279  1.2705  0.5958
19134TIP3   OH278816   2.186   0.108  15.907 -0.4615  0.6966 -0.4518
19134TIP3    H178817   2.234   0.111  15.824  1.1459 -0.0117  0.4189
19134TIP3    H278818   2.156   0.018  15.914 -1.8754  1.1035 -0.9288
19135TIP3   OH278819   4.398   1.725  12.100  0.1423  0.0050  0.4164
19135TIP3    H178820   4.330   1.746  12.035  0.9602  0.7275 -0.2303
19135TIP3    H278821   4.429   1.638  12.073 -0.7904 -0.5257  0.9700
19136TIP3   OH278822   2.006   3.805   6.441 -0.1124 -0.5698 -0.7467
19136TIP3    H178823   2.047   3.734   6.490  0.8637 -0.0142 -0.7288
19136TIP3    H278824   2.052   3.884   6.471 -1.7235  0.1775 -0.1613
19137TIP3   OH278825   4.928   1.646   1.139  0.4193  0.3344  0.0203
19137TIP3    H178826   4.883   1.600   1.210 -0.9909  0.6637 -0.6415
19137TIP3    H278827   4.958   1.576   1.081  1.5309  0.0662  0.8749
19138TIP3   OH278828   1.518   1.188  14.537 -0.1857 -0.1985 -0.3892
19138TIP3    H178829   1.555   1.100  14.539 -0.3835 -0.2675  0.7509
19138TIP3    H278830   1.556   1.232  14.613 -0.2942  0.6205 -0.7969
19139TIP3   OH278831   2.195   0.628  10.580  0.1351  0.4290 -0.4368
19139TIP3    H178832   2.228   0.576  10.653 -0.9262 -0.5901 -0.6538
19139TIP3    H278833   2.207   0.571  10.503  0.1811  1.0367 -0.8891
19140TIP3   OH278834   5.026   2.561   2.106 -0.0162  0.1050  0.3746
19140TIP3    H178835   4.973   2.519   2.038 -0.5178 -0.8024  1.3006
19140TIP3    H278836   5.102   2.503   2.116  0.4362  0.6309  0.0838
19141TIP3   OH278837   1.808   6.153  15.386  0.0673 -0.1103  0.2957
19141TIP3    H178838   1.755   6.158  15.307 -0.6263 -0.8844  0.6989
19141TIP3    H278839   1.754   6.104  15.448 -0.4605  2.5952  2.1201
19142TIP3   OH278840   4.911   1.372   0.574  0.0941  0.3403 -0.2455
19142TIP3    H178841   4.959   1.294   0.545 -0.2184  0.1101 -0.1353
19142TIP3    H278842   4.855   1.394   0.500  0.2131  0.4878 -0.2930
19143TIP3   OH278843   4.298   5.316  12.934 -0.0877 -0.1530  0.0990
19143TIP3    H178844   4.312   5.365  13.015  2.0522 -0.4673 -0.0118
19143TIP3    H278845   4.291   5.383  12.866 -0.9961  0.0804  0.4065
19144TIP3   OH278846   0.240   5.246  13.306 -0.4805  0.3641 -0.5637
19144TIP3    H178847   0.288   5.291  13.375  0.2250 -1.4873  0.2179
19144TIP3    H278848   0.152   5.284  13.308 -0.1395  1.1324  0.5648
19145TIP3   OH278849   1.234   5.865   2.988 -0.2296  0.3424  0.8773
19145TIP3    H178850   1.300   5.864   3.057 -0.1251  1.7564  0.8150
19145TIP3    H278851   1.283   5.875   2.907 -0.5032  1.2465  0.8186
19146TIP3   OH278852   0.436   6.275   5.243  0.0112  0.1511 -0.0366
19146TIP3    H178853   0.477   6.266   5.157  0.4007  2.1473 -0.1040
19146TIP3    H278854   0.506   6.256   5.306  0.3223  0.8335 -0.1683
19147TIP3   OH278855   0.153   0.596  10.583 -0.5040  0.0278 -0.1317
19147TIP3    H178856   0.118   0.517  10.542 -1.9074  0.6861 -0.2672
19147TIP3    H278857   0.245   0.598  10.556 -0.2700 -1.8754  0.4089
19148TIP3   OH278858   1.498   4.736   1.968 -0.0933  0.2309  0.2360
19148TIP3    H178859   1.485   4.830   1.971 -1.4925  0.0965 -0.5600
19148TIP3    H278860   1.480   4.706   2.057  0.7988  0.7473  0.6003
19149TIP3   OH278861   3.903   5.352  13.755 -0.1579  0.2647 -0.1765
19149TIP3    H178862   3.941   5.435  13.727  2.5875 -1.1123 -0.9452
19149TIP3    H278863   3.832   5.376  13.814 -1.0982  3.1575 -2.2628
19150TIP3   OH278864   2.391   6.148  10.762  0.6091 -0.2200 -0.7048
19150TIP3    H178865   2.332   6.200  10.708 -0.4053 -0.0364  0.5662
19150TIP3    H278866   2.420   6.207  10.831 -1.2837 -1.5388  1.3022
19151TIP3   OH278867   2.124   4.333  11.498 -0.3318 -0.2161  0.3640
19151TIP3    H178868   2.154   4.398  11.561  0.4096  0.8304 -1.0304
19151TIP3    H278869   2.043   4.299  11.536 -0.6237  1.3503  1.2376
19152TIP3   OH278870   2.058   0.947  11.326  0.2022  0.1599 -0.1077
19152TIP3    H178871   2.084   0.963  11.417 -0.3299 -0.9069  0.2444
19152TIP3    H278872   2.080   1.029  11.281  0.4119  0.7367  0.9879
19153TIP3   OH278873   1.803   2.577   1.836 -0.0548 -0.5455 -0.0806
19153TIP3    H178874   1.893   2.550   1.855  0.1132  0.9495  1.5103
19153TIP3    H278875   1.785   2.541   1.749  1.8622 -1.3691 -0.1901
19154TIP3   OH278876   0.592   5.663   1.100 -0.2037 -0.1655 -0.3235
19154TIP3    H178877   0.630   5.580   1.073 -1.2053 -0.5047 -0.7389
19154TIP3    H278878   0.667   5.719   1.120  0.4819 -1.4426  0.8461
19155TIP3   OH278879   3.914   0.523  12.189 -0.1805  0.1836  0.1507
19155TIP3    H178880   3.850   0.470  12.237  0.7774 -0.2751  0.9553
19155TIP3    H278881   3.870   0.545  12.107 -0.4886 -2.1560 -0.3880
19156TIP3   OH278882   2.303   1.425   0.318  0.4193 -0.3265  0.5608
19156TIP3    H178883   2.339   1.506   0.283 -1.6002  0.6807  0.6264
19156TIP3    H278884   2.313   1.361   0.247  2.2082 -0.1180  0.5829
19157TIP3   OH278885   1.053   2.720  13.240 -0.4946 -0.6047 -0.0675
19157TIP3    H178886   0.979   2.672  13.276  0.8544 -3.4991 -0.7935
19157TIP3    H278887   1.017   2.805  13.214 -2.9890 -1.0317  1.6348
19158TIP3   OH278888   1.237   3.284   2.448  0.0767  0.4259 -0.5708
19158TIP3    H178889   1.224   3.192   2.472 -0.7658  0.8193  0.6044
19158TIP3    H278890   1.323   3.287   2.408  0.8042 -0.6335  0.8221
19159TIP3   OH278891   4.499   0.726   2.982  0.1622  0.0090 -0.3567
19159TIP3    H178892   4.554   0.796   3.016  0.5827 -0.1389 -0.7194
19159TIP3    H278893   4.525   0.649   3.032 -0.2012  0.0766 -0.0556
19160TIP3   OH278894   6.578   3.023   3.681 -0.3631 -0.3777 -0.3325
19160TIP3    H178895   6.629   3.104   3.673 -2.0823  0.8496  0.6540
19160TIP3    H278896   6.503   3.036   3.623 -1.3448 -0.6770  0.8355
19161TIP3   OH278897   6.897   5.381  13.331 -0.3487 -0.3760 -0.3034
19161TIP3    H178898   6.903   5.385  13.427 -0.8973  4.1187 -0.2591
19161TIP3    H278899   6.812   5.340  13.314 -0.5543 -0.5928  1.1145
19162TIP3   OH278900   4.058   1.958   2.358  0.7311 -0.2318  0.8406
19162TIP3    H178901   4.132   1.971   2.418  1.5522 -0.4846 -0.0786
19162TIP3    H278902   4.077   2.015   2.284 -0.8524  0.9399  1.2928
19163TIP3   OH278903   3.975   2.222  11.927  0.1575 -0.1627 -0.3530
19163TIP3    H178904   3.900   2.261  11.884  0.3920 -0.4015 -0.9962
19163TIP3    H278905   4.051   2.267  11.890  0.4955 -1.7875 -1.7975
19164TIP3   OH278906   1.501   5.267   1.615  0.5646 -0.1886 -0.0803
19164TIP3    H178907   1.462   5.233   1.696 -0.4259  1.3158  0.1127
19164TIP3    H278908   1.459   5.351   1.602 -0.1698 -0.9007 -2.8246
19165TIP3   OH278909   5.926   4.806  10.024  0.3855  0.1816 -0.0243
19165TIP3    H178910   5.950   4.748   9.953  1.0403 -0.4723  0.7154
19165TIP3    H278911   5.997   4.797  10.088  0.1359  1.2406  0.4245
19166TIP3   OH278912   5.942   0.340  16.358 -0.1299  0.5015  0.5527
19166TIP3    H178913   5.848   0.324  16.351 -0.3737  1.3944  1.5695
19166TIP3    H278914   5.956   0.421  16.308  0.0332  0.5866  0.7359
19167TIP3   OH278915   3.341   5.845   4.832 -0.9371  0.3908 -0.0948
19167TIP3    H178916   3.272   5.876   4.773  0.4814  2.8858 -0.5970
19167TIP3    H278917   3.395   5.788   4.776 -0.4704  1.5087 -0.8252
19168TIP3   OH278918   4.896   1.290  11.926 -0.0810  0.2137  0.7319
19168TIP3    H178919   4.844   1.359  11.885 -0.0765 -1.0246 -1.5693
19168TIP3    H278920   4.837   1.214  11.926  1.2660 -0.9077 -0.8838
19169TIP3   OH278921   3.978   2.084  11.008  0.2278 -0.0081 -0.5098
19169TIP3    H178922   3.882   2.084  11.016  0.1906 -1.6878 -0.6742
19169TIP3    H278923   4.004   1.996  11.036  1.8757  0.9027  1.0175
19170TIP3   OH278924   3.875   4.829  14.724 -0.6482 -0.6538 -0.4320
19170TIP3    H178925   3.950   4.774  14.701 -0.3929 -0.1806 -0.7310
19170TIP3    H278926   3.908   4.918  14.724 -1.3312 -0.3868 -1.0930
19171TIP3   OH278927   4.492   3.756  11.529  0.0328  0.9303  0.5331
19171TIP3    H178928   4.560   3.813  11.564  1.6752 -0.8541  0.3911
19171TIP3    H278929   4.487   3.683  11.591  1.2100 -1.0149 -1.5056
19172TIP3   OH278930   3.348   3.653  11.427 -0.2904 -0.0204 -0.0114
19172TIP3    H178931   3.297   3.576  11.402 -0.2265  0.0206 -0.2648
19172TIP3    H278932   3.304   3.686  11.506 -0.5709 -0.0628 -0.1497
19173TIP3   OH278933   0.192   4.045  14.224  0.2273  0.2194  0.3185
19173TIP3    H178934   0.227   4.096  14.297 -1.2286  0.2148  1.0693
19173TIP3    H278935   0.109   4.089  14.203  0.9538  0.6708 -1.8461
19174TIP3   OH278936   4.143   6.327   2.752 -0.4196 -0.0917  0.1467
19174TIP3    H178937   4.119   6.408   2.796 -0.0648  0.1568 -0.1128
19174TIP3    H278938   4.062   6.299   2.709 -0.4556  0.3153 -0.0574
19175TIP3   OH278939   4.991   4.224  13.819 -0.0010 -0.1786  0.1059
19175TIP3    H178940   4.985   4.130  13.835  0.8193 -0.4666 -1.2157
19175TIP3    H278941   5.084   4.245  13.829 -0.0872  0.3797 -0.2329
19176TIP3   OH278942   1.457   4.641   5.954  0.4480  0.0753  0.1217
19176TIP3    H178943   1.387   4.703   5.977 -1.2103 -1.1278 -1.3612
19176TIP3    H278944   1.474   4.594   6.036 -0.1699  0.7029  0.6277
19177TIP3   OH278945   1.531   4.712   0.933 -0.1996 -0.1596  0.1700
19177TIP3    H178946   1.456   4.722   0.992 -0.7413  0.2732 -0.5722
19177TIP3    H278947   1.537   4.797   0.888 -1.0602 -1.1030 -1.8549
19178TIP3   OH278948   3.933   2.692  12.412 -0.3524 -0.0815  0.2332
19178TIP3    H178949   3.967   2.774  12.447 -1.2540  0.3964  0.0055
19178TIP3    H278950   3.947   2.699  12.317 -0.7009 -0.0647  0.1830
19179TIP3   OH278951   0.914   0.586  13.557 -0.1990 -0.4597  0.6000
19179TIP3    H178952   0.862   0.650  13.605 -0.4129 -1.3571  1.6076
19179TIP3    H278953   1.002   0.624  13.553 -0.7352  0.7475 -0.5038
19180TIP3   OH278954   0.284   2.820  11.415 -0.5196 -0.2582  0.0009
19180TIP3    H178955   0.231   2.759  11.465  2.4081 -2.3089  0.8820
19180TIP3    H278956   0.305   2.772  11.334  0.4962  0.2035 -0.0199
19181TIP3   OH278957   1.846   6.880   1.968 -0.1276  0.8672  0.0321
19181TIP3    H178958   1.831   6.843   1.881 -1.7539  2.1854 -0.3049
19181TIP3    H278959   1.938   6.862   1.987 -0.3473 -1.6669 -0.8544
19182TIP3   OH278960   3.715   5.199   4.545 -0.1842  0.0836  0.3210
19182TIP3    H178961   3.623   5.179   4.527 -0.0500 -2.6040  2.0529
19182TIP3    H278962   3.761   5.172   4.466 -0.6672 -0.9473  0.3695
19183TIP3   OH278963   6.095   1.992  11.086  0.0172  0.1796 -0.0667
19183TIP3    H178964   6.121   1.914  11.136 -3.5487  0.0741  1.9323
19183TIP3    H278965   6.160   2.058  11.110  2.3489 -1.7070 -0.7589
19184TIP3   OH278966   1.358   2.821   3.377 -0.0101 -0.7972 -0.1494
19184TIP3    H178967   1.322   2.899   3.335 -0.7026 -0.8235  0.3696
19184TIP3    H278968   1.450   2.841   3.389 -0.4665  0.6281  1.4251
19185TIP3   OH278969   3.080   3.750  12.686  0.3191  0.1742  0.3702
19185TIP3    H178970   3.002   3.697  12.669  1.8359 -1.3641 -2.4662
19185TIP3    H278971   3.047   3.824  12.738 -2.5243 -1.6790  1.4810
19186TIP3   OH278972   3.359   5.108  15.460  0.1387 -0.0295 -0.5285
19186TIP3    H178973   3.317   5.046  15.520  0.9444 -1.6271 -1.5398
19186TIP3    H278974   3.425   5.151  15.514  0.4423 -0.9968 -0.0928
19187TIP3   OH278975   4.172   5.197  15.279  0.4824 -0.1095 -0.3307
19187TIP3    H178976   4.143   5.113  15.314  1.1607 -0.0836  0.3082
19187TIP3    H278977   4.248   5.177  15.225  0.3897  0.0448 -0.5218
19188TIP3   OH278978   1.048   1.415   0.537  0.0518  0.2380  0.1935
19188TIP3    H178979   0.963   1.453   0.512  0.4464  2.0395  1.3769
19188TIP3    H278980   1.025   1.332   0.578 -1.2925  1.1511  1.4276
19189TIP3   OH278981   1.016   0.536   3.614 -0.5811 -0.0278 -0.3144
19189TIP3    H178982   1.006   0.498   3.702  0.7055 -0.5017 -0.3484
19189TIP3    H278983   0.946   0.495   3.562 -0.2241 -1.1362  0.0507
19190TIP3   OH278984   3.802   0.931  16.483  0.4533 -0.0151 -0.2517
19190TIP3    H178985   3.736   1.000  16.489  1.1036  0.5166  1.0769
19190TIP3    H278986   3.841   0.943  16.396  0.3785  1.1391 -0.1377
19191TIP3   OH278987   3.250   3.511  13.893 -0.8009 -0.4509  0.0817
19191TIP3    H178988   3.204   3.542  13.971 -1.8131 -1.0848 -0.2430
19191TIP3    H278989   3.330   3.470  13.926 -0.9339 -0.1979  0.7311
19192TIP3   OH278990   0.092   2.667  11.900 -0.3216  0.0038  0.3215
19192TIP3    H178991   0.104   2.572  11.900 -0.1226  0.0283 -0.0578
19192TIP3    H278992   0.108   2.694  11.991  0.6187 -0.1967  0.2244
19193TIP3   OH278993   0.736   0.151  14.820 -0.5181  0.2791  0.0016
19193TIP3    H178994   0.784   0.222  14.777 -4.0730  1.7702 -1.8597
19193TIP3    H278995   0.769   0.071  14.777  1.5403  0.9633  0.1656
19194TIP3   OH278996   4.319   1.314   4.714  0.1233 -0.0595 -0.1087
19194TIP3    H178997   4.232   1.290   4.747 -0.3000  0.4698 -0.7893
19194TIP3    H278998   4.303   1.393   4.662  0.8945 -0.3650 -0.8302
19195TIP3   OH278999   1.144   0.418   1.097  0.6432 -0.3791 -0.3990
19195TIP3    H179000   1.114   0.376   1.016  0.7853 -0.5075 -0.3842
19195TIP3    H279001   1.121   0.510   1.085  2.3622 -0.0455 -1.3934
19196TIP3   OH279002   6.428   2.399  14.335 -0.5345 -0.1651  0.0660
19196TIP3    H179003   6.395   2.489  14.337 -1.8037 -0.6234  0.7753
19196TIP3    H279004   6.397   2.361  14.417  0.4001 -1.1227 -0.0056
19197TIP3   OH279005   4.239   1.147   0.862 -0.1069 -0.0895 -0.8453
19197TIP3    H179006   4.224   1.161   0.769 -1.8150  3.1006 -0.2417
19197TIP3    H279007   4.161   1.183   0.905  0.9235 -0.8043  1.8375
19198TIP3   OH279008   3.840   4.306  14.630  0.0018  0.2249  0.3085
19198TIP3    H179009   3.809   4.309  14.721  1.7360  0.0997  0.9384
19198TIP3    H279010   3.772   4.256  14.584 -0.8857  0.2313  1.5419
19199TIP3   OH279011   1.790   1.297   3.691 -0.2728  0.1735  0.1389
19199TIP3    H179012   1.701   1.275   3.717 -0.4057 -0.0240 -0.4825
19199TIP3    H279013   1.840   1.216   3.702  0.1554  0.6300  1.8468
19200TIP3   OH279014   6.786   5.985   3.636  0.4361 -0.3458 -0.0251
19200TIP3    H179015   6.842   6.053   3.601  0.8581  0.3499  1.8983
19200TIP3    H279016   6.721   6.031   3.689 -0.9845 -1.2557 -0.8795
19201TIP3   OH279017   2.948   0.880  12.637 -0.3032 -0.1803 -0.0931
19201TIP3    H179018   2.934   0.848  12.727  1.3736  1.9705  1.0214
19201TIP3    H279019   3.031   0.841  12.611  2.0737  3.2852  1.4999
19202TIP3   OH279020   6.702   0.030   0.069  0.2420 -0.0007  0.0033
19202TIP3    H179021   6.641   0.096   0.037  0.5371  1.1742  1.6998
19202TIP3    H279022   6.773   0.029   0.005  0.5214  1.7985  0.2248
19203TIP3   OH279023   1.004   6.814  10.557  0.8996 -0.1282 -0.2990
19203TIP3    H179024   1.063   6.883  10.526  0.4431 -0.4631 -1.9987
19203TIP3    H279025   0.950   6.792  10.481 -0.1898 -1.1048  0.7157
19204TIP3   OH279026   5.793   1.377   3.644  0.1475 -0.4827 -0.0195
19204TIP3    H179027   5.804   1.400   3.551  0.6048 -2.7892 -0.5827
19204TIP3    H279028   5.842   1.296   3.655 -0.5229 -0.6619  2.0946
19205TIP3   OH279029   0.219   3.673   0.419  0.0448  0.1361 -0.2092
19205TIP3    H179030   0.127   3.652   0.402 -1.1978  3.6402  1.3003
19205TIP3    H279031   0.253   3.700   0.334 -0.1756 -1.4433 -0.8402
19206TIP3   OH279032   4.988   1.574   4.825 -0.3171 -0.3024 -0.4323
19206TIP3    H179033   4.943   1.519   4.889 -0.3212 -0.3517 -0.4772
19206TIP3    H279034   5.069   1.600   4.868 -0.0446 -0.8140 -0.6227
19207TIP3   OH279035   1.106   3.523   2.526 -0.1723  0.2839  0.2756
19207TIP3    H179036   1.181   3.582   2.513 -0.5146  0.8988  0.9848
19207TIP3    H279037   1.138   3.438   2.498  0.7203  0.5877  0.3187
19208TIP3   OH279038   4.272   1.522   6.076  0.0335 -0.3371 -0.4145
19208TIP3    H179039   4.316   1.533   6.161  1.2603  0.3710 -1.1174
19208TIP3    H279040   4.278   1.609   6.035  0.0842 -0.8470 -1.5121
19209TIP3   OH279041   5.101   5.139   5.867 -0.0736  0.4097  0.1620
19209TIP3    H179042   5.029   5.109   5.812 -0.7941  1.0455  0.7334
19209TIP3    H279043   5.068   5.220   5.907  1.2230  1.1132 -0.1321
19210TIP3   OH279044   5.163   4.502   1.772  0.5091 -0.3765 -0.3069
19210TIP3    H179045   5.157   4.555   1.852  1.2755 -0.4586 -0.1861
19210TIP3    H279046   5.240   4.537   1.726  1.0641 -1.4075 -0.1978
19211TIP3   OH279047   5.980   2.460  14.200 -0.0157  0.0436  0.3872
19211TIP3    H179048   6.001   2.390  14.261  1.6237  0.5461  0.4277
19211TIP3    H279049   5.966   2.537  14.256  0.1372  0.1933  0.2191
19212TIP3   OH279050   5.095   5.178   2.300 -0.1954  0.3024  0.7787
19212TIP3    H179051   5.110   5.096   2.346  0.7928  0.4450  0.7252
19212TIP3    H279052   5.015   5.213   2.340  0.1031 -0.0445  1.7201
19213TIP3   OH279053   2.228   4.940  12.564 -0.4763  0.1285  0.3265
19213TIP3    H179054   2.321   4.920  12.561 -0.6590 -0.6413 -0.7077
19213TIP3    H279055   2.222   5.031  12.535  0.0936  0.8079  2.1794
19214TIP3   OH279056   3.554   6.151   2.108 -0.0051 -0.0954 -0.1785
19214TIP3    H179057   3.650   6.146   2.110 -0.0219 -0.2692  0.6005
19214TIP3    H279058   3.533   6.168   2.017  0.8563  1.6606 -0.0966
19215TIP3   OH279059   6.112   1.812  10.212 -0.0764 -0.5824 -0.2064
19215TIP3    H179060   6.081   1.820  10.122 -1.7542  0.2969  0.4062
19215TIP3    H279061   6.207   1.800  10.204  0.0148  0.8968 -2.0444
19216TIP3   OH279062   0.030   4.832   2.106 -0.6716 -0.2174  0.7654
19216TIP3    H179063   0.053   4.748   2.146 -1.2107 -1.0883 -0.6628
19216TIP3    H279064   0.048   4.897   2.173 -0.0433 -1.4626  1.8357
19217TIP3   OH279065   5.801   0.975  13.865 -0.2951  0.2293 -0.3037
19217TIP3    H179066   5.829   0.974  13.773  1.8810  1.6520  0.2709
19217TIP3    H279067   5.882   0.967  13.915 -1.2389  1.2923  1.4970
19218TIP3   OH279068   3.748   2.865  15.339 -0.0477 -0.1156  0.0706
19218TIP3    H179069   3.724   2.786  15.387  1.8544 -0.8313 -0.0526
19218TIP3    H279070   3.820   2.903  15.389  1.2117 -0.2518 -1.5093
19219TIP3   OH279071   0.873   1.264   5.981  0.5170 -0.4729  0.1467
19219TIP3    H179072   0.841   1.274   6.071  0.2569 -1.0585  0.1281
19219TIP3    H279073   0.937   1.192   5.987 -1.0189 -1.9461 -0.4826
19220TIP3   OH279074   4.054   4.053   3.998 -0.2669 -0.0502 -0.2531
19220TIP3    H179075   4.099   4.077   3.917  1.6760 -0.0516  0.7692
19220TIP3    H279076   4.107   4.091   4.068 -1.6388 -0.4389  1.0628
19221TIP3   OH279077   3.079   4.801   0.470  0.1263 -0.4095 -0.1439
19221TIP3    H179078   3.019   4.810   0.543 -1.0234 -1.5345 -0.8999
19221TIP3    H279079   3.161   4.771   0.509  0.1603  0.9432  0.8782
19222TIP3   OH279080   4.984   5.970   4.192 -0.3874  0.0214  0.3902
19222TIP3    H179081   4.913   6.030   4.215 -1.7120 -1.9087  1.6411
19222TIP3    H279082   5.032   6.015   4.123 -1.0570  2.6815  1.5128
19223TIP3   OH279083   6.030   3.435   4.337  0.3085 -0.6526 -0.3765
19223TIP3    H179084   5.992   3.521   4.357  0.7692 -0.3722 -0.6789
19223TIP3    H279085   5.963   3.391   4.284 -0.4215 -0.9466  0.7692
19224TIP3   OH279086   5.205   4.820   5.542 -0.0019  0.3622 -0.2479
19224TIP3    H179087   5.141   4.771   5.492  0.4598 -0.0346 -0.4628
19224TIP3    H279088   5.250   4.754   5.595 -0.0730  0.6943  0.2280
19225TIP3   OH279089   0.243   1.529   1.021  0.1504  0.4806  0.0479
19225TIP3    H179090   0.221   1.447   0.977 -2.1232  0.6848  0.6821
19225TIP3    H279091   0.339   1.530   1.024  0.2540 -1.5496 -1.0528
19226TIP3   OH279092   4.179   0.425  10.554  0.0799 -0.7565  0.6174
19226TIP3    H179093   4.210   0.335  10.551 -0.2486 -0.8507 -0.2765
19226TIP3    H279094   4.084   0.419  10.547  0.0692 -0.3380  0.3075
19227TIP3   OH279095   6.564   6.794   0.662 -0.2019  0.2032 -0.1226
19227TIP3    H179096   6.578   6.877   0.707 -0.5494  0.6593 -0.8274
19227TIP3    H279097   6.503   6.816   0.591  1.9857 -0.0092 -2.1932
19228TIP3   OH279098   4.384   3.042   2.043  0.1273  0.4723  0.8560
19228TIP3    H179099   4.447   2.971   2.055 -0.2439 -0.1514 -0.5371
19228TIP3    H279100   4.317   3.026   2.109 -0.0542 -0.6386  0.4391
19229TIP3   OH279101   2.813   1.944  14.600 -0.0104  0.1954 -0.0637
19229TIP3    H179102   2.750   1.890  14.553  0.6438  0.0615 -0.7995
19229TIP3    H279103   2.895   1.896  14.594  0.8883  1.8183 -1.8125
19230TIP3   OH279104   5.956   6.111   3.456 -0.1921  0.5728  0.7787
19230TIP3    H179105   5.988   6.038   3.508 -1.4137 -0.3777  0.2380
19230TIP3    H279106   5.865   6.089   3.437  0.3156  0.6526 -2.1628
19231TIP3   OH279107   2.059   2.811  12.500  0.1120 -0.1339 -0.0912
19231TIP3    H179108   1.978   2.863  12.505 -0.2271 -0.5497 -0.9931
19231TIP3    H279109   2.052   2.764  12.417  1.1951 -0.3342 -0.0834
19232TIP3   OH279110   3.838   5.389   0.687 -0.0001  0.2960  0.1171
19232TIP3    H179111   3.773   5.426   0.627  1.7533  1.6387 -1.0745
19232TIP3    H279112   3.911   5.451   0.683  0.2457  0.4687  3.6699
19233TIP3   OH279113   3.260   1.554   0.010 -0.0614  0.0368 -0.1160
19233TIP3    H179114   3.172   1.534   0.040 -0.2946 -0.4080 -1.0750
19233TIP3    H279115   3.249   1.621  -0.058  0.4456  0.8711  0.5895
19234TIP3   OH279116   3.239   4.418   0.775 -0.1538  0.2196 -0.4479
19234TIP3    H179117   3.242   4.506   0.813 -0.8111  0.4711 -0.9460
19234TIP3    H279118   3.199   4.431   0.689  0.5392 -0.4532 -0.8810
19235TIP3   OH279119   6.828   3.007  11.641  0.1392  0.2666 -0.2311
19235TIP3    H179120   6.883   3.085  11.637  0.8207 -0.2442 -1.5962
19235TIP3    H279121   6.842   2.964  11.557 -0.5935 -1.0810  0.3052
19236TIP3   OH279122   2.543   5.202   3.697  0.5173 -0.4663  0.0324
19236TIP3    H179123   2.504   5.121   3.663 -0.0407 -0.6505  1.0783
19236TIP3    H279124   2.486   5.228   3.769  1.9706 -0.4102  1.2206
19237TIP3   OH279125   3.570   6.166  10.463 -0.2747 -0.2592  0.0478
19237TIP3    H179126   3.656   6.134  10.437 -0.1199  1.1936 -1.3597
19237TIP3    H279127   3.516   6.155  10.384 -0.9141  0.4612  0.3750
19238TIP3   OH279128   3.701   3.256  13.704  0.2997  0.0690  0.4607
19238TIP3    H179129   3.761   3.185  13.681 -0.3294  0.0021 -1.0936
19238TIP3    H279130   3.643   3.218  13.770  0.9605 -0.3476  0.8130
19239TIP3   OH279131   5.822   4.107   5.405 -1.1374  0.3584  0.2470
19239TIP3    H179132   5.889   4.116   5.337 -2.4273 -1.4125 -1.3641
19239TIP3    H279133   5.864   4.056   5.474 -0.0753  1.4183  0.4092
19240TIP3   OH279134   1.871   2.335  11.203 -0.5640  0.0816 -0.6549
19240TIP3    H179135   1.953   2.354  11.248  0.5144 -0.9239 -2.1262
19240TIP3    H279136   1.882   2.371  11.115 -1.2352 -1.0730 -1.2412
19241TIP3   OH279137   5.971   1.818  13.642 -0.6632  0.0770 -0.1936
19241TIP3    H179138   5.963   1.894  13.699  3.2660 -0.4018  1.2944
19241TIP3    H279139   6.044   1.838  13.584 -0.7382 -1.8103 -1.0214
19242TIP3   OH279140   2.671   5.959  12.781  0.3394 -0.0855 -1.0078
19242TIP3    H179141   2.723   6.024  12.828  0.8471  0.3562 -2.1483
19242TIP3    H279142   2.687   5.877  12.827 -0.2482  0.5631  0.4035
19243TIP3   OH279143   4.818   3.330  13.479  0.5187 -0.7191 -0.0817
19243TIP3    H179144   4.903   3.285  13.475  2.3300  2.3547  0.2520
19243TIP3    H279145   4.840   3.423  13.468 -2.7809  0.2813  0.6612
19244TIP3   OH279146   0.763   4.220   1.209  0.1751  0.5349 -0.0575
19244TIP3    H179147   0.680   4.269   1.213 -0.5647 -0.4596 -1.9202
19244TIP3    H279148   0.736   4.128   1.210  1.4369  0.1373  1.6176
19245TIP3   OH279149   1.565   2.589  10.675 -0.0930 -0.2220  0.0017
19245TIP3    H179150   1.635   2.560  10.616  1.2061 -0.8534  1.7651
19245TIP3    H279151   1.572   2.685  10.674 -0.3085 -0.1980 -1.0678
19246TIP3   OH279152   3.242   1.113   4.243 -0.1641 -0.1156  0.8578
19246TIP3    H179153   3.235   1.045   4.176 -0.5714  0.3831  0.3828
19246TIP3    H279154   3.157   1.157   4.242  0.3878  0.9904  0.5027
19247TIP3   OH279155   6.168   5.682   1.714 -0.5131  0.1293 -0.5586
19247TIP3    H179156   6.154   5.619   1.643 -0.7099  2.2681 -2.5644
19247TIP3    H279157   6.080   5.717   1.731 -0.1967  0.9533 -0.5908
19248TIP3   OH279158   4.948   4.788   1.540 -0.3553 -0.1909  0.3959
19248TIP3    H179159   4.951   4.695   1.518  1.8856  0.2576 -1.6054
19248TIP3    H279160   5.018   4.800   1.605  0.2614  0.2893 -0.3396
19249TIP3   OH279161   3.691   1.075   4.454 -0.1206  0.3370 -0.1957
19249TIP3    H179162   3.694   1.014   4.380 -1.3502  1.6234 -1.3745
19249TIP3    H279163   3.601   1.067   4.487 -0.4524  1.8142 -0.6728
19250TIP3   OH279164   0.864   3.851   2.840 -0.2255 -0.0127 -0.9153
19250TIP3    H179165   0.781   3.887   2.807  0.0775  1.3606 -0.2472
19250TIP3    H279166   0.871   3.884   2.930  0.0316 -1.8765 -0.2093
19251TIP3   OH279167   5.267   2.940  16.695 -0.0797 -0.1978  0.3953
19251TIP3    H179168   5.276   2.964  16.603  1.9017  0.0439  0.6095
19251TIP3    H279169   5.258   3.023  16.741 -0.0571 -0.2594  0.5095
19252TIP3   OH279170   1.757   5.874  12.325 -0.3560  0.4409  0.1183
19252TIP3    H179171   1.735   5.900  12.236 -1.4559  0.2436  0.3182
19252TIP3    H279172   1.848   5.902  12.336 -0.9333  2.7321 -0.2491
19253TIP3   OH279173   3.128   3.876   3.691 -0.1186  0.0133 -0.4434
19253TIP3    H179174   3.127   3.943   3.622 -0.3699  1.3233  0.7876
19253TIP3    H279175   3.145   3.925   3.771  2.8992 -1.7931  0.1344
19254TIP3   OH279176   4.283   2.198  12.308  0.5630 -0.7076  0.4668
19254TIP3    H179177   4.270   2.235  12.221  1.7785 -0.7349  0.2585
19254TIP3    H279178   4.378   2.200  12.321  0.3473  0.2826  2.2247
19255TIP3   OH279179   6.242   5.851   3.265 -0.0403 -0.1082 -0.2437
19255TIP3    H179180   6.193   5.921   3.309  0.4635  1.0768 -1.5168
19255TIP3    H279181   6.203   5.846   3.178 -0.3628 -1.7535 -0.0287
19256TIP3   OH279182   4.317   2.825  11.260 -0.3521  0.3695 -0.3663
19256TIP3    H179183   4.317   2.741  11.213  1.2811  0.3536 -0.3817
19256TIP3    H279184   4.362   2.885  11.201  1.1066  0.5186  0.8413
19257TIP3   OH279185   0.104   3.328   3.628  0.8627  0.3735  0.2725
19257TIP3    H179186   0.059   3.292   3.552  2.8679 -0.1927 -0.6986
19257TIP3    H279187   0.033   3.347   3.691 -0.5651 -2.2893 -0.3906
19258TIP3   OH279188   2.420   2.431   3.959 -0.5480 -0.4713 -0.1039
19258TIP3    H179189   2.448   2.340   3.959 -2.3202 -1.0503  0.6018
19258TIP3    H279190   2.497   2.479   3.991  0.1781 -1.7922  0.2105
19259TIP3   OH279191   6.540   5.687   2.308 -0.1492  0.1327 -0.3596
19259TIP3    H179192   6.499   5.601   2.316  2.4890 -1.2726 -0.8134
19259TIP3    H279193   6.521   5.715   2.219 -1.6336  0.4102  0.0161
19260TIP3   OH279194   2.297   1.929  11.366 -0.1697 -0.0292 -0.6092
19260TIP3    H179195   2.248   1.847  11.363  0.1119 -0.1817 -1.0737
19260TIP3    H279196   2.258   1.977  11.440 -1.2700  0.0141 -1.1975
19261TIP3   OH279197   4.446   2.979  10.157  0.0538  0.1219  0.1435
19261TIP3    H179198   4.377   2.935  10.107  0.3423 -0.1161 -0.0517
19261TIP3    H279199   4.499   3.023  10.091  0.3015 -0.0035  0.2566
19262TIP3   OH279200   0.664   4.861   4.275  0.6528  0.0166 -0.1817
19262TIP3    H179201   0.586   4.916   4.270  0.2258 -0.4265  1.2475
19262TIP3    H279202   0.732   4.918   4.311  0.4110 -0.1737  0.5873
19263TIP3   OH279203   0.472   0.065   4.498 -1.0630 -0.1594 -0.1456
19263TIP3    H179204   0.476   0.026   4.411  0.2848 -2.3031  0.8109
19263TIP3    H279205   0.555   0.111   4.508 -0.8812 -0.5796  0.2951
19264TIP3   OH279206   0.652   6.563   4.959  0.6196  0.2115  0.1388
19264TIP3    H179207   0.592   6.635   4.976  0.5237  0.4375 -1.0790
19264TIP3    H279208   0.651   6.552   4.864  1.3434 -0.7838  0.2243
19265TIP3   OH279209   0.564   2.997   1.614  0.4489  0.2402 -0.1126
19265TIP3    H179210   0.529   3.022   1.528  2.7014  0.7945 -0.9340
19265TIP3    H279211   0.642   3.051   1.624  1.2168 -1.1045  1.5027
19266TIP3   OH279212   4.549   2.515  13.251 -0.2386 -0.0244 -0.1403
19266TIP3    H179213   4.615   2.446  13.250 -0.5132 -0.4145  2.4838
19266TIP3    H279214   4.468   2.473  13.223 -0.0452 -0.3259 -0.2419
19267TIP3   OH279215   2.098   0.026   2.192  0.6594 -0.0042 -0.0437
19267TIP3    H179216   2.124   0.101   2.245 -0.9002  0.0416  0.7050
19267TIP3    H279217   2.039  -0.024   2.248  2.0613 -2.1005 -0.3280
19268TIP3   OH279218   6.224   1.586  13.631 -0.2924  0.5239 -0.6873
19268TIP3    H179219   6.128   1.582  13.628 -0.3252 -4.2106 -1.6986
19268TIP3    H279220   6.249   1.601  13.540 -0.0213  1.7998 -0.4147
19269TIP3   OH279221   4.355   1.015  13.154 -0.3363  0.6485  0.2774
19269TIP3    H179222   4.438   1.023  13.106 -0.4853 -0.1372 -0.1117
19269TIP3    H279223   4.378   0.967  13.234 -0.4349  0.3673  0.1351
19270TIP3   OH279224   5.147   1.220   5.303  0.8028 -0.0084  0.5158
19270TIP3    H179225   5.180   1.135   5.332  2.1509  0.1511 -0.4661
19270TIP3    H279226   5.143   1.273   5.383  4.0040  0.2905  0.5946
19271TIP3   OH279227   2.195   1.463  13.355 -0.6098  0.5509 -0.4685
19271TIP3    H179228   2.168   1.553  13.373 -0.1190  0.3229  1.6046
19271TIP3    H279229   2.140   1.409  13.412  2.2583 -0.0967  1.8946
19272TIP3   OH279230   3.865   5.206  14.243 -0.8866 -0.3134  0.0403
19272TIP3    H179231   3.959   5.224  14.245 -1.0170  0.8263 -1.8083
19272TIP3    H279232   3.856   5.118  14.280  1.1943 -1.4607 -1.9267
19273TIP3   OH279233   4.728   0.748   0.892  0.7371 -0.3527 -0.2561
19273TIP3    H179234   4.764   0.837   0.885  2.5332 -0.8680  1.5019
19273TIP3    H279235   4.655   0.756   0.954 -1.7202  0.5077 -3.0425
19274TIP3   OH279236   2.981   2.728  11.224 -0.0868 -0.0000 -0.0028
19274TIP3    H179237   3.006   2.713  11.315 -0.1429  0.3688  0.0778
19274TIP3    H279238   2.949   2.644  11.193 -1.7424  0.2810  0.8485
19275TIP3   OH279239   0.149   2.978  13.996 -0.2719  0.6966  0.4772
19275TIP3    H179240   0.157   2.895  14.043 -0.4264  0.2543 -0.2535
19275TIP3    H279241   0.150   3.045  14.064 -0.8056  0.0580  1.1302
19276TIP3   OH279242   1.914   5.755   3.152  0.1493  0.1739  0.0758
19276TIP3    H179243   1.877   5.707   3.078 -0.3771  0.0468  0.4193
19276TIP3    H279244   1.839   5.780   3.205  0.5402  0.0689  0.6914
19277TIP3   OH279245   5.602   5.387   2.846  0.3292 -0.1455 -0.3135
19277TIP3    H179246   5.564   5.350   2.767 -0.3077 -0.1106 -0.0346
19277TIP3    H279247   5.695   5.368   2.840 -0.0312 -2.2034  0.0370
19278TIP3   OH279248   1.659   2.279   4.389 -0.1202 -0.1489 -0.1215
19278TIP3    H179249   1.618   2.365   4.391 -1.2727 -0.6974  1.5828
19278TIP3    H279250   1.718   2.279   4.465  0.8109 -0.4531 -0.8204
19279TIP3   OH279251   6.759   1.063  13.445 -0.1483  0.5511 -0.9733
19279TIP3    H179252   6.722   0.988  13.399 -0.0435 -0.9543  1.2038
19279TIP3    H279253   6.702   1.137  13.422 -3.6733 -1.3066  0.9531
19280TIP3   OH279254   5.769   0.420   3.148  0.6241  1.0216 -0.0940
19280TIP3    H179255   5.787   0.507   3.112 -0.2438  1.1856 -0.1555
19280TIP3    H279256   5.792   0.427   3.240  1.2126  1.1116 -0.2446
19281TIP3   OH279257   5.694   5.796   3.548 -0.0323  0.6180  0.8477
19281TIP3    H179258   5.688   5.886   3.581 -0.6824  0.3244  1.5962
19281TIP3    H279259   5.605   5.777   3.517  0.7353  1.1640 -1.9631
19282TIP3   OH279260   0.176   3.239   1.184  0.2655  0.2100 -0.0560
19282TIP3    H179261   0.204   3.221   1.094  0.1565  0.9184 -0.2365
19282TIP3    H279262   0.212   3.166   1.235  2.6365  1.1897 -0.2139
19283TIP3   OH279263   4.644   3.744  12.346  0.4902  0.0981  0.0930
19283TIP3    H179264   4.612   3.700  12.268  2.1451 -0.8359 -0.0945
19283TIP3    H279265   4.711   3.804  12.315  1.4712 -0.5868  0.7906
19284TIP3   OH279266   6.540   0.201   5.078 -0.0443  0.2853 -0.7345
19284TIP3    H179267   6.544   0.278   5.021 -0.2495  0.7436 -0.1465
19284TIP3    H279268   6.447   0.185   5.090 -0.0141  0.5929 -0.0168
19285TIP3   OH279269   0.878   4.376  14.602  0.0331 -0.0110 -0.6169
19285TIP3    H179270   0.929   4.299  14.580 -1.2514 -0.6409 -1.5620
19285TIP3    H279271   0.852   4.413  14.517  2.0265  2.5003 -0.2490
19286TIP3   OH279272   0.466   6.239   6.006  0.0070 -0.2649 -0.4149
19286TIP3    H179273   0.550   6.211   5.970 -0.1967  0.7819 -1.7328
19286TIP3    H279274   0.433   6.161   6.052  0.4732 -1.5186 -2.1213
19287TIP3   OH279275   1.192   1.576   3.222 -0.1569  0.9789 -0.0402
19287TIP3    H179276   1.187   1.622   3.307 -0.8312  0.6010  0.1280
19287TIP3    H279277   1.194   1.647   3.158 -0.1948  1.2657  0.2660
19288TIP3   OH279278   0.701   6.864   4.899  0.4025 -0.2927 -0.0304
19288TIP3    H179279   0.677   6.832   4.812 -1.4293 -2.0022  1.0170
19288TIP3    H279280   0.631   6.924   4.923  1.4284  0.9711 -0.1030
19289TIP3   OH279281   5.419   1.841  13.427 -0.1731  0.1860  0.3563
19289TIP3    H179282   5.333   1.884  13.425  0.0868  0.7040 -0.0172
19289TIP3    H279283   5.430   1.807  13.338 -0.0129  0.0738  0.4187
19290TIP3   OH279284   5.141   0.995   1.491 -0.2146  0.0811 -0.3161
19290TIP3    H179285   5.195   1.015   1.567  1.3151 -0.3860 -1.2445
19290TIP3    H279286   5.112   0.905   1.504 -0.1543  0.0835 -0.1708
19291TIP3   OH279287   1.471   5.810   1.089 -0.0121  0.5480 -0.4591
19291TIP3    H179288   1.444   5.834   1.000 -2.2835 -0.6675 -0.1668
19291TIP3    H279289   1.502   5.892   1.128  0.9083  1.1316 -2.2918
19292TIP3   OH279290   0.918   5.615   1.292 -0.3169 -0.3297 -0.6425
19292TIP3    H179291   0.910   5.711   1.286  1.4670 -0.0667  0.2977
19292TIP3    H279292   0.963   5.591   1.211  2.9533  0.2474  0.8145
19293TIP3   OH279293   2.855   0.118   4.707 -0.1610  0.1258  0.4547
19293TIP3    H179294   2.852   0.213   4.697 -0.3131  0.2793  1.7248
19293TIP3    H279295   2.944   0.094   4.682  0.4509  0.8561  1.7780
19294TIP3   OH279296   0.634   4.063   4.521 -0.1202  0.3301 -0.3806
19294TIP3    H179297   0.632   4.159   4.524  2.5028  0.4950 -1.2620
19294TIP3    H279298   0.699   4.039   4.588  0.0252 -0.7466 -0.8964
19295TIP3   OH279299   3.950   3.565  10.758  0.4715  0.3769 -0.5361
19295TIP3    H179300   3.915   3.581  10.670  0.3115  2.6317 -0.1360
19295TIP3    H279301   3.984   3.651  10.785  3.5931 -0.9843  0.3061
19296TIP3   OH279302   4.150   1.383   0.598 -0.4448  0.6041  0.0627
19296TIP3    H179303   4.198   1.303   0.577 -0.3482  0.5124  0.6169
19296TIP3    H279304   4.059   1.356   0.606 -0.3208  0.4096  0.9432
19297TIP3   OH279305   0.635   3.071  16.641 -0.2219 -0.0978 -0.2534
19297TIP3    H179306   0.613   3.094  16.551 -0.0269 -3.6271 -1.3509
19297TIP3    H279307   0.553   3.083  16.689 -0.8436  0.0564 -1.3167
19298TIP3   OH279308   1.595   2.793   1.847 -0.3174 -0.2949 -0.4140
19298TIP3    H179309   1.675   2.743   1.833  0.4524  1.3281 -2.2178
19298TIP3    H279310   1.524   2.730   1.833  0.5870 -1.7398  1.1367
19299TIP3   OH279311   0.515   3.307  15.918  0.1638  0.5759 -0.2953
19299TIP3    H179312   0.423   3.292  15.898  0.2806  0.8770 -1.1399
19299TIP3    H279313   0.547   3.357  15.842  0.9406  0.7373  0.1336
19300TIP3   OH279314   2.950   2.612   4.897 -0.2000  0.3299 -0.5544
19300TIP3    H179315   2.887   2.678   4.867  1.0337  1.6234 -0.4321
19300TIP3    H279316   3.008   2.660   4.957  0.1309 -1.1284  0.3353
19301TIP3   OH279317   2.788   1.055   9.896  0.4131  0.2396  0.3556
19301TIP3    H179318   2.860   1.092   9.947 -0.5901 -0.3977  2.3243
19301TIP3    H279319   2.790   0.962   9.917  0.1761 -0.0984 -1.0633
19302TIP3   OH279320   0.444   0.807   0.818  0.0246 -0.1737 -0.6980
19302TIP3    H179321   0.354   0.836   0.836 -0.1172 -0.7610 -0.4560
19302TIP3    H279322   0.451   0.722   0.860  0.7432 -0.0735 -0.6017
19303TIP3   OH279323   6.109   2.345   3.664  0.4485 -0.3961  0.3855
19303TIP3    H179324   6.078   2.256   3.649  0.2588 -0.0189 -1.7286
19303TIP3    H279325   6.203   2.341   3.649  0.2980 -0.0666 -0.7391
19304TIP3   OH279326   0.775   5.017   5.413  0.8078  0.8994 -0.0078
19304TIP3    H179327   0.700   5.058   5.371  0.6878  1.1674  0.4590
19304TIP3    H279328   0.848   5.033   5.353 -0.0410 -2.0058 -2.0189
19305TIP3   OH279329   0.388   6.832  15.534  0.3081  0.2940 -0.1072
19305TIP3    H179330   0.418   6.873  15.615  0.3068  0.5182 -0.2187
19305TIP3    H279331   0.455   6.767  15.514  0.3095  0.2395  0.0716
19306TIP3   OH279332   3.657   4.937   3.767 -0.2961  0.0819  0.3972
19306TIP3    H179333   3.694   5.013   3.722 -0.5898  0.4098  0.6991
19306TIP3    H279334   3.576   4.970   3.806  0.1151 -0.1116  1.4307
19307TIP3   OH279335   6.191   5.148  13.914 -0.2025 -0.7970 -0.4482
19307TIP3    H179336   6.144   5.181  13.837 -2.2671 -1.1524  0.5892
19307TIP3    H279337   6.229   5.065  13.885  0.2912 -0.2406 -1.4683
19308TIP3   OH279338   5.793   1.587   2.342 -0.3397 -0.5104  0.4522
19308TIP3    H179339   5.872   1.641   2.345 -0.1656 -0.8062  1.5960
19308TIP3    H279340   5.721   1.651   2.339 -0.0634 -0.2369 -1.7007
19309TIP3   OH279341   5.266   4.245  13.778 -0.1148 -0.6256  0.9892
19309TIP3    H179342   5.283   4.334  13.809  0.4873 -0.2403 -0.3499
19309TIP3    H279343   5.353   4.211  13.755 -0.5642 -0.6002 -0.9154
19310TIP3   OH279344   4.851   1.263  12.328  0.2538 -0.2398  0.2133
19310TIP3    H179345   4.788   1.205  12.284  0.5989 -0.8135  0.4658
19310TIP3    H279346   4.930   1.210  12.336  0.9770  0.6835 -0.6509
19311TIP3   OH279347   6.896   0.955  14.304  0.4926 -0.2273  0.1617
19311TIP3    H179348   6.857   0.992  14.383  0.2543 -0.6254  0.2294
19311TIP3    H279349   6.840   0.987  14.233 -1.7878 -3.1253  0.4633
19312TIP3   OH279350   2.528   1.899   3.766 -0.4571  0.1773  0.6095
19312TIP3    H179351   2.519   1.805   3.782 -1.4180  0.1978  0.2873
19312TIP3    H279352   2.573   1.905   3.682 -0.2991  0.0071  0.6805
19313TIP3   OH279353   4.168   1.668  13.466 -0.3513  0.1454  0.0899
19313TIP3    H179354   4.187   1.576  13.448 -1.6541 -0.1718  0.2738
19313TIP3    H279355   4.193   1.714  13.386  2.3385 -0.0226  0.7069
19314TIP3   OH279356   2.415   3.788  16.348 -0.9378 -0.3010  0.4163
19314TIP3    H179357   2.349   3.778  16.280  1.1489  0.9743 -1.9476
19314TIP3    H279358   2.478   3.850  16.312  0.8554 -0.3886  3.0965
19315TIP3   OH279359   6.136   1.794   4.309  0.7198  0.0568 -0.3164
19315TIP3    H179360   6.227   1.803   4.339 -0.0570  0.6739  2.1034
19315TIP3    H279361   6.122   1.700   4.301  1.0651 -0.1548  1.2002
19316TIP3   OH279362   4.991   1.565  10.674  0.3004 -0.2187 -0.1423
19316TIP3    H179363   4.911   1.601  10.637  0.6388  1.7119  0.8732
19316TIP3    H279364   5.010   1.488  10.621 -2.0209 -0.5148 -0.6193
19317TIP3   OH279365   0.633   2.382   4.251 -0.0394  0.1506  0.0744
19317TIP3    H179366   0.553   2.331   4.241 -0.1901  0.5774 -1.0538
19317TIP3    H279367   0.620   2.459   4.196  1.6152 -0.3564 -1.1172
19318TIP3   OH279368   3.407   5.694  10.754  0.5294  0.4611 -0.3957
19318TIP3    H179369   3.319   5.723  10.731  0.7178  1.1104 -0.3197
19318TIP3    H279370   3.465   5.747  10.700  0.8567 -0.8037 -1.3407
19319TIP3   OH279371   0.239   6.321   3.271  0.2212 -0.3951 -0.2387
19319TIP3    H179372   0.280   6.245   3.313 -0.7537 -1.2800 -0.8583
19319TIP3    H279373   0.292   6.337   3.193  0.8449  0.0153  0.2552
19320TIP3   OH279374   1.485   5.653  11.924  0.6061 -0.1008 -0.0626
19320TIP3    H179375   1.440   5.643  12.009  2.0281 -0.3450  0.6859
19320TIP3    H279376   1.561   5.595  11.931  0.6949 -0.1892 -1.5579
19321TIP3   OH279377   5.049   5.936  10.740  0.4036  0.6179 -0.0639
19321TIP3    H179378   4.958   5.965  10.754  0.0766 -0.9457  1.3829
19321TIP3    H279379   5.041   5.845  10.711  1.4816  1.0811 -2.0112
19322TIP3   OH279380   5.163   2.805  14.737 -0.0284  0.0321  0.2936
19322TIP3    H179381   5.123   2.734  14.787 -0.7652  0.0551 -0.2460
19322TIP3    H279382   5.172   2.769  14.648  1.3006 -0.0286  0.4304
19323TIP3   OH279383   4.805   0.656  10.338  0.0379  0.5394 -0.2422
19323TIP3    H179384   4.765   0.720  10.279 -0.8992 -0.4128 -0.6583
19323TIP3    H279385   4.899   0.663  10.321 -0.2542 -0.4528 -2.6453
19324TIP3   OH279386   0.593   5.962   2.187 -0.3773 -0.2635  0.1538
19324TIP3    H179387   0.680   5.924   2.199 -0.8331 -1.5201 -0.3535
19324TIP3    H279388   0.540   5.922   2.256 -1.2670 -1.8915 -1.4184
19325TIP3   OH279389   5.015   0.101  15.152  0.3581  0.7148  0.8105
19325TIP3    H179390   4.976   0.039  15.213 -0.2802  1.2247  0.9289
19325TIP3    H279391   5.059   0.165  15.207 -0.0303  1.0526  0.7275
19326TIP3   OH279392   5.382   4.220  10.717 -0.4012  0.2976 -0.1709
19326TIP3    H179393   5.314   4.155  10.731 -1.3292  1.0847 -0.8397
19326TIP3    H279394   5.390   4.226  10.622 -0.2046  1.0110 -0.1179
19327TIP3   OH279395   3.720   5.130  16.568 -0.6571  0.2205  0.8649
19327TIP3    H179396   3.682   5.050  16.603 -0.9429  0.1556  0.4187
19327TIP3    H279397   3.672   5.146  16.486 -1.1433  1.2553  1.3239
19328TIP3   OH279398   6.332   1.711  12.286  0.0742 -1.0402 -0.0606
19328TIP3    H179399   6.314   1.772  12.214 -0.3031 -0.1838  0.7322
19328TIP3    H279400   6.263   1.646  12.280 -0.2054 -0.7340 -0.2281
19329TIP3   OH279401   6.216   0.020   0.276 -0.2051  0.7843 -0.2132
19329TIP3    H179402   6.263   0.023   0.193 -0.0947  0.0406 -0.1817
19329TIP3    H279403   6.209  -0.073   0.296 -1.7197  0.8782 -0.2304
19330TIP3   OH279404   0.561   6.681  12.476  0.4926 -0.0237 -0.0874
19330TIP3    H179405   0.563   6.776  12.488  0.8736 -0.1710  1.0763
19330TIP3    H279406   0.502   6.668  12.401  1.6495  1.2110 -1.2596
19331TIP3   OH279407   0.550   0.277  11.668  0.3689 -0.1018  0.6987
19331TIP3    H179408   0.617   0.345  11.675  0.2389 -0.0640  1.7116
19331TIP3    H279409   0.528   0.274  11.575  0.7407  0.8878  0.5709
19332TIP3   OH279410   4.324   0.934  15.333 -0.5793  0.0532 -0.5821
19332TIP3    H179411   4.289   0.942  15.245 -0.1056 -2.0127 -1.0155
19332TIP3    H279412   4.376   0.853  15.331 -1.6300 -0.7807  1.9133
19333TIP3   OH279413   3.974   0.348  14.801  0.3292 -0.1600  0.6772
19333TIP3    H179414   3.914   0.275  14.818  0.8041 -0.1501  2.5869
19333TIP3    H279415   4.039   0.312  14.740 -1.0199 -0.4514 -0.6547
19334TIP3   OH279416   3.057   4.507   5.909 -0.2577  0.2805 -0.3868
19334TIP3    H179417   3.017   4.528   5.993 -0.4224 -2.0392  0.1724
19334TIP3    H279418   3.137   4.559   5.907 -0.3671  0.5521  1.0932
19335TIP3   OH279419   6.041   0.877  15.386 -0.1138 -0.0121 -0.3736
19335TIP3    H179420   6.046   0.879  15.481 -1.6453 -0.8964 -0.2353
19335TIP3    H279421   5.952   0.846  15.367  0.6079 -1.2078 -2.0741
19336TIP3   OH279422   4.473   5.156  15.287 -0.6093 -0.3139  0.4067
19336TIP3    H179423   4.457   5.204  15.205 -3.2239  0.6423  1.3428
19336TIP3    H279424   4.455   5.065  15.265 -1.8934  0.0081  0.0116
19337TIP3   OH279425   4.747   5.359   4.371  0.3612 -0.0270 -0.1730
19337TIP3    H179426   4.669   5.382   4.321 -0.3538 -0.4039  0.7383
19337TIP3    H279427   4.772   5.440   4.415 -0.0672 -0.1282  0.2606
19338TIP3   OH279428   4.889   0.206   3.305  0.3490 -0.6764  0.3664
19338TIP3    H179429   4.904   0.163   3.221 -0.7232 -2.2025  0.9061
19338TIP3    H279430   4.794   0.203   3.317  0.1042  2.4673  0.1736
19339TIP3   OH279431   3.265   3.120   1.893 -0.3726 -0.0851  0.2254
19339TIP3    H179432   3.175   3.098   1.870 -0.5944  0.5933  0.4019
19339TIP3    H279433   3.284   3.198   1.841 -0.1481  0.2169  0.7515
19340TIP3   OH279434   4.554   3.552  10.731 -0.0760 -0.4358  0.4539
19340TIP3    H179435   4.485   3.486  10.731  0.7267 -1.5037 -2.9689
19340TIP3    H279436   4.635   3.503  10.717  0.6814  1.1016 -1.0180
19341TIP3   OH279437   2.650   3.983   4.727  0.5719 -0.0443  0.1392
19341TIP3    H179438   2.579   3.944   4.676  1.6462 -1.0681 -0.6342
19341TIP3    H279439   2.687   3.910   4.777  1.8487  0.1837 -0.4125
19342TIP3   OH279440   5.872   1.456  12.425  0.1581 -0.7449  0.2081
19342TIP3    H179441   5.836   1.468  12.513  1.1268 -1.4985  0.7210
19342TIP3    H279442   5.834   1.374  12.394  0.2652 -0.7697  0.1418
19343TIP3   OH279443   2.527   6.772  14.587 -0.3964 -0.1690 -0.5548
19343TIP3    H179444   2.578   6.730  14.657 -1.2996 -1.6319 -0.7334
19343TIP3    H279445   2.487   6.847  14.630  2.7969  1.8221 -0.6890
19344TIP3   OH279446   6.299   5.939  12.655  0.1735  0.0706 -0.0696
19344TIP3    H179447   6.290   5.844  12.648  0.2700  0.0045  0.6551
19344TIP3    H279448   6.358   5.963  12.584 -1.2638 -0.1745 -1.4106
19345TIP3   OH279449   3.313   0.582  15.072 -0.1306  0.1564  0.1701
19345TIP3    H179450   3.305   0.661  15.019 -0.9983 -1.0585 -1.6117
19345TIP3    H279451   3.404   0.554  15.060 -0.4909 -0.4953 -1.3569
19346TIP3   OH279452   2.276   2.473   0.941 -0.4528 -1.0232  0.3814
19346TIP3    H179453   2.369   2.473   0.919 -0.7736 -3.0033 -1.2680
19346TIP3    H279454   2.272   2.511   1.029  1.5711  1.7673 -0.5783
19347TIP3   OH279455   2.163   3.651  14.331 -0.4005  0.4902  0.2258
19347TIP3    H179456   2.070   3.641  14.353 -0.4803 -0.5597 -0.4960
19347TIP3    H279457   2.204   3.573  14.369 -0.1579 -0.1073 -1.2222
19348TIP3   OH279458   5.482   5.623   2.856  0.0489  0.5208  0.1401
19348TIP3    H179459   5.528   5.540   2.865 -1.4385 -0.8983 -3.4215
19348TIP3    H279460   5.518   5.678   2.925  2.4202 -2.4602  1.5148
19349TIP3   OH279461   3.787   3.752   1.067 -0.2000 -0.0774 -0.4520
19349TIP3    H179462   3.844   3.827   1.079  0.0703 -0.3979  0.4061
19349TIP3    H279463   3.756   3.732   1.156  1.2489 -2.1367 -0.3381
19350TIP3   OH279464   3.608   6.183   3.071  0.0552  0.5860 -0.0047
19350TIP3    H179465   3.618   6.187   3.166 -0.6224  0.2044  0.0853
19350TIP3    H279466   3.686   6.228   3.037  1.5268 -1.2839  0.6869
19351TIP3   OH279467   3.074   6.016   4.616 -0.3511  0.6293 -0.2343
19351TIP3    H179468   3.112   5.958   4.550  1.3043  2.3099 -0.8286
19351TIP3    H279469   3.010   5.961   4.661  1.5842 -1.8634 -0.3088
19352TIP3   OH279470   3.927   3.764  14.409 -0.0870  0.2152  0.3550
19352TIP3    H179471   3.886   3.760  14.322 -1.8927 -0.5710  1.1770
19352TIP3    H279472   3.950   3.856  14.420  0.8788  0.2124 -1.2264
19353TIP3   OH279473   2.970   5.733  12.768 -0.3708 -0.1822  1.1235
19353TIP3    H179474   3.061   5.710  12.787 -0.3093 -0.8576  0.0928
19353TIP3    H279475   2.975   5.824  12.737 -0.1586  0.0592  1.8489
19354TIP3   OH279476   5.663   6.528   1.623 -0.3710  0.2659 -0.1344
19354TIP3    H179477   5.713   6.492   1.550 -0.0483  0.6512 -0.1049
19354TIP3    H279478   5.673   6.463   1.693 -1.8585 -0.8306 -0.8608
19355TIP3   OH279479   6.498   5.709   3.062  0.1413  0.0233 -0.1154
19355TIP3    H179480   6.545   5.627   3.050  1.0165  0.2276  1.6513
19355TIP3    H279481   6.422   5.702   3.003 -0.0003 -2.1755  0.2499
19356TIP3   OH279482   5.972   6.328   3.167  0.5909 -0.3686 -0.6849
19356TIP3    H179483   5.897   6.277   3.135  2.1497 -1.8283 -2.2224
19356TIP3    H279484   5.989   6.392   3.098 -1.9024  3.1210  1.6004
19357TIP3   OH279485   3.240   4.588  12.799 -0.3673  0.0891 -0.2989
19357TIP3    H179486   3.232   4.495  12.777  3.2318 -0.5087  0.2441
19357TIP3    H279487   3.288   4.589  12.882 -0.0294  2.4160 -0.4559
19358TIP3   OH279488   3.858   3.290   6.055 -0.0351 -0.1227  0.5249
19358TIP3    H179489   3.930   3.231   6.032  0.8213  1.3007 -0.6589
19358TIP3    H279490   3.874   3.312   6.147  1.1280  0.2192  0.2690
19359TIP3   OH279491   5.802   3.950   4.117 -0.5284  0.0833 -0.2964
19359TIP3    H179492   5.889   3.983   4.139 -0.2145 -1.3505  0.7666
19359TIP3    H279493   5.748   3.972   4.193 -0.7287 -0.3077 -0.3187
19360TIP3   OH279494   3.277   5.993   4.093  0.1051 -0.3966 -0.1404
19360TIP3    H179495   3.363   6.028   4.117 -0.5438  1.2579 -0.0749
19360TIP3    H279496   3.288   5.960   4.004  0.7160  0.1844 -0.2921
19361TIP3   OH279497   5.313   4.011   3.278 -0.1456  0.4071  0.2040
19361TIP3    H179498   5.305   3.915   3.275 -2.8382  0.5412  0.9010
19361TIP3    H279499   5.403   4.028   3.250  0.6071 -2.3503  0.6449
19362TIP3   OH279500   0.338   4.138  12.531 -0.1968  0.6631  0.5421
19362TIP3    H179501   0.431   4.155  12.544 -0.2098  3.5925 -1.9630
19362TIP3    H279502   0.321   4.056  12.577  3.1102  1.1286  2.9288
19363TIP3   OH279503   3.468   5.204   3.392 -0.0354 -0.1090 -0.1484
19363TIP3    H179504   3.517   5.284   3.375 -0.1608 -0.1063 -0.5132
19363TIP3    H279505   3.479   5.188   3.485 -0.9178  0.9257  0.1413
19364TIP3   OH279506   5.103   5.210   0.242  0.0998 -0.2802  0.3360
19364TIP3    H179507   5.017   5.173   0.220 -0.1146  0.4928 -0.1548
19364TIP3    H279508   5.096   5.303   0.221  0.2380  0.3273  2.7023
19365TIP3   OH279509   2.391   0.811   4.627 -0.2891 -0.0070  0.6003
19365TIP3    H179510   2.416   0.725   4.595 -1.0122  0.0480 -0.1427
19365TIP3    H279511   2.297   0.817   4.610 -0.4744  0.4747  1.7241
19366TIP3   OH279512   2.198   3.105   4.851  0.6910 -0.0754 -0.2012
19366TIP3    H179513   2.152   3.065   4.925 -0.3365 -0.8122 -1.1900
19366TIP3    H279514   2.224   3.191   4.882 -2.3113  0.8083  0.1316
19367TIP3   OH279515   1.013   1.649   1.104  0.3458  0.3183 -0.2247
19367TIP3    H179516   0.947   1.646   1.035  1.3292 -0.4090 -1.1605
19367TIP3    H279517   1.004   1.565   1.150  1.5706 -0.4363 -1.2984
19368TIP3   OH279518   1.017   4.813  12.421 -0.2202 -0.5198  0.1654
19368TIP3    H179519   1.085   4.782  12.361 -1.4485  1.0335 -2.1848
19368TIP3    H279520   1.066   4.845  12.497  1.3092 -3.9090  0.8127
19369TIP3   OH279521   1.977   6.879  14.229 -0.0947  0.1852  0.1425
19369TIP3    H179522   2.018   6.828  14.160  0.9401  1.6256 -0.3653
19369TIP3    H279523   1.896   6.832  14.249  0.5204 -1.2925 -0.6946
19370TIP3   OH279524   0.853   1.152  11.006  0.5813 -0.0111 -0.1474
19370TIP3    H179525   0.854   1.200  10.923 -1.3382 -1.2226 -0.9185
19370TIP3    H279526   0.816   1.214  11.069 -1.4675 -0.2488 -1.0442
19371TIP3   OH279527   4.586   1.396  10.994 -0.3620  0.2495 -0.4736
19371TIP3    H179528   4.598   1.425  11.085 -0.0928 -0.8092 -0.1544
19371TIP3    H279529   4.665   1.345  10.975 -1.1219 -0.8659 -0.7575
19372TIP3   OH279530   1.669   5.995   0.275 -0.3174 -0.8373  0.4218
19372TIP3    H179531   1.727   5.976   0.201  1.1262  1.5424  0.8502
19372TIP3    H279532   1.717   5.964   0.352  0.3386  0.9299  0.7558
19373TIP3   OH279533   5.178   4.403  16.524 -0.2074 -0.1233  0.5526
19373TIP3    H179534   5.108   4.466  16.507 -0.3829  0.1911  2.3293
19373TIP3    H279535   5.133   4.324  16.554  0.1083 -0.5676 -0.1200
19374TIP3   OH279536   2.960   5.849   2.364  0.0812  0.3206 -0.5174
19374TIP3    H179537   2.941   5.763   2.401 -0.2642  0.3864 -0.5351
19374TIP3    H279538   2.957   5.909   2.439 -0.8071  0.4830 -0.6680
19375TIP3   OH279539   3.553   5.384  12.164  0.1525 -0.5732  0.5516
19375TIP3    H179540   3.466   5.401  12.128 -0.6151 -0.2870  2.4711
19375TIP3    H279541   3.603   5.464  12.144  0.2429 -1.0309 -1.2125
19376TIP3   OH279542   5.104   3.622  14.009  0.0731  0.1341 -0.3799
19376TIP3    H179543   5.160   3.664  13.944  0.1657 -1.1733 -1.1980
19376TIP3    H279544   5.036   3.686  14.028  0.3891  0.7619 -1.3281
19377TIP3   OH279545   2.711   2.234  12.271  0.0627  0.5062  0.7583
19377TIP3    H179546   2.628   2.187  12.276  0.5532 -0.9652 -2.5873
19377TIP3    H279547   2.687   2.323  12.248 -0.6543 -0.1442 -1.2371
19378TIP3   OH279548   5.890   3.250  16.001 -0.3465  0.8311 -0.3445
19378TIP3    H179549   5.843   3.176  16.039  0.8379 -0.2130 -0.8586
19378TIP3    H279550   5.934   3.292  16.076  0.1079  0.1634 -0.2286
19379TIP3   OH279551   1.200   3.753  16.256 -0.0957  0.4152 -0.1667
19379TIP3    H179552   1.292   3.782  16.258  0.6331 -1.5047  3.3403
19379TIP3    H279553   1.205   3.661  16.230 -0.7948 -0.1263  1.4848
19380TIP3   OH279554   1.127   5.628   1.801 -0.0274  0.1929  0.3477
19380TIP3    H179555   1.107   5.551   1.854  0.4806  0.8076  1.4673
19380TIP3    H279556   1.214   5.609   1.765 -0.4862 -0.3438 -0.5340
19381TIP3   OH279557   4.469   6.597   1.359  0.2739  0.3765 -0.2614
19381TIP3    H179558   4.454   6.529   1.293  0.9945  1.7502 -1.9139
19381TIP3    H279559   4.382   6.635   1.374 -0.0327 -0.5004  0.2398
19382TIP3   OH279560   0.004   2.842   2.400 -0.0188  0.0231  0.8039
19382TIP3    H179561  -0.069   2.853   2.339 -1.8823  0.5275  3.0102
19382TIP3    H279562   0.032   2.752   2.387  0.6929  0.5302 -1.8301
19383TIP3   OH279563   2.085   6.539   4.151  0.4230  0.1974  0.1981
19383TIP3    H179564   2.091   6.592   4.072  1.2568  0.9998  0.7882
19383TIP3    H279565   2.136   6.460   4.131 -1.7045 -0.9571 -1.0778
19384TIP3   OH279566   5.667   6.099  12.385 -0.4357  0.0215  0.4194
19384TIP3    H179567   5.721   6.036  12.336  1.0534  2.6317 -1.5467
19384TIP3    H279568   5.713   6.111  12.468 -0.2254 -0.7566  0.4225
19385TIP3   OH279569   1.039   6.527  15.372  0.2141 -0.5792 -0.6854
19385TIP3    H179570   1.011   6.496  15.286  0.1968 -0.9846 -0.5348
19385TIP3    H279571   1.041   6.448  15.427  1.8840 -0.6064 -0.7387
19386TIP3   OH279572   3.147   5.164   4.112 -0.5857  0.4745 -0.7961
19386TIP3    H179573   3.200   5.086   4.128 -1.2659  0.0809 -0.3833
19386TIP3    H279574   3.158   5.217   4.191  0.1553  0.9663 -1.2254
19387TIP3   OH279575   4.578   3.975   0.868  0.5210 -0.3283  0.0693
19387TIP3    H179576   4.621   4.036   0.809 -0.6008  0.0815 -0.3511
19387TIP3    H279577   4.586   4.015   0.955 -0.2808  0.4767 -0.2162
19388TIP3   OH279578   5.944   3.174   4.577 -0.1718 -0.4072  0.4375
19388TIP3    H179579   5.880   3.205   4.513 -0.4916 -0.7163  0.6039
19388TIP3    H279580   6.010   3.243   4.580 -0.0547 -0.4715 -0.3606
19389TIP3   OH279581   0.759   2.412   3.607 -0.1055 -0.5444 -0.1915
19389TIP3    H179582   0.679   2.459   3.585  0.0262 -0.3757 -0.3167
19389TIP3    H279583   0.817   2.479   3.642  0.3433 -0.4716 -1.0334
19390TIP3   OH279584   3.304   4.212  14.511 -0.5983 -0.6551 -0.1369
19390TIP3    H179585   3.362   4.150  14.467  0.6068 -0.5211  1.1705
19390TIP3    H279586   3.338   4.298  14.486  0.8763 -0.5649  1.8790
19391TIP3   OH279587   4.625   6.128   1.444  0.4277  0.5996 -0.0066
19391TIP3    H179588   4.629   6.044   1.400 -0.1855 -0.1073  1.2474
19391TIP3    H279589   4.532   6.142   1.462  0.6740  0.7626  1.2355
19392TIP3   OH279590   6.693   1.914  11.364 -0.3413  0.7462 -0.4023
19392TIP3    H179591   6.655   1.994  11.329 -2.8754  0.3109  1.0829
19392TIP3    H279592   6.622   1.850  11.361  1.7385 -1.7055 -2.0919
19393TIP3   OH279593   4.356   6.770   0.702  0.1376  0.6394 -0.5059
19393TIP3    H179594   4.380   6.849   0.653  0.1522  1.2383  0.4350
19393TIP3    H279595   4.440   6.728   0.721  0.0443 -0.5920 -2.5425
19394TIP3   OH279596   1.266   6.159   6.016 -0.0887 -0.4060  0.0229
19394TIP3    H179597   1.225   6.093   6.071  0.3434  1.0776  2.2315
19394TIP3    H279598   1.241   6.243   6.054  0.8241  0.6904 -1.6320
19395TIP3   OH279599   6.738   3.945  15.972  0.0626 -0.2573  0.0943
19395TIP3    H179600   6.807   3.957  15.907 -0.2120  2.3712  0.1797
19395TIP3    H279601   6.661   3.986  15.933 -0.2652  0.8582  1.7979
19396TIP3   OH279602   5.549   6.205  11.339 -0.1156  0.4384  0.1192
19396TIP3    H179603   5.617   6.191  11.405  1.4770  1.5222 -1.1755
19396TIP3    H279604   5.497   6.125  11.340  1.1833 -0.4386  1.1943
19397TIP3   OH279605   0.592   1.192  10.723 -0.3787  0.0316  0.3905
19397TIP3    H179606   0.609   1.158  10.635 -2.0462  0.9227 -0.3088
19397TIP3    H279607   0.562   1.115  10.772  1.2977 -0.6402  0.4573
19398TIP3   OH279608   4.593   2.407  16.113 -0.1761  0.3348  0.0458
19398TIP3    H179609   4.528   2.338  16.099  2.4376 -2.7619  1.6360
19398TIP3    H279610   4.555   2.485  16.074 -4.0129 -1.6417 -0.6290
19399TIP3   OH279611   6.786   5.533  15.387 -0.0466  0.1125 -0.3810
19399TIP3    H179612   6.723   5.461  15.387  0.4513 -0.3290 -0.2711
19399TIP3    H279613   6.835   5.523  15.468 -0.3645  0.9351 -0.0728
19400TIP3   OH279614   3.250   3.547  15.930 -0.4305  0.3998  0.3433
19400TIP3    H179615   3.287   3.551  15.842 -1.5607  1.7987 -0.1045
19400TIP3    H279616   3.305   3.604  15.982 -1.1791  1.4988 -0.0381
19401TIP3   OH279617   5.487   2.505   1.233 -0.8043  0.2060  0.4447
19401TIP3    H179618   5.502   2.502   1.139  0.3464 -0.7325  0.6312
19401TIP3    H279619   5.426   2.578   1.245 -0.0060  1.1606 -0.9088
19402TIP3   OH279620   0.541   5.009   1.741  0.0159 -0.0092 -0.4828
19402TIP3    H179621   0.572   4.961   1.664 -2.7288 -0.0377 -1.7195
19402TIP3    H279622   0.498   4.943   1.795  0.9044  0.2121  0.5159
19403TIP3   OH279623   5.910   3.992  13.948 -0.2724  0.2732 -0.4398
19403TIP3    H179624   5.887   4.049  13.874 -1.4268 -1.2538 -1.3312
19403TIP3    H279625   5.959   4.048  14.007  1.3634  1.3880 -2.7036
19404TIP3   OH279626   5.680   0.243  14.152 -1.0370 -0.1983 -0.7458
19404TIP3    H179627   5.693   0.226  14.245  0.8688 -0.0622 -0.9490
19404TIP3    H279628   5.768   0.246  14.115 -1.5518  2.6541 -2.0545
19405TIP3   OH279629   5.845   5.992  14.515  0.1697  0.1135  0.1872
19405TIP3    H179630   5.763   5.943  14.511  0.0922  0.2738 -0.2551
19405TIP3    H279631   5.837   6.045  14.594  0.8953 -1.6807  1.5439
19406TIP3   OH279632   0.464   3.418   0.839 -0.0744 -0.1034 -0.3684
19406TIP3    H179633   0.373   3.421   0.868 -0.0653  0.8735 -0.4272
19406TIP3    H279634   0.474   3.330   0.803 -1.1856  0.0091 -0.9844
19407TIP3   OH279635   4.633   1.446  16.227  0.1836 -0.1834 -0.3629
19407TIP3    H179636   4.726   1.432  16.209  0.1654 -0.3465 -0.3340
19407TIP3    H279637   4.592   1.447  16.140  0.1827 -0.3374 -0.3657
19408TIP3   OH279638   3.237   3.692   3.971  0.8726 -0.0941 -0.2933
19408TIP3    H179639   3.261   3.661   4.058  1.0797  1.9620  0.4449
19408TIP3    H279640   3.173   3.628   3.939  1.2032 -1.1772  1.1375
19409TIP3   OH279641   1.666   3.353   0.056 -0.1253  0.3998  0.2638
19409TIP3    H179642   1.678   3.278  -0.003 -1.1278  2.1170 -2.3155
19409TIP3    H279643   1.753   3.369   0.092  0.2436 -1.5395  0.3532
19410TIP3   OH279644   5.825   3.632  15.099  0.4231 -0.8038  0.2319
19410TIP3    H179645   5.891   3.686  15.056  0.7273 -1.6623 -0.4172
19410TIP3    H279646   5.834   3.652  15.192  2.1356 -1.4664  0.2410
19411TIP3   OH279647   2.205   0.110   4.463 -0.4476  0.4836 -0.8440
19411TIP3    H179648   2.170   0.134   4.549  1.2465 -0.6052  0.1851
19411TIP3    H279649   2.255   0.030   4.478  1.6473  1.3999 -2.4166
19412TIP3   OH279650   3.276   4.384  14.862 -0.3397  0.2431  0.0887
19412TIP3    H179651   3.360   4.348  14.890 -1.5255 -0.8484  2.4530
19412TIP3    H279652   3.226   4.309  14.830 -1.2643  0.4859  0.9273
19413TIP3   OH279653   4.121   6.766  16.231 -0.2860 -0.1658  0.4342
19413TIP3    H179654   4.086   6.726  16.311  0.3685  0.8459  1.2350
19413TIP3    H279655   4.126   6.693  16.169  0.4354 -1.2557  1.7122
19414TIP3   OH279656   4.575   4.639  10.546 -0.0065  0.3421 -0.0327
19414TIP3    H179657   4.587   4.724  10.503  1.9640 -0.6184 -1.5586
19414TIP3    H279658   4.571   4.576  10.473 -0.0444 -1.0132  1.1025
19415TIP3   OH279659   0.803   2.819   5.762  0.0886 -0.0764 -0.0656
19415TIP3    H179660   0.801   2.801   5.856  0.3579  0.5026  0.0599
19415TIP3    H279661   0.714   2.802   5.732  0.0523 -0.4669  0.2527
19416TIP3   OH279662   2.128   4.451   0.656  0.0003  0.5572  1.2222
19416TIP3    H179663   2.200   4.390   0.643  0.6422  1.3461  0.9629
19416TIP3    H279664   2.069   4.406   0.716 -1.3068 -1.7747 -1.5351
19417TIP3   OH279665   5.301   3.496  16.537  0.0718 -1.0303 -0.1811
19417TIP3    H179666   5.344   3.557  16.597  0.8999 -0.8780 -0.9190
19417TIP3    H279667   5.367   3.429  16.520 -0.1470 -1.0560 -0.9498
19418TIP3   OH279668   0.621   5.024  14.011  0.3530  0.1760 -0.5824
19418TIP3    H179669   0.658   4.935  14.016  0.8617  0.3414 -1.2944
19418TIP3    H279670   0.696   5.080  13.995 -0.2020  0.4988 -2.2542
19419TIP3   OH279671   5.263   4.193   1.782  0.6558  0.2554  0.7248
19419TIP3    H179672   5.320   4.249   1.834 -0.3610  2.9740 -0.8513
19419TIP3    H279673   5.279   4.220   1.692 -0.5909 -1.3789 -0.0394
19420TIP3   OH279674   1.158   5.604  14.308 -0.0939  0.1080  0.2760
19420TIP3    H179675   1.246   5.596  14.272  0.5101 -0.8593  1.8698
19420TIP3    H279676   1.170   5.646  14.393 -1.3972  1.6443 -0.2660
19421TIP3   OH279677   3.890   5.303   1.410  0.0294  0.2455 -0.3957
19421TIP3    H179678   3.807   5.350   1.402 -0.3208 -0.4618 -1.0708
19421TIP3    H279679   3.877   5.223   1.359  0.2978 -1.0182  1.4277
19422TIP3   OH279680   2.302   5.682  13.030  0.4010 -0.1376 -0.3016
19422TIP3    H179681   2.229   5.624  13.052 -0.2271  0.6412 -0.2899
19422TIP3    H279682   2.329   5.719  13.114  1.4147 -1.1115 -0.1854
19423TIP3   OH279683   5.636   1.136   6.032  0.3115 -0.2611  0.3760
19423TIP3    H179684   5.670   1.052   6.064 -1.9704 -0.9110  1.2629
19423TIP3    H279685   5.559   1.113   5.981  0.7605  1.1975 -1.0384
19424TIP3   OH279686   3.860   4.867  15.963 -0.3256  0.7834  0.4341
19424TIP3    H179687   3.836   4.835  16.050  0.1030 -2.4692 -0.5411
19424TIP3    H279688   3.955   4.878  15.967 -0.3623  1.1284  0.4748
19425TIP3   OH279689   3.824   1.937   3.723  0.1829 -0.6042  0.0804
19425TIP3    H179690   3.905   1.973   3.759  0.0916 -0.8999  0.6084
19425TIP3    H279691   3.844   1.918   3.632  0.2462  0.7004 -0.1935
19426TIP3   OH279692   0.043   6.882  11.136 -0.2943  0.7424  0.5587
19426TIP3    H179693   0.036   6.825  11.212  3.0046 -0.8367 -0.1700
19426TIP3    H279694   0.050   6.822  11.061 -1.3419  2.2221 -0.8038
19427TIP3   OH279695   4.365   2.612   4.264 -0.0982  0.6955 -0.6373
19427TIP3    H179696   4.342   2.552   4.335  1.2851 -0.0277 -0.7874
19427TIP3    H279697   4.352   2.562   4.184  0.0214  0.9493 -0.8184
19428TIP3   OH279698   0.890   4.442  11.919  0.2326  0.1813 -0.2471
19428TIP3    H179699   0.843   4.520  11.890  1.6889  0.5609 -1.7542
19428TIP3    H279700   0.982   4.470  11.922  0.6238 -1.1210  0.4954
19429TIP3   OH279701   2.269   0.531  15.266  0.0362  0.2185 -0.0942
19429TIP3    H179702   2.323   0.542  15.345  0.2789 -0.5344 -0.1433
19429TIP3    H279703   2.301   0.450  15.227 -1.8966 -0.9019  0.4997
19430TIP3   OH279704   5.506   5.183   3.663  0.3635 -0.2558 -0.4323
19430TIP3    H179705   5.484   5.276   3.652  0.0224 -0.5592 -3.0162
19430TIP3    H279706   5.579   5.182   3.725  1.7418  1.9667 -1.8770
19431TIP3   OH279707   4.024   1.262   1.987  0.4226 -0.1431 -0.1863
19431TIP3    H179708   4.044   1.318   1.912  1.4513  1.6522  1.3300
19431TIP3    H279709   3.952   1.307   2.032  0.9074 -0.2854  0.7697
19432TIP3   OH279710   3.646   4.780  12.826  0.3462 -0.5523 -0.0818
19432TIP3    H179711   3.629   4.686  12.820 -0.2891 -0.5983  1.8440
19432TIP3    H279712   3.659   4.797  12.919  1.4738  1.1130 -0.4898
19433TIP3   OH279713   3.520   2.426  15.196 -0.5126 -0.0932  0.0851
19433TIP3    H179714   3.475   2.461  15.119  0.4118  0.8123 -0.0626
19433TIP3    H279715   3.599   2.480  15.204  0.3967 -1.4469  0.5112
19434TIP3   OH279716   0.314   1.958   2.861 -0.4263  0.1974  0.3699
19434TIP3    H179717   0.233   1.938   2.908  0.2618  0.3107  1.6396
19434TIP3    H279718   0.306   1.911   2.778 -2.2653  1.0585 -0.0127
19435TIP3   OH279719   5.459   2.251  15.923  0.2607 -0.0762 -0.0334
19435TIP3    H179720   5.527   2.311  15.954 -0.3434  0.1890  0.8259
19435TIP3    H279721   5.405   2.233  16.001 -0.1853 -0.9051 -0.5186
19436TIP3   OH279722   5.358   5.320  11.157 -0.7807 -0.1810  0.7519
19436TIP3    H179723   5.380   5.310  11.249 -0.0260 -0.0696  0.5968
19436TIP3    H279724   5.441   5.302  11.111 -1.4973 -1.7801  0.0042
19437TIP3   OH279725   1.487   1.054   5.715  0.7307 -0.7506  0.2277
19437TIP3    H179726   1.396   1.025   5.720  0.6714 -0.8590 -1.0390
19437TIP3    H279727   1.480   1.149   5.700  0.8552 -0.6290  0.8950
19438TIP3   OH279728   0.807   5.993   2.538 -0.2934 -0.6063 -0.3155
19438TIP3    H179729   0.872   6.011   2.605 -1.3152  0.2627  0.4830
19438TIP3    H279730   0.780   5.903   2.554 -0.1690 -0.5644  0.1488
19439TIP3   OH279731   5.495   2.487  14.181  0.4310  0.3368 -0.4859
19439TIP3    H179732   5.536   2.511  14.264 -0.5462  1.3158 -0.2604
19439TIP3    H279733   5.419   2.434  14.206  1.6922 -1.8089 -0.9185
19440TIP3   OH279734   4.732   4.468  10.182  0.5378 -0.6947  0.1915
19440TIP3    H179735   4.691   4.554  10.174  0.3990 -0.8943 -1.8200
19440TIP3    H279736   4.687   4.414  10.117  1.6370 -1.8743  0.3693
19441TIP3   OH279737   1.921   3.143   1.893 -0.0511  0.5445 -0.2271
19441TIP3    H179738   1.876   3.198   1.829 -1.4333  1.5054  1.5056
19441TIP3    H279739   1.887   3.171   1.978  1.6380 -0.7625  0.9556
19442TIP3   OH279740   3.446   2.448  14.123  0.0138 -0.0868  0.3116
19442TIP3    H179741   3.492   2.365  14.116 -0.4364 -0.3631  0.5968
19442TIP3    H279742   3.516   2.514  14.123  0.4384 -0.5209  1.0924
19443TIP3   OH279743   1.680   1.524   3.469 -0.0265  0.2413  0.3442
19443TIP3    H179744   1.644   1.611   3.484 -0.3170 -0.0725  1.6465
19443TIP3    H279745   1.774   1.533   3.482  0.1931  0.7173 -1.3719
19444TIP3   OH279746   4.283   1.041   2.862 -0.3015  0.8382 -0.0339
19444TIP3    H179747   4.242   0.975   2.919  1.1934  0.0268  0.1405
19444TIP3    H279748   4.212   1.067   2.802 -1.0926 -0.5118  0.2514
19445TIP3   OH279749   6.168   1.324   1.744  0.6585  0.0451  0.1503
19445TIP3    H179750   6.181   1.347   1.836 -0.0137  2.6987 -0.3445
19445TIP3    H279751   6.090   1.268   1.744 -0.3805  1.4433  1.0609
19446TIP3   OH279752   2.142   4.363   0.231 -0.5967 -0.1864 -0.4138
19446TIP3    H179753   2.136   4.436   0.293 -0.5061 -0.4709 -0.0702
19446TIP3    H279754   2.222   4.381   0.181  0.8949 -1.4084  1.4258
19447TIP3   OH279755   3.074   1.479  15.250 -0.0597 -0.2852 -0.0715
19447TIP3    H179756   3.042   1.457  15.338  0.3807 -1.2343 -0.1355
19447TIP3    H279757   2.995   1.506  15.203  0.0072  2.5412  1.2351
19448TIP3   OH279758   1.280   1.517  11.853  0.0939  0.2770 -0.1765
19448TIP3    H179759   1.227   1.496  11.930  2.4999 -1.0241  1.2238
19448TIP3    H279760   1.362   1.551  11.889  0.7569  0.9693 -2.2290
19449TIP3   OH279761   2.875   1.331   2.127 -0.0830  0.0737  0.4412
19449TIP3    H179762   2.896   1.386   2.203 -2.0234  0.2672  0.8934
19449TIP3    H279763   2.807   1.271   2.159 -0.8961  0.1064 -1.1198
19450TIP3   OH279764   0.319   1.000   2.593  0.6680  0.4472  0.1239
19450TIP3    H179765   0.381   0.927   2.599  0.5500  0.3439  0.1112
19450TIP3    H279766   0.345   1.060   2.662 -0.7280 -0.7640  1.7839
19451TIP3   OH279767   1.249   0.604   5.094  0.2810 -0.2025  0.0729
19451TIP3    H179768   1.335   0.606   5.054 -0.4112  0.5917 -1.4583
19451TIP3    H279769   1.232   0.694   5.120 -0.4370 -0.1668 -0.4741
19452TIP3   OH279770   1.842   0.605  11.750  0.3133  0.1449  0.1195
19452TIP3    H179771   1.860   0.634  11.839 -2.0817 -1.6016  1.3059
19452TIP3    H279772   1.777   0.668  11.717 -0.3793 -0.4121  0.4146
19453TIP3   OH279773   3.634   3.823   4.899  0.1540 -0.2985 -0.1844
19453TIP3    H179774   3.568   3.834   4.967  2.7151 -0.2370  2.5269
19453TIP3    H279775   3.650   3.912   4.867  0.8023  0.1076  1.1643
19454TIP3   OH279776   1.577   5.037  11.201  0.4323  0.1467  0.3077
19454TIP3    H179777   1.535   5.095  11.137  0.1694  0.6429  0.9285
19454TIP3    H279778   1.531   4.954  11.191  1.6932 -0.3969 -1.5348
19455TIP3   OH279779   6.619   1.671  15.721  0.5847 -0.3378 -0.0007
19455TIP3    H179780   6.594   1.637  15.635  0.7605 -0.3326 -0.0555
19455TIP3    H279781   6.550   1.733  15.744  0.6094 -0.2331 -0.2045
19456TIP3   OH279782   6.378   2.726  10.242 -0.0003  0.1755 -0.5412
19456TIP3    H179783   6.428   2.792  10.290  0.2156  0.4557 -1.1442
19456TIP3    H279784   6.441   2.686  10.183  0.0835 -1.2118  0.4440
19457TIP3   OH279785   0.480   5.767  14.042  0.3933 -0.0866  0.1497
19457TIP3    H179786   0.511   5.719  14.119  1.5025 -0.3306 -0.4284
19457TIP3    H279787   0.393   5.799  14.067 -0.2346 -2.0567  0.7071
19458TIP3   OH279788   0.097   2.721  12.170  0.4064  0.3651  1.1486
19458TIP3    H179789   0.083   2.781  12.244 -0.6875  0.4042  0.9396
19458TIP3    H279790   0.042   2.645  12.190  1.5979 -0.4779  1.2951
19459TIP3   OH279791   0.250   2.294  13.443 -0.5258 -0.6221  0.1113
19459TIP3    H179792   0.188   2.222  13.454 -0.3557 -0.8112 -0.1921
19459TIP3    H279793   0.283   2.285  13.354 -0.9644  0.1903 -0.1502
19460TIP3   OH279794   3.240   3.813   4.986  0.6144  0.0545  0.4908
19460TIP3    H179795   3.318   3.786   5.035  1.2388 -0.3572 -0.6810
19460TIP3    H279796   3.254   3.906   4.968 -0.3653  0.6048  2.4114
19461TIP3   OH279797   6.830   6.003  11.800  0.3167  0.3125 -0.0047
19461TIP3    H179798   6.771   5.993  11.725  0.2243 -1.8663  0.2872
19461TIP3    H279799   6.905   5.948  11.779  2.4400  3.1608 -0.4378
19462TIP3   OH279800   5.327   5.185  12.984 -0.0873 -0.6294  0.8711
19462TIP3    H179801   5.326   5.199  13.079 -0.8252  0.2055  0.7532
19462TIP3    H279802   5.340   5.272  12.947 -1.8327 -0.6309  0.1697
19463TIP3   OH279803   6.583   5.698  15.916 -0.3121  0.4149 -0.3814
19463TIP3    H179804   6.658   5.650  15.951  1.4423  1.2291 -2.7859
19463TIP3    H279805   6.610   5.790  15.917 -1.2509  0.7225 -1.3710
19464TIP3   OH279806   2.560   1.750   5.174 -0.3990  0.5129 -0.6267
19464TIP3    H179807   2.622   1.823   5.169  1.0019 -0.5082  0.8405
19464TIP3    H279808   2.521   1.746   5.087  2.8160  0.1920 -2.2102
19465TIP3   OH279809   4.673   4.082   5.661 -0.3756  0.5775  0.7332
19465TIP3    H179810   4.613   4.067   5.733 -1.1875  0.8358  0.1261
19465TIP3    H279811   4.703   3.994   5.636  0.1327  0.5093  1.5575
19466TIP3   OH279812   3.594   3.010   3.734  0.1720 -0.3935  0.6388
19466TIP3    H179813   3.567   3.058   3.812  0.1607 -0.8860  0.9417
19466TIP3    H279814   3.522   3.023   3.672 -0.1812 -0.6466  0.9895
19467TIP3   OH279815   4.483   2.738   3.487 -0.3005 -0.6391 -0.5224
19467TIP3    H179816   4.398   2.762   3.449 -0.9610 -0.4237  1.0328
19467TIP3    H279817   4.545   2.801   3.450 -0.6939 -1.1027 -2.0657
19468TIP3   OH279818   6.750   6.145   4.761 -0.0163 -0.1942  0.3551
19468TIP3    H179819   6.788   6.123   4.846  1.8692 -1.6875 -0.7755
19468TIP3    H279820   6.676   6.086   4.751 -0.8045  0.6074  1.3099
19469TIP3   OH279821   4.837   6.485   1.153 -0.1042  0.0853  0.0458
19469TIP3    H179822   4.800   6.397   1.147 -1.6593  0.7592 -0.8399
19469TIP3    H279823   4.871   6.491   1.243  0.6635 -1.6281 -0.0901
19470TIP3   OH279824   2.011   6.696  16.212  0.2575  0.4897  0.4948
19470TIP3    H179825   2.025   6.606  16.242 -1.8588 -0.3618 -0.8409
19470TIP3    H279826   2.023   6.749  16.291  1.6038 -0.9143  1.3067
19471TIP3   OH279827   1.579   1.891   5.716 -0.1812  0.2558  0.1521
19471TIP3    H179828   1.592   1.799   5.738  0.1286  0.1644 -0.4041
19471TIP3    H279829   1.584   1.894   5.621  0.2716  0.9209  0.1968
19472TIP3   OH279830   3.484   5.692  16.464 -0.4121  0.2096  0.0854
19472TIP3    H179831   3.428   5.721  16.536 -0.4969 -0.4908  0.3066
19472TIP3    H279832   3.471   5.598  16.460  1.0522 -0.0239  0.4054
19473TIP3   OH279833   4.874   2.981   3.978  0.1559  0.1469  0.0314
19473TIP3    H179834   4.936   3.022   4.038  0.7356 -0.5290 -0.0997
19473TIP3    H279835   4.927   2.952   3.904 -0.2534 -0.7764  0.0874
19474TIP3   OH279836   2.654   4.840   6.284 -0.2255  0.0774 -0.3235
19474TIP3    H179837   2.716   4.832   6.212 -0.2250  1.0000 -0.4305
19474TIP3    H279838   2.568   4.848   6.242 -0.1638  1.2317 -0.2506
19475TIP3   OH279839   2.590   4.609   5.611 -0.1530  0.1813  0.3964
19475TIP3    H179840   2.610   4.686   5.664  1.4146  0.4318 -0.5159
19475TIP3    H279841   2.593   4.536   5.672  0.7367  0.5712  0.8307
19476TIP3   OH279842   3.865   4.919  12.755  0.0906 -1.0282 -0.3908
19476TIP3    H179843   3.782   4.875  12.778  0.3384 -1.7956 -0.9210
19476TIP3    H279844   3.861   4.928  12.660 -1.1687  2.6152 -0.1480
19477TIP3   OH279845   5.083   2.360   0.440 -0.1836  0.0646  0.0858
19477TIP3    H179846   5.025   2.362   0.364 -0.0766 -0.9207 -0.0332
19477TIP3    H279847   5.029   2.391   0.513 -0.4535  0.4590 -0.2759
19478TIP3   OH279848   1.677   3.847   0.989 -0.1541 -0.0788 -0.5575
19478TIP3    H179849   1.759   3.839   1.038  0.5268  3.1056 -1.0228
19478TIP3    H279850   1.618   3.786   1.034  1.8515 -0.9556  1.0770
19479TIP3   OH279851   2.888   6.510   2.185  0.2181  0.5011  0.0659
19479TIP3    H179852   2.856   6.599   2.175 -0.0442  0.1950 -2.3383
19479TIP3    H279853   2.811   6.460   2.214 -0.3377  0.5877 -1.2169
19480TIP3   OH279854   1.113   6.879   1.065  0.2137  0.3347 -0.2330
19480TIP3    H179855   1.174   6.885   1.139 -0.3805  0.3600  0.2563
19480TIP3    H279856   1.029   6.907   1.101  0.0016  0.7244 -1.0188
19481TIP3   OH279857   2.202   1.216  13.549  0.1393 -0.0431 -0.6116
19481TIP3    H179858   2.231   1.273  13.621  1.4511 -1.7518  0.2895
19481TIP3    H279859   2.122   1.176  13.581 -0.3914  0.7274 -0.9543
19482TIP3   OH279860   3.970   3.461  14.572 -0.5645 -0.2466 -0.0705
19482TIP3    H179861   3.974   3.365  14.578 -0.0373 -0.2340 -0.1571
19482TIP3    H279862   4.060   3.487  14.552 -0.3561  0.3846  1.5096
19483TIP3   OH279863   5.531   3.721  13.048 -0.0750  0.0235  0.1700
19483TIP3    H179864   5.480   3.715  12.967  0.5799  1.3631 -0.3868
19483TIP3    H279865   5.479   3.776  13.105  0.3134  0.6406 -0.0603
19484TIP3   OH279866   6.258   3.278  14.655  0.3055  0.1823  0.1039
19484TIP3    H179867   6.291   3.266  14.566  1.9178  1.3551  0.5028
19484TIP3    H279868   6.163   3.271  14.646  0.1769  2.7942 -2.1988
19485TIP3   OH279869   5.915   0.283  11.787  0.0654 -0.3501 -0.3258
19485TIP3    H179870   5.855   0.271  11.713 -0.6644 -1.0036  0.3616
19485TIP3    H279871   5.937   0.376  11.785 -2.2055  0.2625  0.3177
19486TIP3   OH279872   6.573   5.005  16.258  0.1788  0.7859 -0.4456
19486TIP3    H179873   6.669   5.016  16.259  0.2248  0.3848 -0.5043
19486TIP3    H279874   6.545   5.055  16.181  0.3358  0.9286 -0.4147
19487TIP3   OH279875   6.623   6.126  13.346 -0.4951 -0.0598 -0.1416
19487TIP3    H179876   6.683   6.052  13.336  0.0555  0.2446  0.8362
19487TIP3    H279877   6.627   6.172  13.262  1.1879  0.3707  0.1621
19488TIP3   OH279878   0.328   3.141  13.684  0.3319 -0.0334 -0.1964
19488TIP3    H179879   0.410   3.131  13.635  0.1059  0.2633 -0.6343
19488TIP3    H279880   0.324   3.234  13.705  0.5173 -0.1848  0.5500
19489TIP3   OH279881   2.282   1.736   3.362 -0.0831  0.6534  0.3404
19489TIP3    H179882   2.237   1.753   3.445 -1.8474  2.2721 -0.8528
19489TIP3    H279883   2.225   1.676   3.315  1.1220 -0.6101  0.4227
19490TIP3   OH279884   6.619   3.521  12.060  0.2802 -0.3991 -0.2590
19490TIP3    H179885   6.637   3.427  12.050  2.4005  0.1366 -2.2021
19490TIP3    H279886   6.533   3.533  12.019  0.0503 -1.4462 -0.1238
19491TIP3   OH279887   2.477   6.732   3.291  0.0969  0.1471  0.4129
19491TIP3    H179888   2.533   6.802   3.259 -0.6041  0.0411 -1.1307
19491TIP3    H279889   2.498   6.657   3.236 -1.0642 -0.0777  0.2402
19492TIP3   OH279890   3.288   4.439  16.103 -0.1862 -0.1837  0.2770
19492TIP3    H179891   3.292   4.349  16.135 -0.3311 -0.2050  0.2341
19492TIP3    H279892   3.292   4.431  16.008 -3.3786 -0.3695  0.0594
19493TIP3   OH279893   6.257   5.224   3.589  0.2213  0.3636 -0.5680
19493TIP3    H179894   6.307   5.306   3.581 -0.0168  0.8825  2.2631
19493TIP3    H279895   6.166   5.250   3.570  0.2942  0.5215 -0.7083
19494TIP3   OH279896   5.322   2.931  15.413  0.0950  0.3570  0.0033
19494TIP3    H179897   5.277   2.890  15.487  0.3170  0.4116  0.1701
19494TIP3    H279898   5.288   3.021  15.411  0.6168  0.5696  0.4842
19495TIP3   OH279899   0.017   2.252  16.424 -0.5753  0.4593 -0.1811
19495TIP3    H179900   0.050   2.300  16.500  0.3447  2.9716 -2.0337
19495TIP3    H279901   0.096   2.223  16.378 -1.0808 -3.2497  0.9592
19496TIP3   OH279902   2.441   3.921  14.625 -0.5053  0.0924  0.2570
19496TIP3    H179903   2.450   3.930  14.530 -0.8127 -0.7111  0.1453
19496TIP3    H279904   2.469   3.832  14.644 -0.2865  0.3007  0.9488
19497TIP3   OH279905   6.698   6.104   5.457 -0.2949 -0.3392 -0.0332
19497TIP3    H179906   6.645   6.048   5.514 -1.3669  1.0317  0.3678
19497TIP3    H279907   6.640   6.126   5.385  0.0846  0.3099 -0.1440
19498TIP3   OH279908   1.158   0.855   3.565 -0.2134 -0.6791  0.3638
19498TIP3    H179909   1.118   0.900   3.639 -1.2003  0.7775 -0.9966
19498TIP3    H279910   1.083   0.823   3.513  0.4474 -1.2228 -0.2755
19499TIP3   OH279911   3.351   5.342   4.939 -0.0288 -0.0582  0.3003
19499TIP3    H179912   3.412   5.363   4.868 -0.4797 -0.8860 -0.3456
19499TIP3    H279913   3.364   5.413   5.003  1.8249 -0.3606  0.3253
19500TIP3   OH279914   0.644   0.681  14.452 -0.2336  0.5268  0.4020
19500TIP3    H179915   0.564   0.629  14.451 -0.3857  0.7390 -0.9107
19500TIP3    H279916   0.711   0.622  14.417  0.1727  0.3930  1.3713
19501TIP3   OH279917   0.677   6.026  11.602 -0.1965 -0.3247  0.0563
19501TIP3    H179918   0.702   5.941  11.639  0.3337 -0.2291 -0.0676
19501TIP3    H279919   0.582   6.025  11.602 -0.3579 -2.4520 -3.3018
19502TIP3   OH279920   2.895   5.841   9.929 -0.1963  0.1114 -0.4347
19502TIP3    H179921   2.983   5.820   9.897  0.2220 -0.1663  0.8225
19502TIP3    H279922   2.900   5.933   9.953 -0.0753 -0.0380  0.1351
19503TIP3   OH279923   1.620   6.828  10.874 -0.6471 -0.0143  0.1219
19503TIP3    H179924   1.557   6.761  10.898 -2.0534  0.6272 -1.5729
19503TIP3    H279925   1.619   6.829  10.778  1.1536  0.7635  0.0591
19504TIP3   OH279926   4.656   4.759   2.975  0.6937  0.1672  0.2689
19504TIP3    H179927   4.615   4.676   2.952 -2.2783  1.5582  0.0146
19504TIP3    H279928   4.616   4.822   2.914  3.2452  1.7429  0.0774
19505TIP3   OH279929   2.624   2.402  11.575  0.1571  0.5085 -0.1987
19505TIP3    H179930   2.641   2.339  11.644 -0.1234  0.0928 -0.5027
19505TIP3    H279931   2.529   2.404  11.567  0.1724  0.8099 -0.3418
19506TIP3   OH279932   2.629   1.153  12.547 -0.6823  0.0912  0.8154
19506TIP3    H179933   2.623   1.132  12.640 -0.6212  0.4118  0.8940
19506TIP3    H279934   2.653   1.070  12.505 -3.0244 -0.6313  0.7830
19507TIP3   OH279935   2.271   4.044  13.500 -0.4267  0.0195  0.6969
19507TIP3    H179936   2.290   4.120  13.445  0.9215 -0.5285  0.3807
19507TIP3    H279937   2.176   4.048  13.515 -0.5064  1.2410 -0.0752
19508TIP3   OH279938   6.356   4.019   1.413 -0.1182  0.3097 -0.3015
19508TIP3    H179939   6.416   3.954   1.375  0.3051  0.9259 -0.7214
19508TIP3    H279940   6.400   4.103   1.398 -1.0340  0.7687 -0.5060
19509TIP3   OH279941   3.383   6.545  15.754  0.0805  0.5143  0.2077
19509TIP3    H179942   3.434   6.533  15.674  1.5760  0.5956  1.1200
19509TIP3    H279943   3.414   6.628  15.790  0.1562 -0.0113  1.3899
19510TIP3   OH279944   5.176   1.432  16.317  0.1068 -0.0734  0.0974
19510TIP3    H179945   5.122   1.358  16.344 -0.4490  0.5234  0.6723
19510TIP3    H279946   5.216   1.405  16.235 -0.2933 -0.9046  0.1691
19511TIP3   OH279947   4.803   2.526  16.016 -0.5868  0.2198 -0.1589
19511TIP3    H179948   4.758   2.540  15.933 -0.0240 -0.6480 -0.6130
19511TIP3    H279949   4.742   2.474  16.068 -0.5936  0.0443 -0.3408
19512TIP3   OH279950   2.991   5.818   0.794 -0.5233 -0.3045  0.4776
19512TIP3    H179951   2.935   5.882   0.751  0.8206  1.0612  0.6698
19512TIP3    H279952   2.951   5.733   0.775 -1.2171  0.4252 -1.5248
19513TIP3   OH279953   1.280   6.060   3.454  0.5383  0.2068 -0.3428
19513TIP3    H179954   1.196   6.027   3.487  0.3022  1.1304  0.0067
19513TIP3    H279955   1.345   6.011   3.504  0.2454 -1.0650 -1.1448
19514TIP3   OH279956   3.386   6.471  10.823 -0.2525  0.0006 -0.4693
19514TIP3    H179957   3.372   6.390  10.872  0.2548  0.2352  0.0922
19514TIP3    H279958   3.475   6.463  10.788 -0.5826 -0.1300 -1.3009
19515TIP3   OH279959   1.046   4.065   5.565 -0.0568  0.6349  0.2781
19515TIP3    H179960   0.984   4.057   5.638  0.7580 -0.4396  0.8790
19515TIP3    H279961   1.132   4.057   5.606  0.4863  1.6494 -0.6069
19516TIP3   OH279962   6.482   0.187   2.895  0.4501 -0.4584 -0.1870
19516TIP3    H179963   6.396   0.182   2.938  0.2968  1.6873 -0.1385
19516TIP3    H279964   6.525   0.105   2.918 -1.6641 -1.7386 -0.4189
19517TIP3   OH279965   0.581   2.943   2.175  0.1545  0.5845 -0.4863
19517TIP3    H179966   0.643   2.909   2.239 -0.6034  0.6880  0.3257
19517TIP3    H279967   0.524   2.868   2.155  1.1397  0.1965 -2.0079
19518TIP3   OH279968   4.192   0.670   0.541 -0.0352  0.3733 -0.3997
19518TIP3    H179969   4.140   0.603   0.497  0.6114 -0.9172  0.7496
19518TIP3    H279970   4.127   0.725   0.585 -0.5129 -0.2503 -0.3097
19519TIP3   OH279971   0.622   4.779   3.797  0.4873 -0.3059 -0.6296
19519TIP3    H179972   0.551   4.795   3.735 -1.7956 -1.3477  1.5411
19519TIP3    H279973   0.610   4.845   3.865  1.4860 -0.6132 -0.1304
19520TIP3   OH279974   3.356   0.976  15.169 -0.6068 -0.3850  0.1392
19520TIP3    H179975   3.321   0.981  15.081 -0.9936  0.4945  0.3339
19520TIP3    H279976   3.451   0.986  15.158 -0.6361 -0.4772 -0.1901
19521TIP3   OH279977   5.542   5.940  12.772  0.4672 -0.0235 -0.8637
19521TIP3    H179978   5.632   5.908  12.778  0.2912 -0.2936  1.7097
19521TIP3    H279979   5.503   5.888  12.703  1.7351 -1.4377 -0.5747
19522TIP3   OH279980   4.472   1.837   1.396  0.3359 -0.7097  0.4482
19522TIP3    H179981   4.509   1.777   1.332  2.7531  0.3888  0.6990
19522TIP3    H279982   4.425   1.903   1.344 -1.3213 -2.0725  0.1179
19523TIP3   OH279983   0.434   4.819   0.455 -0.3978  0.1627 -0.5141
19523TIP3    H179984   0.359   4.782   0.503 -0.6531 -0.0323 -1.0541
19523TIP3    H279985   0.397   4.891   0.405 -0.2287  0.0584 -0.7914
19524TIP3   OH279986   1.985   1.243   5.574  0.3019 -0.1555 -0.2257
19524TIP3    H179987   1.972   1.152   5.547  2.6213 -0.3839 -0.8248
19524TIP3    H279988   1.949   1.295   5.502  0.5314 -0.6530 -0.7112
19525TIP3   OH279989   3.324   2.243  15.786  0.9557 -0.0795  0.0098
19525TIP3    H179990   3.341   2.316  15.846 -0.8099 -0.1247  0.6170
19525TIP3    H279991   3.411   2.207  15.768  1.7900  1.5871  0.4170
19526TIP3   OH279992   1.150   2.800  15.978 -0.2746 -0.7557 -0.0432
19526TIP3    H179993   1.215   2.731  15.986  0.1781 -0.4357 -0.7990
19526TIP3    H279994   1.085   2.781  16.045 -0.2305 -1.9857 -0.3320
19527TIP3   OH279995   1.026   3.288   0.540 -0.2007  0.4880  0.0903
19527TIP3    H179996   0.988   3.226   0.478 -0.6052  0.6562  0.1641
19527TIP3    H279997   0.988   3.373   0.515 -0.3198  0.5657  0.5312
19528TIP3   OH279998   1.959   3.371   2.563  0.1277  0.2689 -0.6248
19528TIP3    H179999   2.047   3.407   2.559  0.0570  0.6269  0.6339
19528TIP3    H280000   1.964   3.303   2.630 -0.9403  1.5072  0.7849
19529TIP3   OH280001   0.174   6.690  15.560 -0.0836  0.4512 -0.4457
19529TIP3    H180002   0.123   6.700  15.641 -0.6709 -0.3426 -0.7069
19529TIP3    H280003   0.222   6.772  15.552  0.6966  0.1982  1.1983
19530TIP3   OH280004   1.443   2.553  15.572  0.4141  0.7000 -0.0747
19530TIP3    H180005   1.359   2.556  15.525 -0.2667 -1.7667  0.8378
19530TIP3    H280006   1.501   2.609  15.520 -1.7492  2.4738 -0.7544
19531TIP3   OH280007   1.972   2.937   3.028  0.5793  0.0987  0.2493
19531TIP3    H180008   1.991   2.854   3.072  1.6293  0.8090  1.2097
19531TIP3    H280009   1.966   2.915   2.936 -0.1234 -1.1912  0.5734
19532TIP3   OH280010   3.845   6.374   3.615 -0.4585  0.2690 -0.6477
19532TIP3    H180011   3.818   6.449   3.668 -1.7930 -0.5200 -0.1482
19532TIP3    H280012   3.869   6.307   3.679  2.5541  0.8093 -1.0644
19533TIP3   OH280013   5.680   3.696  12.784  0.4743  0.3782  0.0804
19533TIP3    H180014   5.600   3.667  12.827  0.4976 -0.4038 -0.3962
19533TIP3    H280015   5.690   3.787  12.811 -1.8543  1.2608 -1.7287
19534TIP3   OH280016   3.314   5.756  11.563 -0.6797 -0.2072  0.1763
19534TIP3    H180017   3.353   5.830  11.609  1.3717 -1.8938  1.2892
19534TIP3    H280018   3.351   5.760  11.475 -1.2508  0.5662 -0.0335
19535TIP3   OH280019   4.757   4.208   0.796 -0.2524 -0.2029 -0.0878
19535TIP3    H180020   4.779   4.294   0.761  2.0907  0.1585  2.0209
19535TIP3    H280021   4.840   4.160   0.796 -1.3281 -2.1780 -0.3520
19536TIP3   OH280022   0.942   2.447  14.164 -0.1222 -0.0033  0.4016
19536TIP3    H180023   0.968   2.398  14.242  0.9365 -0.2198 -0.0679
19536TIP3    H280024   0.880   2.513  14.196 -0.8204 -1.0011  1.1976
19537TIP3   OH280025   2.268   6.853  12.395 -0.2705  0.0031  0.0751
19537TIP3    H180026   2.267   6.875  12.302 -0.2984  0.6265  0.2162
19537TIP3    H280027   2.310   6.768  12.399 -0.9098 -0.3571 -0.5743
19538TIP3   OH280028   1.220   6.135   5.182  0.4535 -0.2686  0.0168
19538TIP3    H180029   1.269   6.055   5.161 -1.1029 -1.4233  0.5768
19538TIP3    H280030   1.179   6.117   5.267 -0.0126  1.1001  0.1145
19539TIP3   OH280031   6.188   2.880  16.377 -0.6744 -0.2774 -0.1206
19539TIP3    H180032   6.146   2.824  16.312 -0.3113 -2.1783  1.1654
19539TIP3    H280033   6.154   2.968  16.360 -1.1199 -0.8199 -2.3794
19540TIP3   OH280034   5.187   4.972   4.560 -0.3724  0.7660  0.6863
19540TIP3    H180035   5.232   4.909   4.617  0.4314  0.9977  0.3236
19540TIP3    H280036   5.179   5.051   4.614 -0.6327  0.6221  0.8604
19541TIP3   OH280037   3.257   6.243   2.137 -0.2043 -0.4918 -0.3371
19541TIP3    H180038   3.229   6.176   2.199  1.6812 -2.1319 -1.1603
19541TIP3    H280039   3.345   6.217   2.110 -0.3876  0.9173 -2.6401
19542TIP3   OH280040   6.033   2.883   3.903  0.1064 -0.6252  0.6800
19542TIP3    H180041   5.948   2.914   3.934  0.0242  0.9427 -0.9168
19542TIP3    H280042   6.094   2.954   3.926  0.5114 -0.6252 -0.3461
19543TIP3   OH280043   1.949   2.349   2.519 -0.0056  0.4448 -0.4848
19543TIP3    H180044   2.008   2.384   2.452  1.1575 -2.2098 -0.9469
19543TIP3    H280045   1.862   2.380   2.493  0.4444 -0.2209 -3.0794
19544TIP3   OH280046   2.678   0.946  12.357 -0.0995  0.4531 -0.0174
19544TIP3    H180047   2.707   0.975  12.270  0.2515 -0.6703 -0.2954
19544TIP3    H280048   2.595   0.902  12.341 -1.6578  2.9864  0.6757
19545TIP3   OH280049   3.626   2.005  11.678  0.1709 -0.2717  0.1700
19545TIP3    H180050   3.654   2.092  11.651  1.6093 -0.8608 -0.3476
19545TIP3    H280051   3.638   2.004  11.773  2.1514 -0.5477 -0.0458
19546TIP3   OH280052   2.578   2.128  13.097 -0.1425 -0.2822  0.1374
19546TIP3    H180053   2.491   2.109  13.132 -0.6048  1.2083 -0.1425
19546TIP3    H280054   2.630   2.150  13.174 -0.0024 -1.1059  0.2965
19547TIP3   OH280055   6.355   1.851  11.694 -0.1397  0.4976  0.2905
19547TIP3    H180056   6.267   1.823  11.719  0.9214 -2.4165  1.2407
19547TIP3    H280057   6.377   1.920  11.756 -1.8500  1.5490 -0.2082
19548TIP3   OH280058   5.910   1.954  14.743  0.4912  0.0174  0.0320
19548TIP3    H180059   5.973   2.022  14.717 -1.4277  2.0559  0.3589
19548TIP3    H280060   5.825   2.000  14.744 -0.4419 -1.4557  3.7409
19549TIP3   OH280061   0.654   4.004   4.981  0.3773  0.5537 -0.4404
19549TIP3    H180062   0.659   4.087   4.933 -0.0710  0.8364  0.0024
19549TIP3    H280063   0.607   3.945   4.922  0.0802  0.8164 -0.4674
19550TIP3   OH280064   1.116   3.909   4.086  0.4230 -0.0455 -0.3212
19550TIP3    H180065   1.148   3.975   4.147  0.7242  0.5046 -1.0535
19550TIP3    H280066   1.085   3.837   4.141  2.2097 -0.2775  0.4471
19551TIP3   OH280067   6.354   3.256  10.606 -0.2132 -0.0947 -0.4086
19551TIP3    H180068   6.262   3.228  10.600  0.4785 -2.4262 -1.4721
19551TIP3    H280069   6.383   3.263  10.515  0.1912  2.6029 -0.1484
19552TIP3   OH280070   4.338   6.684   1.642 -0.1364 -0.2918 -0.3352
19552TIP3    H180071   4.262   6.678   1.699 -0.4049 -3.3707 -0.8031
19552TIP3    H280072   4.392   6.609   1.666  2.5703  1.5106 -0.3668
19553TIP3   OH280073   5.422   1.375   1.857  0.0494 -1.1212 -0.2253
19553TIP3    H180074   5.331   1.346   1.866 -0.0555 -1.3764 -1.8971
19553TIP3    H280075   5.436   1.433   1.932 -1.7276 -0.4591 -0.3676
19554TIP3   OH280076   6.130   4.510  10.109 -0.3837  0.3577  0.2909
19554TIP3    H180077   6.089   4.519  10.023 -2.2367 -0.8850  0.9942
19554TIP3    H280078   6.210   4.459  10.092  1.4419  3.3945 -1.2006
19555TIP3   OH280079   4.192   4.397  14.732  0.2227  0.1284 -0.2367
19555TIP3    H180080   4.286   4.380  14.734  0.2406 -0.4494 -2.5543
19555TIP3    H280081   4.158   4.331  14.671 -1.4337  1.3608 -0.7022
19556TIP3   OH280082   6.057   1.333   0.107  0.0962  0.3362  0.1336
19556TIP3    H180083   6.084   1.254   0.154 -3.0843 -0.8913  0.1353
19556TIP3    H280084   6.008   1.384   0.171 -2.1241 -0.1597 -1.0586
19557TIP3   OH280085   1.418   4.616   1.719  0.1445  0.6725 -0.1490
19557TIP3    H180086   1.439   4.653   1.805 -1.4895  1.9797 -0.2613
19557TIP3    H280087   1.484   4.652   1.661  2.1818 -1.3931  0.7422
19558TIP3   OH280088   5.974   5.992   4.586  1.3197  0.4176 -0.2718
19558TIP3    H180089   6.032   5.950   4.650  2.2215  2.5786  0.4214
19558TIP3    H280090   6.009   6.081   4.577 -0.7570  1.1891 -1.3009
19559TIP3   OH280091   4.880   0.096  12.468  0.0064 -0.5414  0.3009
19559TIP3    H180092   4.905   0.037  12.398  0.1975  0.7478 -0.7637
19559TIP3    H280093   4.787   0.079  12.483 -0.0491 -0.7816 -0.3149
19560TIP3   OH280094   2.178   5.768  10.920 -0.0127  0.2197  0.3104
19560TIP3    H180095   2.251   5.706  10.931 -0.2162 -0.3220 -1.2109
19560TIP3    H280096   2.170   5.779  10.826 -2.6469 -0.6532  0.3549
19561TIP3   OH280097   1.593   1.959  10.665 -0.2486 -0.4607  0.2261
19561TIP3    H180098   1.555   1.921  10.586 -0.4286  0.7370 -0.2800
19561TIP3    H280099   1.556   1.907  10.737  0.1710 -1.7614 -0.4824
19562TIP3   OH280100   1.538   4.727  11.472  0.2071  0.4962  0.4267
19562TIP3    H180101   1.533   4.707  11.566 -2.5308 -1.8889 -0.1002
19562TIP3    H280102   1.457   4.775  11.454  0.4193  0.4061 -0.8267
19563TIP3   OH280103   6.727   0.697  15.833 -0.6255  0.2244  0.1636
19563TIP3    H180104   6.672   0.766  15.794  1.0676  0.5201 -1.8821
19563TIP3    H280105   6.792   0.745  15.885 -0.2343  0.1111 -0.2142
19564TIP3   OH280106   1.012   3.980  15.077 -0.1942  0.0841  0.1732
19564TIP3    H180107   0.935   3.926  15.095 -0.5486  0.2277 -0.8198
19564TIP3    H280108   0.976   4.063  15.045  0.3554  0.6444  0.9806
19565TIP3   OH280109   2.459   0.602   1.442 -0.3440  0.7097  0.6583
19565TIP3    H180110   2.463   0.698   1.449  0.9313  0.7633 -0.5669
19565TIP3    H280111   2.375   0.585   1.400 -1.0057  1.2098  1.7210
19566TIP3   OH280112   3.696   2.018   2.256 -0.1831  0.3180 -0.6351
19566TIP3    H180113   3.749   2.088   2.294 -1.9937  2.6941 -2.2152
19566TIP3    H280114   3.620   2.012   2.314  0.6182 -1.4444  0.3080
19567TIP3   OH280115   6.115   1.921  15.925 -0.3159  0.0800  0.2213
19567TIP3    H180116   6.160   1.960  15.850 -0.9678  1.8424  0.6912
19567TIP3    H280117   6.185   1.897  15.985  0.3572 -2.8443 -1.5098
19568TIP3   OH280118   6.200   3.575   2.974  0.2465 -0.6631 -0.1841
19568TIP3    H180119   6.109   3.594   2.997  0.9001 -1.0506  3.3090
19568TIP3    H280120   6.198   3.555   2.881 -3.1202 -0.0722 -0.3559
19569TIP3   OH280121   4.145   4.384  11.181  0.0718 -0.4208 -0.3630
19569TIP3    H180122   4.150   4.466  11.133 -1.1845  0.1125  0.3725
19569TIP3    H280123   4.060   4.387  11.226  1.2207 -0.8222  1.9819
19570TIP3   OH280124   0.447   3.763  14.332  0.3086  1.1863  0.4514
19570TIP3    H180125   0.441   3.697  14.402 -0.7837  0.7881  0.0014
19570TIP3    H280126   0.539   3.788  14.331  0.4053  0.9994  1.8526
19571TIP3   OH280127   6.189   4.886   4.304  0.7061 -0.0343  0.4095
19571TIP3    H180128   6.237   4.885   4.387  1.7421 -1.9778 -0.1641
19571TIP3    H280129   6.256   4.901   4.237 -0.2818  2.8838 -0.0841
19572TIP3   OH280130   0.164   5.020   3.298 -0.1734  0.1318  0.1542
19572TIP3    H180131   0.147   5.062   3.214  0.2668 -1.2228 -0.6544
19572TIP3    H280132   0.097   4.952   3.305  0.1473 -0.1436  0.6191
19573TIP3   OH280133   3.122   2.258   4.952  0.0889  0.0989 -0.5158
19573TIP3    H180134   3.201   2.284   5.000  0.1174 -0.1973 -0.3993
19573TIP3    H280135   3.146   2.265   4.860  0.5851 -0.9760 -0.4823
19574TIP3   OH280136   0.827   4.994  14.663 -0.0028  0.1419  0.5377
19574TIP3    H180137   0.773   5.053  14.611  1.0738  0.3439 -0.3736
19574TIP3    H280138   0.914   5.036  14.665  0.4360 -0.7623  0.9840
19575TIP3   OH280139   2.315   0.869   1.469 -0.3405  0.5527  0.6713
19575TIP3    H180140   2.372   0.887   1.395  0.2064 -0.5110  0.8104
19575TIP3    H280141   2.346   0.928   1.538 -1.1866  1.9191 -0.0783
19576TIP3   OH280142   5.229   4.184  15.034  0.0581  1.1720  0.0060
19576TIP3    H180143   5.215   4.203  15.127 -1.4349 -0.9511  0.2876
19576TIP3    H280144   5.156   4.127  15.010  0.8979  0.9497 -2.2625
19577TIP3   OH280145   3.601   1.886  15.517 -0.2824 -0.2598  0.1790
19577TIP3    H180146   3.529   1.829  15.544  1.1531 -2.6637 -0.7906
19577TIP3    H280147   3.582   1.908  15.426 -0.0111 -0.4928  0.0690
19578TIP3   OH280148   5.120   0.211  15.696  0.6030  0.4101  0.1783
19578TIP3    H180149   5.132   0.221  15.791  1.9344  1.1832 -0.0496
19578TIP3    H280150   5.108   0.300  15.664 -0.2924  0.1116 -0.3347
19579TIP3   OH280151   4.685   4.294   0.177  0.5612 -0.1329 -0.2722
19579TIP3    H180152   4.665   4.233   0.106 -0.1680  0.2223 -0.3861
19579TIP3    H280153   4.781   4.295   0.181  0.6142 -0.2213 -1.1956
19580TIP3   OH280154   4.103   4.620  10.610 -0.0135 -0.2372  0.2280
19580TIP3    H180155   4.124   4.705  10.648  1.5535 -0.3132 -0.4235
19580TIP3    H280156   4.011   4.606  10.633 -0.6253  2.1042 -0.5886
19581TIP3   OH280157   3.222   2.663   3.489 -0.3498  0.1443 -0.0848
19581TIP3    H180158   3.198   2.756   3.481 -1.0577 -0.0808 -0.7527
19581TIP3    H280159   3.280   2.660   3.565 -0.8646  1.0389  0.3746
19582TIP3   OH280160   6.159   6.128   1.763  0.7207 -0.1173  0.0496
19582TIP3    H180161   6.197   6.069   1.698  0.1296  1.7511 -2.1297
19582TIP3    H280162   6.234   6.173   1.802  1.0111  0.7135 -1.3869
19583TIP3   OH280163   6.373   1.307   6.002  0.1928  0.4015 -0.5669
19583TIP3    H180164   6.376   1.400   6.023  2.6943  0.0273  1.3106
19583TIP3    H280165   6.449   1.293   5.946  0.7265 -0.6973  0.3842
19584TIP3   OH280166   5.636   2.966   4.591  0.2188  0.3152 -0.2058
19584TIP3    H180167   5.646   2.988   4.683  0.4955  0.7225 -0.3289
19584TIP3    H280168   5.725   2.951   4.560  0.0845 -0.3172 -0.2874
19585TIP3   OH280169   5.948   2.686  11.355  0.2979  0.1961  0.1936
19585TIP3    H180170   5.993   2.614  11.399  0.3910  0.3533  0.3594
19585TIP3    H280171   5.935   2.752  11.424 -0.8332 -0.1402  0.3303
19586TIP3   OH280172   5.460   3.828  15.522 -0.0907 -0.1429  0.0617
19586TIP3    H180173   5.443   3.743  15.480 -1.0788  0.6387 -1.1953
19586TIP3    H280174   5.373   3.859  15.546  0.2174  0.7706 -0.0006
19587TIP3   OH280175   2.971   0.799   1.192  0.5731 -0.2115 -0.0355
19587TIP3    H180176   2.963   0.747   1.112  0.7828  1.0389 -0.9135
19587TIP3    H280177   3.034   0.752   1.245 -0.2943 -1.5751 -0.1759
19588TIP3   OH280178   1.562   2.053  16.038 -0.4916  0.2505 -0.0751
19588TIP3    H180179   1.569   2.092  15.951  1.7550  1.1817  0.4455
19588TIP3    H280180   1.548   2.127  16.097  1.8382  0.1485  0.7122
19589TIP3   OH280181   1.128   4.905   5.684  0.0466 -0.2805 -0.6593
19589TIP3    H180182   1.186   4.970   5.723 -0.3609  0.9304 -2.0168
19589TIP3    H280183   1.166   4.888   5.597 -0.7707 -0.6201 -0.9559
19590TIP3   OH280184   3.620   2.078  11.981 -0.3655 -0.8149  0.5656
19590TIP3    H180185   3.580   2.150  11.933 -0.3201 -1.4335 -0.4357
19590TIP3    H280186   3.675   2.120  12.047  0.0754  0.0642 -0.3437
19591TIP3   OH280187   6.170   6.596  12.007 -0.8445  0.1413  0.3731
19591TIP3    H180188   6.087   6.569  12.046 -0.7832 -1.2942 -0.4039
19591TIP3    H280189   6.147   6.621  11.917 -0.7571  1.9353  0.8234
19592TIP3   OH280190   3.042   2.376  15.536  0.2180  0.4405 -0.4563
19592TIP3    H180191   3.076   2.299  15.580 -0.9122  0.2623  0.1396
19592TIP3    H280192   3.018   2.436  15.606  0.1304  0.9155 -0.8834
19593TIP3   OH280193   3.796   4.161   3.752 -0.4084  0.3340  0.5550
19593TIP3    H180194   3.868   4.106   3.783 -0.2782  0.9049  1.2973
19593TIP3    H280195   3.813   4.173   3.659 -1.2950 -2.1596 -0.0073
19594TIP3   OH280196   4.743   4.055   0.543 -0.3169  0.0384  0.1247
19594TIP3    H180197   4.777   4.094   0.624 -1.0088  1.1364 -0.0918
19594TIP3    H280198   4.820   4.045   0.487 -0.1712  1.7037 -0.0416
19595TIP3   OH280199   6.865   4.509   0.287 -0.0737  0.2609 -0.4187
19595TIP3    H180200   6.880   4.568   0.213 -1.3347 -0.2868 -1.1460
19595TIP3    H280201   6.884   4.562   0.364 -2.0603  1.9649 -0.9993
19596TIP3   OH280202   1.997   6.710   1.291 -0.3728  0.1438  0.1863
19596TIP3    H180203   2.006   6.801   1.265 -0.1597  0.9748  2.8933
19596TIP3    H280204   1.944   6.670   1.222 -0.4078  2.2718 -1.0928
19597TIP3   OH280205   6.545   4.895   0.437 -0.0467  0.1157  0.2567
19597TIP3    H180206   6.605   4.858   0.372 -0.3875 -0.4836  0.2711
19597TIP3    H280207   6.460   4.857   0.414 -0.0310 -0.7339  1.5227
19598TIP3   OH280208   1.479   6.486  14.602 -0.2408 -0.2508 -0.5689
19598TIP3    H180209   1.414   6.521  14.663 -0.4730 -0.1577 -0.8666
19598TIP3    H280210   1.435   6.486  14.517 -0.3245 -1.4506 -0.5508
19599TIP3   OH280211   1.592   1.176   5.115  0.4551 -0.4173  0.1710
19599TIP3    H180212   1.579   1.187   5.210 -1.4437 -0.9357  0.0100
19599TIP3    H280213   1.513   1.213   5.076  0.9048 -0.8362 -1.1702
19600TIP3   OH280214   5.136   5.711  15.275 -0.5418  0.2032 -0.4720
19600TIP3    H180215   5.082   5.786  15.250 -0.8697  0.5276  1.0693
19600TIP3    H280216   5.107   5.691  15.364  1.7086  0.2396  0.3181
19601TIP3   OH280217   5.530   4.561  13.533  0.0430  0.0466 -0.9069
19601TIP3    H180218   5.499   4.649  13.553 -2.3334 -1.4446  3.1250
19601TIP3    H280219   5.463   4.524  13.475 -1.8044 -0.5995  1.4820
19602TIP3   OH280220   1.418   3.276   4.982 -0.0131  0.0773 -0.0983
19602TIP3    H180221   1.375   3.360   4.999 -2.2138 -0.9757 -0.0989
19602TIP3    H280222   1.350   3.223   4.941  0.4731 -2.5664  2.2320
19603TIP3   OH280223   3.304   6.521  12.059 -0.0710 -0.8137  0.5421
19603TIP3    H180224   3.272   6.456  11.997 -2.1808 -1.1636  1.9067
19603TIP3    H280225   3.327   6.471  12.138 -0.2037 -0.0858  1.0548
19604TIP3   OH280226   0.051   4.890   9.552 -0.3721  0.6463 -0.1053
19604TIP3    H180227  -0.033   4.936   9.545 -2.0433 -1.9361  1.3967
19604TIP3    H280228   0.030   4.808   9.595  3.0467  0.0495  0.7302
19605TIP3   OH280229   0.370   6.143   3.415  0.1677  1.3200  0.2656
19605TIP3    H180230   0.360   6.061   3.464  1.7164  0.1458 -1.2744
19605TIP3    H280231   0.458   6.173   3.437  0.7747  0.9321 -1.4944
19606TIP3   OH280232   0.405   1.423   2.876 -0.0133 -0.8746 -0.3244
19606TIP3    H180233   0.333   1.429   2.939  1.5037  0.5116  1.3858
19606TIP3    H280234   0.461   1.498   2.896  2.5681 -2.5668 -0.7661
19607TIP3   OH280235   2.473   4.374  15.636 -0.0992 -0.6571 -0.3022
19607TIP3    H180236   2.552   4.424  15.617  0.1623 -0.5354  0.9915
19607TIP3    H280237   2.501   4.283  15.637 -0.0872 -0.6540 -0.3591
19608TIP3   OH280238   5.936   0.891  12.063 -0.3203  0.7659 -0.5119
19608TIP3    H180239   5.863   0.950  12.076  0.7078  2.0967 -0.5798
19608TIP3    H280240   6.007   0.946  12.030  1.2663 -0.1015  1.2006
19609TIP3   OH280241   5.304   4.948  13.435 -0.0951  0.6750 -0.1523
19609TIP3    H180242   5.210   4.934  13.433 -0.1178  0.8746 -0.5921
19609TIP3    H280243   5.314   5.042  13.447  0.0499  0.6158  0.2017
19610TIP3   OH280244   4.879   5.771  12.842  0.2060  0.1027  0.0741
19610TIP3    H180245   4.806   5.828  12.867  0.7906  0.9020  0.0250
19610TIP3    H280246   4.947   5.790  12.908  1.5442  1.7878 -1.6671
19611TIP3   OH280247   2.519   6.354  14.344 -0.6230 -0.0133 -0.1590
19611TIP3    H180248   2.574   6.361  14.421 -0.9487 -1.2645  0.2097
19611TIP3    H280249   2.490   6.443  14.326  1.2637  0.6276 -0.1864
19612TIP3   OH280250   0.257   6.104  13.225  0.2023 -0.3166  0.0448
19612TIP3    H180251   0.186   6.125  13.286  0.3536 -1.6833  0.7286
19612TIP3    H280252   0.336   6.103  13.280  0.7053  0.7496 -0.6268
19613TIP3   OH280253   5.260   0.925  14.347 -0.4327 -0.8114 -0.7369
19613TIP3    H180254   5.263   0.846  14.293  1.2207 -1.2340 -0.0770
19613TIP3    H280255   5.322   0.909  14.418  1.4025  1.7755 -1.5694
19614TIP3   OH280256   4.353   1.948   4.198 -0.5099 -0.7266  0.0320
19614TIP3    H180257   4.282   1.909   4.146 -1.3049  1.4202 -0.5730
19614TIP3    H280258   4.414   1.982   4.133 -0.0308 -0.5980  0.5425
19615TIP3   OH280259   1.576   5.494   1.442  0.5302 -0.2907  0.6757
19615TIP3    H180260   1.487   5.467   1.468  0.7469  0.3112  2.1603
19615TIP3    H280261   1.590   5.451   1.358 -0.2367 -2.4559  1.5703
19616TIP3   OH280262   4.299   6.787  10.685  0.5562 -0.1956  0.0224
19616TIP3    H180263   4.208   6.815  10.684 -0.8291 -4.0232 -1.7115
19616TIP3    H280264   4.300   6.709  10.741  2.5971 -0.7165 -0.6418
19617TIP3   OH280265   5.524   5.039   2.550  0.0254 -0.0125 -0.0805
19617TIP3    H180266   5.612   5.055   2.584  0.9186 -0.3120 -2.1578
19617TIP3    H280267   5.509   5.108   2.487 -0.8753 -0.4814 -0.4020
19618TIP3   OH280268   3.250   2.646  13.377  0.1796  0.2013  0.3983
19618TIP3    H180269   3.334   2.617  13.341 -0.2794  0.0893 -0.6160
19618TIP3    H280270   3.185   2.590  13.333 -0.4353  0.3351  1.1148
19619TIP3   OH280271   2.212   3.399  11.399 -0.8060  0.3211  0.3054
19619TIP3    H180272   2.215   3.305  11.386 -2.9747  0.3918 -1.4163
19619TIP3    H280273   2.227   3.436  11.312  0.5740  1.6267  1.0439
19620TIP3   OH280274   2.277   5.757   5.380  0.4794 -0.4543  0.2430
19620TIP3    H180275   2.234   5.839   5.357 -1.3544 -1.3114  0.4228
19620TIP3    H280276   2.343   5.744   5.312  0.2569  0.7546 -0.2252
19621TIP3   OH280277   0.851   1.286  11.406  0.2687  0.0155 -0.3789
19621TIP3    H180278   0.858   1.381  11.407  1.1653 -0.0407 -0.3124
19621TIP3    H280279   0.759   1.269  11.386  0.3036  0.8937 -1.4323
19622TIP3   OH280280   1.952   6.416  12.135 -0.3246 -0.0358  0.3172
19622TIP3    H180281   2.018   6.347  12.139 -0.4496 -0.2523 -0.9487
19622TIP3    H280282   1.992   6.490  12.180  0.6883 -0.2523 -0.1942
19623TIP3   OH280283   5.008   6.820   4.397  0.4826  0.2520 -0.6727
19623TIP3    H180284   5.058   6.893   4.434 -2.0886  1.1742  1.3081
19623TIP3    H280285   4.976   6.853   4.313 -0.7846  1.5508  0.2758
19624TIP3   OH280286   5.286   0.361  16.430  0.2200 -0.8145  0.4129
19624TIP3    H180287   5.226   0.375  16.504 -0.0173  1.5167 -0.1266
19624TIP3    H280288   5.260   0.277  16.393 -1.7266 -0.5676  1.0986
19625TIP3   OH280289   0.818   5.965  12.538 -0.1841 -0.4357  0.2153
19625TIP3    H180290   0.818   5.891  12.477 -0.1752 -0.7336  0.5754
19625TIP3    H280291   0.725   5.989  12.545 -0.1296 -0.0373 -0.3482
19626TIP3   OH280292   4.503   1.084   1.008  0.1181  0.5318  0.0798
19626TIP3    H180293   4.419   1.076   0.963 -0.1705  1.7827  0.3687
19626TIP3    H280294   4.523   1.177   1.008  0.8823  0.3984  1.1358
19627TIP3   OH280295   2.196   1.832   2.568 -0.0296 -0.5745  0.1869
19627TIP3    H180296   2.239   1.810   2.485 -1.8675 -2.7884 -0.2799
19627TIP3    H280297   2.262   1.882   2.616  2.4609 -2.3200 -1.1540
19628TIP3   OH280298   0.520   2.886  16.435  0.4356 -0.8162 -0.6138
19628TIP3    H180299   0.560   2.842  16.510 -0.8399  1.2816  1.4294
19628TIP3    H280300   0.430   2.851  16.432  0.2373 -0.3121 -0.6362
19629TIP3   OH280301   2.441   3.798  11.692 -0.0918  0.0833 -0.3943
19629TIP3    H180302   2.408   3.881  11.656  0.2919 -0.3154 -1.7413
19629TIP3    H280303   2.400   3.731  11.637  0.1475 -0.5848  0.2315
19630TIP3   OH280304   6.638   6.300   1.223 -0.0987  0.4616 -0.2800
19630TIP3    H180305   6.663   6.304   1.131 -0.1782  2.3747 -0.2765
19630TIP3    H280306   6.720   6.309   1.271 -0.1472  0.4133 -0.1881
19631TIP3   OH280307   5.141   2.755   3.630 -0.2531  0.0043 -0.1433
19631TIP3    H180308   5.097   2.677   3.596  0.5663 -0.1161 -0.9644
19631TIP3    H280309   5.118   2.757   3.723  2.4344 -3.1095  0.7594
19632TIP3   OH280310   5.618   1.972   5.782  0.2508 -0.1652  0.2764
19632TIP3    H180311   5.648   1.892   5.739  0.8036 -0.4298  1.1219
19632TIP3    H280312   5.696   2.008   5.824 -0.2469  0.1355  0.9650
19633TIP3   OH280313   4.852   3.386   3.200  0.1982 -0.1322 -0.1727
19633TIP3    H180314   4.822   3.348   3.117 -1.8615  1.4611 -0.2534
19633TIP3    H280315   4.795   3.346   3.265 -0.3975  1.0093  0.0302
19634TIP3   OH280316   5.713   1.285   5.576 -0.2680 -0.2234  0.0639
19634TIP3    H180317   5.746   1.260   5.662  1.7405 -1.2284 -0.9289
19634TIP3    H280318   5.732   1.210   5.520  0.1281  1.0753 -1.6305
19635TIP3   OH280319   0.211   1.785   2.255 -0.8620 -0.6677 -0.7497
19635TIP3    H180320   0.273   1.818   2.190 -1.8578  1.0318 -0.8861
19635TIP3    H280321   0.250   1.703   2.285  2.1963  0.9661  0.1756
19636TIP3   OH280322   2.454   5.085  15.776  0.1790  0.0303 -0.1680
19636TIP3    H180323   2.520   5.071  15.844  2.4704  2.4082 -1.6926
19636TIP3    H280324   2.483   5.032  15.702 -0.0107  0.5234 -0.6085
19637TIP3   OH280325   4.345   2.586  11.114  0.1607 -0.2920  0.3290
19637TIP3    H180326   4.439   2.584  11.095  0.3875  0.6547  1.2426
19637TIP3    H280327   4.322   2.494  11.126  1.3212 -0.4707  1.5594
19638TIP3   OH280328   1.657   2.801  14.717  0.6351  0.0790 -0.1575
19638TIP3    H180329   1.683   2.891  14.737  0.6409 -0.4494  2.5779
19638TIP3    H280330   1.694   2.784  14.630  1.3183  2.4224 -0.3942
19639TIP3   OH280331   1.639   6.131  15.897  0.4343 -0.3608 -0.2797
19639TIP3    H180332   1.650   6.044  15.935 -1.1242 -0.0547  0.9667
19639TIP3    H280333   1.728   6.160  15.878  1.0732 -1.6513  0.6141
19640TIP3   OH280334   2.325   5.481   5.172 -0.0658  0.2789  0.4028
19640TIP3    H180335   2.340   5.407   5.231 -2.2657  0.0312  0.7221
19640TIP3    H280336   2.366   5.556   5.216  0.0424 -0.2745  1.2673
19641TIP3   OH280337   2.594   4.907  16.242  0.3360  0.3673  0.6348
19641TIP3    H180338   2.619   4.945  16.158  2.0504 -1.6709  0.1418
19641TIP3    H280339   2.670   4.923  16.299  0.5517 -1.0369  0.7944
19642TIP3   OH280340   4.186   0.535  13.830 -0.3402  0.0811 -0.4085
19642TIP3    H180341   4.179   0.629  13.850  0.3422  0.0956 -0.2234
19642TIP3    H280342   4.271   0.526  13.786  1.0547 -0.8959  2.2694
19643TIP3   OH280343   3.595   2.182   1.962  0.0798 -0.8592 -0.5097
19643TIP3    H180344   3.586   2.197   2.057 -0.9900 -0.4829 -0.6527
19643TIP3    H280345   3.570   2.266   1.923  0.8031 -0.9232 -1.1231
19644TIP3   OH280346   3.386   6.048   3.408 -0.1298  0.3139  0.7926
19644TIP3    H180347   3.359   5.991   3.480 -0.5622 -0.8583 -0.2636
19644TIP3    H280348   3.413   5.988   3.339 -1.6304  1.3492 -0.7714
19645TIP3   OH280349   1.709   3.467   2.511 -0.2789 -0.6504 -0.3497
19645TIP3    H180350   1.656   3.427   2.580 -0.9829 -1.2691 -1.2344
19645TIP3    H280351   1.800   3.453   2.539 -0.5363  0.9916  1.5038
19646TIP3   OH280352   1.498   3.678   4.043 -0.1365  0.1737  0.1713
19646TIP3    H180353   1.450   3.667   4.126 -1.5393  2.9299 -0.1552
19646TIP3    H280354   1.454   3.751   4.000  2.9686  1.3327 -1.2742
19647TIP3   OH280355   5.610   1.594  10.886  0.4343 -0.1938  0.4045
19647TIP3    H180356   5.655   1.657  10.830  1.6779 -0.1633  1.3799
19647TIP3    H280357   5.668   1.518  10.888 -0.2005 -0.6859  0.6541
19648TIP3   OH280358   4.334   5.385  15.895 -0.0311 -0.0701 -0.5216
19648TIP3    H180359   4.410   5.391  15.837 -0.5445  1.7315 -1.0704
19648TIP3    H280360   4.368   5.411  15.981  0.2899 -0.7653 -0.4319
19649TIP3   OH280361   0.962   4.673  11.047  0.5828  0.4265  0.4165
19649TIP3    H180362   1.032   4.739  11.051  0.8663  0.1922 -0.4878
19649TIP3    H280363   0.892   4.716  11.000 -0.0155  0.7581  1.5662
19650TIP3   OH280364   4.617   3.771   3.579  0.2501 -0.5236 -0.1573
19650TIP3    H180365   4.657   3.773   3.492 -0.3961  0.0663 -0.4446
19650TIP3    H280366   4.535   3.723   3.566 -1.1993  1.8791 -0.4723
19651TIP3   OH280367   1.088   1.967   3.898 -0.0492 -0.2627 -0.4064
19651TIP3    H180368   1.096   1.874   3.876  0.1973 -0.4162  0.3110
19651TIP3    H280369   1.081   1.969   3.993 -0.8183  0.4098 -0.4703
19652TIP3   OH280370   6.155   4.355   4.224  0.4107  0.1229 -0.9795
19652TIP3    H180371   6.168   4.418   4.152 -0.4412 -0.4099 -1.6088
19652TIP3    H280372   6.063   4.365   4.249  1.1883  1.9534  1.6382
19653TIP3   OH280373   2.777   3.918   5.731  0.2106  0.3415  0.1844
19653TIP3    H180374   2.812   3.834   5.759  0.0858 -0.2206 -1.2651
19653TIP3    H280375   2.853   3.967   5.700  0.2997  0.8227  1.1387
19654TIP3   OH280376   4.171   0.149  12.148  0.5174  0.6017  0.1759
19654TIP3    H180377   4.181   0.213  12.078  0.1237 -1.9602 -2.4555
19654TIP3    H280378   4.214   0.070  12.114 -0.1254 -0.9235  2.6562
19655TIP3   OH280379   3.763   5.128   3.606  0.0605 -0.1350  0.2606
19655TIP3    H180380   3.751   5.141   3.512 -0.0152  1.0133  0.4108
19655TIP3    H280381   3.802   5.210   3.637  2.2013 -1.3096  0.8888
19656TIP3   OH280382   3.687   1.973  16.033  0.8285 -0.0993 -0.4930
19656TIP3    H180383   3.647   1.959  15.948 -0.1783 -0.8928  0.0916
19656TIP3    H280384   3.635   2.043  16.072 -1.8396 -2.8164  1.3091
19657TIP3   OH280385   2.641   3.126  14.115 -0.0964 -0.2963  0.2076
19657TIP3    H180386   2.650   3.057  14.049 -0.3746  0.4207 -0.5977
19657TIP3    H280387   2.569   3.097  14.171  0.8461 -1.4456  0.8988
19658TIP3   OH280388   5.279   6.149  13.109 -0.5241 -0.3358  0.4605
19658TIP3    H180389   5.200   6.100  13.133 -1.0543 -1.1885 -2.6076
19658TIP3    H280390   5.344   6.082  13.087 -0.3852  0.2903 -1.1828
19659TIP3   OH280391   2.787   6.081  15.565  0.6507  0.4131  0.6731
19659TIP3    H180392   2.700   6.114  15.590 -0.2687 -0.7019 -0.8506
19659TIP3    H280393   2.804   6.010  15.627 -0.5957 -0.8568 -0.3586
19660TIP3   OH280394   4.884   1.568  16.434 -0.6107 -0.5886  0.4793
19660TIP3    H180395   4.879   1.655  16.474 -1.2825 -0.5393  0.3007
19660TIP3    H280396   4.947   1.520  16.488 -0.5731 -0.1334  0.8463
19661TIP3   OH280397   6.856   1.578   4.961 -0.3841 -0.1604  0.6720
19661TIP3    H180398   6.904   1.583   5.044  0.4458 -2.5444  0.4142
19661TIP3    H280399   6.924   1.567   4.895 -1.1477 -2.0195  0.1263
19662TIP3   OH280400   0.556   2.264  10.063 -0.5590  0.9267  0.4705
19662TIP3    H180401   0.585   2.346  10.024 -0.5463  0.8904  0.4028
19662TIP3    H280402   0.502   2.223   9.995  0.6785  0.1627 -0.0851
19663TIP3   OH280403   4.335   0.299  10.133 -0.3636 -0.0030 -0.2870
19663TIP3    H180404   4.286   0.321  10.212 -1.1441 -1.2087 -0.4114
19663TIP3    H280405   4.281   0.234  10.089  1.4530 -1.5835 -0.2934
19664TIP3   OH280406   2.576   3.030  13.719  0.4984  0.2965 -0.0442
19664TIP3    H180407   2.569   2.998  13.809  0.3316  2.2769  0.6865
19664TIP3    H280408   2.668   3.016  13.697  1.0258  1.5282  1.1743
19665TIP3   OH280409   2.696   5.431   4.000 -0.1101  0.9986 -0.5191
19665TIP3    H180410   2.689   5.336   4.014 -0.4982  1.1258  0.1780
19665TIP3    H280411   2.760   5.460   4.064 -0.5738  1.3271 -0.2061
19666TIP3   OH280412   1.430   6.469  15.786 -0.7292  0.2368  0.5732
19666TIP3    H180413   1.520   6.500  15.788 -0.1608 -0.7755 -2.5560
19666TIP3    H280414   1.430   6.391  15.842 -0.2387  1.4010  2.2535
19667TIP3   OH280415   5.706   2.870   0.119 -0.5994  0.5746 -0.6085
19667TIP3    H180416   5.799   2.884   0.101  0.1273 -0.7113  1.7120
19667TIP3    H280417   5.672   2.958   0.137  0.6110  0.8960  0.2730
19668TIP3   OH280418   2.465   2.363   4.925  0.4959 -0.6187 -0.1806
19668TIP3    H180419   2.547   2.359   4.973  0.9739 -0.7128 -0.9915
19668TIP3    H280420   2.490   2.377   4.834 -0.2996 -2.2317 -0.6930
19669TIP3   OH280421   2.086   0.640  14.164 -0.0549 -0.1027  0.6170
19669TIP3    H180422   2.134   0.586  14.226  0.3351  0.5676  0.9034
19669TIP3    H280423   2.051   0.577  14.100  1.5675 -0.5584  0.1493
19670TIP3   OH280424   1.259   3.704   1.697  0.0099  0.2057  0.0983
19670TIP3    H180425   1.181   3.747   1.663  0.3838  1.4012  0.7086
19670TIP3    H280426   1.284   3.642   1.628 -2.2217 -1.1913  0.4436
19671TIP3   OH280427   0.271   5.606   3.741 -0.0123 -0.0004 -0.3040
19671TIP3    H180428   0.360   5.613   3.773 -0.4489  1.3638  0.6952
19671TIP3    H280429   0.252   5.512   3.743  1.0915 -0.2275  0.2844
19672TIP3   OH280430   6.674   5.844  15.004 -0.1415 -0.0131 -0.2995
19672TIP3    H180431   6.703   5.806  15.087  0.3752 -0.1212 -0.5193
19672TIP3    H280432   6.632   5.926  15.028  2.3392  1.3120 -0.0701
19673TIP3   OH280433   5.903   3.163   2.512  0.4751  0.1269  0.4174
19673TIP3    H180434   5.911   3.117   2.429  2.1156 -0.6042  0.9269
19673TIP3    H280435   5.987   3.207   2.523  0.0245  0.7963  1.3580
19674TIP3   OH280436   6.407   3.161  14.021  0.2499 -0.3514 -0.2046
19674TIP3    H180437   6.346   3.233  14.037  1.1598  0.2789  0.4867
19674TIP3    H280438   6.402   3.108  14.101  0.5913 -0.3045 -0.1510
19675TIP3   OH280439   4.193   6.548  11.744 -0.2466  0.6708  0.2151
19675TIP3    H180440   4.179   6.526  11.652  0.5053 -1.7213  0.6043
19675TIP3    H280441   4.271   6.604  11.744 -0.8892  1.6028 -0.6539
19676TIP3   OH280442   6.527   2.591   0.222 -0.6063 -0.3124 -0.0480
19676TIP3    H180443   6.523   2.612   0.315  1.6616  0.9672 -0.1792
19676TIP3    H280444   6.546   2.674   0.179 -0.5268 -1.0707 -1.5504
19677TIP3   OH280445   1.511   1.680  15.802 -0.1807  0.0624 -0.1812
19677TIP3    H180446   1.434   1.737  15.804 -0.5850 -0.4424  2.0336
19677TIP3    H280447   1.575   1.725  15.858  0.4654 -0.3861 -0.5479
19678TIP3   OH280448   4.777   4.463  12.130 -0.0063  0.5274  0.3117
19678TIP3    H180449   4.781   4.491  12.039 -0.3214  0.7374  0.3600
19678TIP3    H280450   4.750   4.541  12.178 -1.0493  0.1151  0.4312
19679TIP3   OH280451   0.248   6.841   3.660 -1.2554  0.4577  0.1099
19679TIP3    H180452   0.289   6.755   3.651 -2.0477  0.0565  0.2478
19679TIP3    H280453   0.315   6.896   3.701 -0.4836  0.1165 -0.6705
19680TIP3   OH280454   5.097   1.602   2.310  0.5037 -0.3873  0.3122
19680TIP3    H180455   5.186   1.602   2.276 -0.3759  0.6110 -2.2545
19680TIP3    H280456   5.064   1.691   2.292 -1.7089 -1.3804 -0.9673
19681TIP3   OH280457   4.118   5.746  15.915  0.2313  0.3511 -0.5912
19681TIP3    H180458   4.037   5.768  15.868 -2.0244 -1.1786  2.1911
19681TIP3    H280459   4.115   5.651  15.924  3.6828 -0.0849 -2.3835
19682TIP3   OH280460   0.346   5.840  15.310 -0.1475  1.3620 -0.0322
19682TIP3    H180461   0.264   5.791  15.311  0.8621 -0.3973 -0.1766
19682TIP3    H280462   0.347   5.883  15.225 -0.7676  1.1315 -0.1620
19683TIP3   OH280463   6.115   0.057  11.601 -0.1426 -0.1268  0.1617
19683TIP3    H180464   6.035   0.085  11.558 -0.8822 -1.6522  0.4683
19683TIP3    H280465   6.179   0.047  11.530 -0.2632  0.9220 -0.1043
19684TIP3   OH280466   2.814   1.723  11.643  0.3646  0.4412 -0.0901
19684TIP3    H180467   2.908   1.705  11.651  0.7998  2.9192  1.4273
19684TIP3    H280468   2.783   1.731  11.733 -1.4822 -0.8492 -0.5448
19685TIP3   OH280469   1.549   4.003  11.509 -0.6693 -0.3224  0.1835
19685TIP3    H180470   1.509   3.924  11.545 -0.1432 -1.3254 -1.3640
19685TIP3    H280471   1.605   3.972  11.438 -0.9450  1.4847 -0.8921
19686TIP3   OH280472   3.371   4.490  16.606  0.7849 -0.1114 -0.3462
19686TIP3    H180473   3.430   4.443  16.665 -1.5288 -0.4883  1.8734
19686TIP3    H280474   3.395   4.460  16.518 -0.2188 -5.3164  0.7944
19687TIP3   OH280475   1.705   6.348   5.134  0.4363  0.2927 -0.3279
19687TIP3    H180476   1.721   6.422   5.075 -0.1800 -0.6627 -1.7570
19687TIP3    H280477   1.699   6.272   5.076  0.9976 -0.8939  1.0845
19688TIP3   OH280478   1.666   5.522   3.288 -0.4805 -0.7601  0.0278
19688TIP3    H180479   1.754   5.503   3.257 -0.6176  1.0942 -1.7211
19688TIP3    H280480   1.611   5.518   3.210 -1.7312 -0.6002  0.8532
19689TIP3   OH280481   3.080   2.628   4.292 -0.3369 -0.5422 -0.3260
19689TIP3    H180482   3.006   2.684   4.271 -1.6095 -1.2201  2.0717
19689TIP3    H280483   3.108   2.656   4.380 -0.6712 -3.2345  0.7202
19690TIP3   OH280484   1.793   3.778  15.810 -0.1204 -0.1868  0.5168
19690TIP3    H180485   1.769   3.855  15.862  0.1000 -0.2586  0.7309
19690TIP3    H280486   1.846   3.813  15.738  1.3137 -0.2824  1.4834
19691TIP3   OH280487   1.473   6.676  13.909 -0.2954 -0.2887 -0.1497
19691TIP3    H180488   1.525   6.646  13.835 -1.0675  0.5915 -1.0823
19691TIP3    H280489   1.533   6.729  13.961 -0.0866  0.1560 -0.8427
19692TIP3   OH280490   5.719   3.293  14.174  0.1587 -0.2844  0.1949
19692TIP3    H180491   5.703   3.351  14.248  0.1181 -0.2154  0.1319
19692TIP3    H280492   5.774   3.223  14.210  1.0991  0.3470  0.0347
19693TIP3   OH280493   2.742   3.003   2.077  0.0925 -0.0662  0.6917
19693TIP3    H180494   2.675   3.046   2.025  1.6991 -0.9427 -2.3326
19693TIP3    H280495   2.718   2.911   2.076  0.5320 -0.1867  0.9125
19694TIP3   OH280496   0.618   1.074   2.747  0.7412 -0.2583 -0.5092
19694TIP3    H180497   0.654   1.034   2.826  0.0030 -0.0498 -0.0643
19694TIP3    H280498   0.534   1.111   2.774  0.6080  0.0605 -1.3245
19695TIP3   OH280499   5.584   0.266  15.565  0.5019  0.2275  0.0315
19695TIP3    H180500   5.612   0.345  15.520  2.2094  0.0598  0.6797
19695TIP3    H280501   5.562   0.295  15.654  2.6681 -0.1716  0.7629
19696TIP3   OH280502   6.245   1.241  10.794  1.1412  0.1227  0.1163
19696TIP3    H180503   6.264   1.180  10.866  1.2067  0.3343  0.2801
19696TIP3    H280504   6.265   1.327  10.831 -2.9168  0.7339  1.3397
19697TIP3   OH280505   3.981   3.685  13.993  0.7194  0.5551 -0.0539
19697TIP3    H180506   3.976   3.597  13.955  0.6554  0.8378 -0.7197
19697TIP3    H280507   4.062   3.685  14.043 -0.9328 -1.0232  2.9257
19698TIP3   OH280508   2.626   0.900  10.789 -0.2976  0.3304 -0.2707
19698TIP3    H180509   2.640   0.995  10.796  1.1555  0.0695  0.9492
19698TIP3    H280510   2.714   0.865  10.773 -0.7091 -0.8662  0.0150
19699TIP3   OH280511   3.394   3.840   4.466  0.0940  0.6672  0.2487
19699TIP3    H180512   3.398   3.936   4.464  2.8556  0.7084  2.0060
19699TIP3    H280513   3.372   3.819   4.557  1.1192 -0.3193  0.3042
19700TIP3   OH280514   6.343   2.262   4.354  0.0395  0.0094  0.4606
19700TIP3    H180515   6.281   2.270   4.426  0.9402 -0.3219  1.2837
19700TIP3    H280516   6.301   2.201   4.293 -1.0517  0.8543  0.3338
19701TIP3   OH280517   4.892   2.268  16.588 -0.1457 -0.2594 -0.1822
19701TIP3    H180518   4.922   2.358  16.588  0.2125 -0.3786 -0.4101
19701TIP3    H280519   4.862   2.253  16.499 -0.3995 -0.3022 -0.0912
19702TIP3   OH280520   6.309   4.783  13.576  0.0635  0.0290  0.4344
19702TIP3    H180521   6.350   4.706  13.537 -0.7285 -0.5898  0.7954
19702TIP3    H280522   6.267   4.827  13.503  2.4038  1.3998 -0.1912
19703TIP3   OH280523   1.383   5.103  15.445 -0.2038 -0.3569 -0.4299
19703TIP3    H180524   1.372   5.197  15.460 -1.8471 -0.8710  2.3785
19703TIP3    H280525   1.394   5.095  15.350 -1.1217  2.5678 -0.8922
19704TIP3   OH280526   4.069   3.113   1.106  0.1299  0.2517 -0.3946
19704TIP3    H180527   4.133   3.183   1.097  0.7508 -0.4752 -1.7825
19704TIP3    H280528   4.105   3.040   1.057 -0.7688 -0.8824  0.5687
19705TIP3   OH280529   0.502   5.302  15.231  0.2801  0.6741  1.1050
19705TIP3    H180530   0.462   5.216  15.223 -0.5019  1.1694 -0.8812
19705TIP3    H280531   0.580   5.287  15.284  0.4946 -1.3658  0.3100
19706TIP3   OH280532   1.544   1.690  16.566 -0.5402 -0.0328  0.1157
19706TIP3    H180533   1.564   1.752  16.495 -0.1817 -1.2850 -0.9334
19706TIP3    H280534   1.606   1.712  16.635 -0.6520  0.9885 -0.0876
19707TIP3   OH280535   6.577   0.080  12.767  0.7741 -0.3722  0.3452
19707TIP3    H180536   6.602   0.169  12.792  1.2321 -0.5555  0.5472
19707TIP3    H280537   6.655   0.043  12.727  0.5117 -0.6083  0.0424
19708TIP3   OH280538   5.939   4.104   4.670  0.5779  0.3945 -0.0562
19708TIP3    H180539   6.026   4.084   4.702  0.2631 -0.0523  0.5464
19708TIP3    H280540   5.881   4.048   4.722 -0.2285  1.9702  0.8106
19709TIP3   OH280541   1.794   5.563   1.048  0.0268  0.1097  0.0379
19709TIP3    H180542   1.871   5.529   1.002  0.5568 -0.3604  1.2324
19709TIP3    H280543   1.829   5.617   1.118 -0.7342 -0.0203  0.5373
19710TIP3   OH280544   3.099   6.548  13.689  0.3371  0.1797  0.0815
19710TIP3    H180545   3.188   6.522  13.664  0.3455  2.0235 -2.0858
19710TIP3    H280546   3.107   6.640  13.715 -0.4267 -0.5250  3.2292
19711TIP3   OH280547   0.445   1.430   0.628 -0.1319 -0.4921 -0.2375
19711TIP3    H180548   0.405   1.491   0.690  1.9109  2.1918 -1.3765
19711TIP3    H280549   0.399   1.447   0.546  0.1808 -0.8261 -0.4815
19712TIP3   OH280550   1.833   4.019   5.138  0.3837  0.3260  0.2799
19712TIP3    H180551   1.885   4.097   5.159 -0.8537  1.1531  0.3813
19712TIP3    H280552   1.816   3.977   5.222  1.4631 -0.3608  0.1828
19713TIP3   OH280553   3.483   0.470   1.409  0.8971 -0.2796  0.0675
19713TIP3    H180554   3.425   0.393   1.409 -0.5399  0.7746 -0.0622
19713TIP3    H280555   3.570   0.433   1.427  0.0143 -1.7750  1.6690
19714TIP3   OH280556   6.736   3.072  12.175 -0.4333  0.1643  0.1790
19714TIP3    H180557   6.741   2.976  12.171  0.2687  0.1939  0.1097
19714TIP3    H280558   6.786   3.102  12.099  0.1732  0.5899  0.7349
19715TIP3   OH280559   2.961   6.575   2.836 -0.3039 -0.3343  0.2771
19715TIP3    H180560   2.962   6.534   2.923  0.7161 -0.0921  0.3922
19715TIP3    H280561   2.920   6.660   2.851  1.2572  0.3497  0.8500
19716TIP3   OH280562   6.052   1.285  13.849  0.4893 -0.6037  0.5624
19716TIP3    H180563   6.027   1.372  13.880 -1.4649 -1.4452  1.5303
19716TIP3    H280564   6.147   1.289  13.841  0.4640  1.6156  0.5340
19717TIP3   OH280565   4.586   3.255  10.856 -0.5943  0.8272 -0.2324
19717TIP3    H180566   4.508   3.235  10.805 -0.3515 -1.8811  0.2933
19717TIP3    H280567   4.656   3.204  10.814  0.3563  1.2688  0.7522
19718TIP3   OH280568   0.968   0.326  13.670  0.5498  0.3115 -0.0462
19718TIP3    H180569   0.936   0.407  13.632  2.5317  0.9519 -0.4766
19718TIP3    H280570   1.028   0.354  13.740  1.7031 -0.7365 -0.5666
19719TIP3   OH280571   4.634   1.201   1.364  0.2400  0.4928 -0.5375
19719TIP3    H180572   4.646   1.240   1.451 -0.5837 -0.0030 -0.1828
19719TIP3    H280573   4.546   1.227   1.338 -0.7995 -1.9754  0.2110
19720TIP3   OH280574   2.468   4.741   0.178 -0.5492 -0.1628 -0.0858
19720TIP3    H180575   2.500   4.826   0.149  0.2577 -1.4717 -3.5790
19720TIP3    H280576   2.547   4.689   0.191 -1.0278 -0.4250  2.0848
19721TIP3   OH280577   5.088   6.436  14.302 -0.2781  0.7671  0.3616
19721TIP3    H180578   5.160   6.391  14.257  1.2868  1.1792  2.3053
19721TIP3    H280579   5.034   6.365  14.336  0.9109  0.3368  1.4466
19722TIP3   OH280580   1.703   4.062  13.625  0.2563  0.0088 -0.4491
19722TIP3    H180581   1.714   3.996  13.556  4.2225 -0.3035  0.2909
19722TIP3    H280582   1.667   4.014  13.699  1.4187 -0.9791 -0.5002
19723TIP3   OH280583   6.798   3.210  13.969  0.0813  0.5515 -1.4472
19723TIP3    H180584   6.731   3.270  14.004  0.1147 -0.3794  0.3157
19723TIP3    H280585   6.881   3.253  13.988  0.3426 -1.4329  3.0707
19724TIP3   OH280586   3.403   3.401  14.089 -0.2191  0.3402 -0.1652
19724TIP3    H180587   3.364   3.318  14.061 -0.4614  0.0150  1.0861
19724TIP3    H280588   3.333   3.444  14.139  1.5676 -1.3697  4.3877
19725TIP3   OH280589   6.873   6.226  12.940 -0.6865 -0.1699 -0.0554
19725TIP3    H180590   6.779   6.229  12.961 -0.5030  1.4083  0.7296
19725TIP3    H280591   6.882   6.151  12.882 -2.3426 -0.7207  0.3261
19726TIP3   OH280592   0.677   1.187  10.448 -0.3688 -0.5322  0.0511
19726TIP3    H180593   0.697   1.136  10.370 -0.6185  0.4120 -0.6554
19726TIP3    H280594   0.763   1.209  10.485 -0.1853  0.0991 -0.7011
19727TIP3   OH280595   0.382   4.764  13.398  0.1121 -0.4796  0.2108
19727TIP3    H180596   0.405   4.857  13.406 -0.6225 -0.2585 -0.0667
19727TIP3    H280597   0.315   4.750  13.464  0.7009 -0.9914  0.7065
19728TIP3   OH280598   3.215   2.178   3.049 -0.7259  0.0127 -0.0078
19728TIP3    H180599   3.297   2.227   3.058 -0.8289  0.6337 -2.0269
19728TIP3    H280600   3.148   2.239   3.078 -0.7149  0.5713 -1.1120
19729TIP3   OH280601   6.430   5.497   5.083 -0.4437  0.3547 -0.2133
19729TIP3    H180602   6.444   5.459   5.169 -1.0409 -1.9939 -1.0906
19729TIP3    H280603   6.339   5.528   5.085 -0.7708 -0.5769 -0.2946
19730TIP3   OH280604   0.635   4.698  14.793  0.2094  0.1851  0.0438
19730TIP3    H180605   0.718   4.652  14.781 -0.0187  0.2534 -2.3189
19730TIP3    H280606   0.660   4.791  14.798  0.2331  0.3915 -2.5944
19731TIP3   OH280607   5.947   4.128   1.922 -0.3228  0.3780 -0.2665
19731TIP3    H180608   6.024   4.072   1.934 -0.6060 -0.0507 -0.4034
19731TIP3    H280609   5.928   4.122   1.829 -0.7614  0.1540 -0.1649
19732TIP3   OH280610   4.507   6.176   5.977  0.0689  1.0124 -0.0233
19732TIP3    H180611   4.424   6.191   6.024 -0.3661 -1.7449  0.2213
19732TIP3    H280612   4.574   6.210   6.037 -0.7334  1.1688  0.8088
19733TIP3   OH280613   0.234   1.070   4.004  0.0864 -0.3238  0.1053
19733TIP3    H180614   0.297   1.130   3.965  0.2174  0.7120  1.8179
19733TIP3    H280615   0.149   1.111   3.989  0.1977  0.4938  1.5242
19734TIP3   OH280616   1.885   5.758   6.234  0.3412 -0.5836 -0.3431
19734TIP3    H180617   1.845   5.707   6.304 -0.7333 -1.1545 -1.3173
19734TIP3    H280618   1.812   5.809   6.198  1.2532  1.1340  0.1487
19735TIP3   OH280619   1.554   2.625   2.299  0.1854 -0.4275  0.0118
19735TIP3    H180620   1.615   2.639   2.227  1.2963  1.8970  1.2816
19735TIP3    H280621   1.467   2.632   2.259  0.7605 -0.2647 -1.2499
19736TIP3   OH280622   3.927   2.596  13.721 -0.1532 -0.3768 -0.3622
19736TIP3    H180623   3.837   2.565  13.732  0.2523 -1.0236  1.6693
19736TIP3    H280624   3.921   2.691  13.736 -0.1942 -0.7476  2.4770
19737TIP3   OH280625   0.391   0.747  11.703 -0.0482  0.1246  0.4938
19737TIP3    H180626   0.361   0.673  11.650  1.5483 -0.7708  0.7773
19737TIP3    H280627   0.386   0.822  11.644  1.5030 -0.8124 -0.9248
19738TIP3   OH280628   0.362   3.683   1.868 -0.0392 -0.0717 -0.4287
19738TIP3    H180629   0.360   3.665   1.774  1.4454 -1.3221 -0.2581
19738TIP3    H280630   0.430   3.750   1.877 -0.2661  0.1344 -0.2608
19739TIP3   OH280631   4.650   3.272  13.757 -0.2925 -0.2570  0.0537
19739TIP3    H180632   4.679   3.279  13.665 -0.8795  0.5331 -0.0808
19739TIP3    H280633   4.714   3.214  13.797 -0.3542 -1.0833 -0.9940
19740TIP3   OH280634   3.849   6.345   0.627 -0.0822 -0.5677 -0.0659
19740TIP3    H180635   3.938   6.320   0.652  0.8671  2.4102 -0.0573
19740TIP3    H280636   3.829   6.291   0.550  2.0195 -0.8197 -0.4879
19741TIP3   OH280637   4.983   6.741   1.830  0.1400  0.0976  0.1060
19741TIP3    H180638   5.032   6.660   1.822  2.0790  1.2168 -0.0033
19741TIP3    H280639   5.026   6.801   1.769 -0.2775  1.6274  1.2400
19742TIP3   OH280640   6.000   2.727  14.250 -0.4687 -0.1735 -0.1464
19742TIP3    H180641   5.927   2.775  14.211 -0.3177  1.1133  1.0793
19742TIP3    H280642   6.078   2.770  14.215 -0.2942 -0.8829 -0.6508
19743TIP3   OH280643   6.645   6.768  12.216  0.2844  0.3972  0.4377
19743TIP3    H180644   6.682   6.838  12.163  0.0346 -0.3566 -0.7603
19743TIP3    H280645   6.628   6.809  12.301  0.3526  1.7298 -0.1652
19744TIP3   OH280646   0.300   6.215  10.765  0.3393  0.6177 -0.1499
19744TIP3    H180647   0.296   6.180  10.854 -0.1439 -0.4738 -0.5835
19744TIP3    H280648   0.363   6.287  10.770  0.2641  0.6110  1.0836
19745TIP3   OH280649   6.025   3.656   5.508  0.1624 -0.2708 -0.3573
19745TIP3    H180650   6.103   3.655   5.452  0.6069  1.8992  0.1458
19745TIP3    H280651   6.059   3.646   5.596  0.1598  2.6431  0.0643
19746TIP3   OH280652   3.032   2.988  11.260  0.4683 -0.2003 -0.0101
19746TIP3    H180653   3.083   3.024  11.187 -0.5174 -1.8099 -1.5813
19746TIP3    H280654   3.029   2.894  11.243  0.9546 -0.7675  2.6403
19747TIP3   OH280655   5.256   6.453  14.922 -0.5473  0.3324 -0.2229
19747TIP3    H180656   5.291   6.376  14.967 -1.2131  0.5776  0.7364
19747TIP3    H280657   5.324   6.477  14.859  1.1761  1.0005  1.8017
19748TIP3   OH280658   4.881   3.521  15.844 -0.1879 -0.1984  0.1924
19748TIP3    H180659   4.786   3.522  15.849 -0.3065  1.8158 -1.1359
19748TIP3    H280660   4.901   3.444  15.791 -1.1876 -0.0472 -0.4436
19749TIP3   OH280661   1.951   0.256   0.394  0.7021  0.0388  0.8460
19749TIP3    H180662   1.887   0.234   0.328  1.9074 -0.4064 -0.2143
19749TIP3    H280663   2.022   0.193   0.382  1.6966  0.9842  1.4521
19750TIP3   OH280664   2.655   3.969   0.821  0.1811 -0.2891 -0.2671
19750TIP3    H180665   2.653   3.967   0.726  0.7837  0.0266 -0.2927
19750TIP3    H280666   2.567   3.941   0.848 -0.3199  0.6007 -0.9252
19751TIP3   OH280667   4.357   2.188   2.703  0.1774 -0.0865  0.1336
19751TIP3    H180668   4.418   2.257   2.677  1.1061 -1.1335 -0.5774
19751TIP3    H280669   4.375   2.172   2.795  2.0650 -1.3991 -0.4181
19752TIP3   OH280670   4.632   6.563  11.570 -0.0527 -0.2194 -0.4406
19752TIP3    H180671   4.642   6.572  11.475  0.7001  0.8062 -0.2834
19752TIP3    H280672   4.593   6.476  11.582  1.1221 -0.9370 -1.6007
19753TIP3   OH280673   0.729   2.755  10.692 -0.1726  0.1891 -0.0393
19753TIP3    H180674   0.657   2.816  10.670  0.5605  1.5675  1.1934
19753TIP3    H280675   0.808   2.801  10.664  0.4058 -0.1775  0.9635
19754TIP3   OH280676   4.474   2.255   5.325  0.3872  0.5829 -0.3321
19754TIP3    H180677   4.525   2.257   5.245  1.9177  0.8642  0.6112
19754TIP3    H280678   4.457   2.347   5.345 -0.2321  0.5026 -0.4763
19755TIP3   OH280679   1.581   1.452  12.486 -0.1373 -0.1255 -0.4107
19755TIP3    H180680   1.521   1.503  12.541 -0.5543  0.1216 -1.0770
19755TIP3    H280681   1.668   1.486  12.507 -0.1017 -1.1275  1.2565
19756TIP3   OH280682   5.616   0.947   0.999  0.0263  0.0595 -0.0809
19756TIP3    H180683   5.670   1.016   1.038  0.2969 -0.7270  0.9728
19756TIP3    H280684   5.674   0.903   0.936  0.1924  0.0884  0.0524
19757TIP3   OH280685   6.111   0.173   1.651  0.2539 -0.2994 -0.2276
19757TIP3    H180686   6.182   0.110   1.664  0.8286  0.3634 -0.1062
19757TIP3    H280687   6.058   0.164   1.730  0.0703 -0.9543 -0.4155
19758TIP3   OH280688   6.679   3.618   1.878 -0.8410 -0.0341  0.8272
19758TIP3    H180689   6.706   3.581   1.962  1.2660  0.8264  0.5719
19758TIP3    H280690   6.637   3.701   1.901  0.0343  0.3611  1.0147
19759TIP3   OH280691   3.886   3.806  12.148  0.8096  0.0276 -0.0102
19759TIP3    H180692   3.796   3.790  12.119  1.4028 -0.2616 -1.8232
19759TIP3    H280693   3.880   3.815  12.243 -0.9485 -1.2552  0.0338
19760TIP3   OH280694   0.343   0.645  14.471 -0.0775  0.8467  0.3704
19760TIP3    H180695   0.325   0.680  14.383  1.2639  0.7979  0.0614
19760TIP3    H280696   0.283   0.694  14.528 -1.3192  0.5340 -0.6171
19761TIP3   OH280697   6.075   0.139  11.301  0.4754 -0.2426 -0.2176
19761TIP3    H180698   6.033   0.072  11.246 -0.5725 -0.9731  1.3831
19761TIP3    H280699   6.167   0.136  11.276  0.5547 -2.6509  0.1376
19762TIP3   OH280700   2.525   6.569   2.623  0.0447  0.1130  0.0743
19762TIP3    H180701   2.614   6.535   2.634  0.5824  0.5084 -2.3856
19762TIP3    H280702   2.468   6.497   2.651  1.1377 -0.7243  0.2029
19763TIP3   OH280703   2.873   5.894  16.378 -0.5296 -0.1512 -0.2923
19763TIP3    H180704   2.815   5.962  16.342 -2.0132 -0.6782  0.9936
19763TIP3    H280705   2.818   5.816  16.384  0.9747 -1.3398 -1.1332
19764TIP3   OH280706   3.796   1.733  15.744 -0.5189 -0.5098  0.1564
19764TIP3    H180707   3.777   1.657  15.800  0.9408  0.0825  1.5493
19764TIP3    H280708   3.715   1.785  15.746 -0.2027  0.0230  2.6758
19765TIP3   OH280709   1.999   2.067  15.935 -0.1234 -0.3483 -0.0418
19765TIP3    H180710   1.951   2.132  15.883 -1.2791 -1.2841 -0.2015
19765TIP3    H280711   1.999   1.988  15.880 -0.3833 -1.0274  0.9059
19766TIP3   OH280712   5.065   3.151  13.552 -0.4674 -0.0227  0.1103
19766TIP3    H180713   5.072   3.161  13.457 -0.2606  1.2392  0.2436
19766TIP3    H280714   5.155   3.141  13.581 -0.5501 -0.7031  0.1648
19767TIP3   OH280715   4.159   6.005   2.199 -0.4015  0.0993 -0.0707
19767TIP3    H180716   4.095   5.939   2.174 -0.0249 -0.3734  0.2174
19767TIP3    H280717   4.226   5.958   2.249  0.0697  0.6221 -0.1911
19768TIP3   OH280718   1.825   1.889   4.219 -0.0158 -0.1685  0.2588
19768TIP3    H180719   1.826   1.979   4.187  1.6486 -0.2107  0.1391
19768TIP3    H280720   1.872   1.839   4.152  0.5502 -0.8253  1.1310
19769TIP3   OH280721   4.639   6.154   4.050  0.2564  0.2382 -0.4031
19769TIP3    H180722   4.706   6.176   4.115  0.8301 -0.1480 -0.8556
19769TIP3    H280723   4.685   6.101   3.985 -0.3426  0.5060 -1.0558
19770TIP3   OH280724   2.013   6.121   2.954 -0.3078 -0.3660  0.3887
19770TIP3    H180725   2.055   6.200   2.921 -1.0176 -0.5435 -1.0156
19770TIP3    H280726   2.061   6.100   3.034  0.7149  0.7606  0.1005
19771TIP3   OH280727   4.907   3.211  11.643 -0.1420  0.4628  0.1851
19771TIP3    H180728   4.830   3.265  11.624 -1.1081  0.1089  2.7500
19771TIP3    H280729   4.873   3.138  11.694  1.8896  0.2931  1.3921
19772TIP3   OH280730   4.867   4.759   4.381  0.0322 -0.7623 -0.0780
19772TIP3    H180731   4.904   4.847   4.372  2.4349 -1.4565  2.0514
19772TIP3    H280732   4.833   4.756   4.470  1.0536 -2.3273  0.2990
19773TIP3   OH280733   4.809   3.319   5.083 -0.4867 -0.0195  0.2564
19773TIP3    H180734   4.755   3.275   5.018  0.6094 -0.4265 -0.4067
19773TIP3    H280735   4.828   3.252   5.149 -0.7687  0.1160  0.4766
19774TIP3   OH280736   2.974   1.023  16.290  0.4586 -0.6869 -0.1727
19774TIP3    H180737   2.984   1.019  16.385  0.3399 -0.1583 -0.1368
19774TIP3    H280738   3.041   1.086  16.261  0.9903 -1.3954 -0.5202
19775TIP3   OH280739   1.135   3.163   6.469  0.6719 -0.2073  0.9357
19775TIP3    H180740   1.195   3.089   6.462  0.2368 -0.5938  1.1702
19775TIP3    H280741   1.101   3.175   6.381  0.8184 -0.2286  0.8766
19776TIP3   OH280742   3.829   5.993   4.439 -0.5061 -0.4291 -0.0654
19776TIP3    H180743   3.825   6.075   4.389 -1.5471 -1.0356 -1.0243
19776TIP3    H280744   3.744   5.987   4.482 -0.6245 -1.2375 -0.4016
19777TIP3   OH280745   2.469   1.733   0.673 -0.7135  0.1028  0.3258
19777TIP3    H180746   2.453   1.647   0.712 -0.4332  0.4259  1.1844
19777TIP3    H280747   2.389   1.783   0.692 -0.6355  0.2177  0.3553
19778TIP3   OH280748   6.037   0.994  16.017  0.4074  0.1484  0.0270
19778TIP3    H180749   5.987   0.958  15.943  0.7060  1.4602 -0.8392
19778TIP3    H280750   6.113   0.937  16.023  0.3163 -0.0524 -0.5954
19779TIP3   OH280751   3.765   2.484   0.896 -0.2573  0.3565  0.2750
19779TIP3    H180752   3.725   2.399   0.879  0.4232 -0.0452  0.6252
19779TIP3    H280753   3.846   2.483   0.844  1.1971 -0.3743  2.4050
19780TIP3   OH280754   1.525   1.232   3.728  0.3012 -0.7154  0.1579
19780TIP3    H180755   1.488   1.313   3.693  2.1755  0.2795  0.3342
19780TIP3    H280756   1.455   1.168   3.721 -0.6971  0.5008 -1.5565
19781TIP3   OH280757   4.457   0.568   4.722 -0.0944  0.4366 -0.3244
19781TIP3    H180758   4.520   0.518   4.669  0.8782  0.0685  1.1287
19781TIP3    H280759   4.377   0.516   4.717  1.1994 -2.0715  2.1195
19782TIP3   OH280760   3.731   1.376  13.454 -0.2465 -0.2959 -0.0215
19782TIP3    H180761   3.701   1.335  13.373 -1.1828 -0.6566  0.5031
19782TIP3    H280762   3.795   1.441  13.425  1.2172 -2.0236 -0.8906
19783TIP3   OH280763   5.203   6.408  12.261  0.0801  0.8103 -0.3724
19783TIP3    H180764   5.183   6.452  12.344  0.3899 -1.5370  1.0330
19783TIP3    H280765   5.290   6.441  12.237  1.0580 -0.2173  1.5401
19784TIP3   OH280766   4.388   5.516   0.285  0.3721  0.1088 -0.0949
19784TIP3    H180767   4.336   5.549   0.212  1.7969 -3.3108 -2.9409
19784TIP3    H280768   4.473   5.560   0.275 -0.1222  1.3969  1.0501
19785TIP3   OH280769   0.318   1.559  15.953 -0.0783  0.6682  0.6299
19785TIP3    H180770   0.241   1.509  15.980 -1.6074  1.9351 -1.1435
19785TIP3    H280771   0.342   1.522  15.868  0.8590  0.7703  0.8377
19786TIP3   OH280772   6.519   0.122  10.482 -0.0475 -0.4558  0.4220
19786TIP3    H180773   6.467   0.161  10.553  1.1274 -1.5298  1.9586
19786TIP3    H280774   6.505   0.028  10.492 -0.0420 -0.6200 -0.9545
19787TIP3   OH280775   5.121   3.670  10.919  0.6812 -0.0031  0.5216
19787TIP3    H180776   5.202   3.707  10.953  0.2623 -0.2888  1.9113
19787TIP3    H280777   5.124   3.686  10.825  1.2065  2.2353  0.8634
19788TIP3   OH280778   3.476   6.892   0.339  0.0822  0.0705  0.8252
19788TIP3    H180779   3.507   6.840   0.414  1.2581  1.7473  1.5619
19788TIP3    H280780   3.497   6.837   0.263  2.0731 -0.2362  1.5162
19789TIP3   OH280781   2.667   1.066   5.492  0.4356 -0.1107 -0.1618
19789TIP3    H180782   2.601   0.998   5.499  0.9869 -0.7900 -1.2195
19789TIP3    H280783   2.749   1.024   5.519  0.7273  0.2040 -0.5255
19790TIP3   OH280784   0.003   5.520   4.532  0.1199  0.0287 -0.3182
19790TIP3    H180785  -0.004   5.595   4.473 -0.6541  1.5125  1.5457
19790TIP3    H280786   0.093   5.490   4.523  0.6707  1.6675 -0.5972
19791TIP3   OH280787   1.509   5.250  12.153  0.2313 -0.2649 -0.0042
19791TIP3    H180788   1.590   5.282  12.193  0.7047  0.5667 -1.5398
19791TIP3    H280789   1.445   5.318  12.172  0.6584  0.5261 -1.2994
19792TIP3   OH280790   1.401   5.699  15.319  0.3661  0.1230  0.0265
19792TIP3    H180791   1.361   5.686  15.405  0.1580  2.2384  0.2874
19792TIP3    H280792   1.463   5.627  15.310 -1.4331 -1.6280  0.8257
19793TIP3   OH280793   4.223   3.788   4.890 -0.5458  0.1362  0.0324
19793TIP3    H180794   4.154   3.783   4.957 -1.9999  2.8976 -1.1006
19793TIP3    H280795   4.243   3.881   4.883  1.0948 -0.2928 -1.9235
19794TIP3   OH280796   1.703   3.487   4.634  0.2737  0.1132  0.8698
19794TIP3    H180797   1.780   3.473   4.689  1.2816 -0.2415 -0.5877
19794TIP3    H280798   1.658   3.402   4.635  2.0270 -0.9349 -1.3843
19795TIP3   OH280799   4.635   1.558  15.097 -0.3004  0.3855 -0.2130
19795TIP3    H180800   4.708   1.499  15.079  1.3841  2.2737  0.2300
19795TIP3    H280801   4.655   1.638  15.048 -1.6261  1.2662  0.6087
19796TIP3   OH280802   2.424   4.288  14.670  0.0674  0.4783  0.1979
19796TIP3    H180803   2.415   4.301  14.576 -1.8625  0.2333  0.3139
19796TIP3    H280804   2.515   4.260  14.682 -0.3042 -1.9537 -1.8920
19797TIP3   OH280805   6.523   6.204   4.057 -0.1238 -1.1031  0.2809
19797TIP3    H180806   6.573   6.130   4.022  1.6864 -0.6329  1.6820
19797TIP3    H280807   6.520   6.267   3.985 -1.0207 -2.1813 -0.6721
19798TIP3   OH280808   3.138   1.287   0.756 -0.0476  0.2793 -0.3647
19798TIP3    H180809   3.177   1.371   0.733  0.3396  0.2201  0.0471
19798TIP3    H280810   3.207   1.241   0.805 -0.1819 -0.3562 -0.7597
19799TIP3   OH280811   6.723   2.280  11.971  0.0369  0.8668  0.2305
19799TIP3    H180812   6.708   2.206  11.912  1.0046  1.0052 -0.2136
19799TIP3    H280813   6.644   2.285  12.025 -1.2854  1.2945 -1.6481
19800TIP3   OH280814   4.851   2.684  16.450 -0.2285  0.4765 -0.0819
19800TIP3    H180815   4.853   2.698  16.356 -1.4260 -0.6322 -0.3025
19800TIP3    H280816   4.798   2.755  16.485 -2.5332 -0.8729 -0.6628
19801TIP3   OH280817   1.861   0.382   3.769 -0.1671  0.0993  0.0295
19801TIP3    H180818   1.875   0.475   3.754  0.9107  0.0583  0.6825
19801TIP3    H280819   1.789   0.378   3.831  0.8360  0.5792  1.2621
19802TIP3   OH280820   4.075   1.510  10.237  0.1815 -0.3237 -0.7909
19802TIP3    H180821   4.157   1.511  10.188  0.0887 -2.5106 -1.1071
19802TIP3    H280822   4.065   1.599  10.271  0.7975  0.9797 -3.7836
19803TIP3   OH280823   0.156   0.921  12.765 -0.4433  0.0605 -0.0140
19803TIP3    H180824   0.246   0.942  12.789 -1.0729  1.1168  1.6060
19803TIP3    H280825   0.118   0.885  12.845 -0.7203 -3.1878 -1.4266
19804TIP3   OH280826   2.821   0.495   2.268 -0.6016 -0.1844  0.0284
19804TIP3    H180827   2.732   0.459   2.277 -0.7231  0.3416  1.1497
19804TIP3    H280828   2.876   0.434   2.317 -0.7701  0.9594  1.7093
19805TIP3   OH280829   0.595   4.856   1.141 -0.5633 -0.0746 -0.4181
19805TIP3    H180830   0.624   4.788   1.080  1.1105  0.6505 -0.4918
19805TIP3    H280831   0.675   4.901   1.166 -1.2208 -0.1350  2.1059
19806TIP3   OH280832   1.008   5.930  11.449 -0.3802  0.1947 -0.0021
19806TIP3    H180833   0.991   6.001  11.511 -1.7107 -0.0094 -0.1187
19806TIP3    H280834   1.044   5.860  11.502  0.0491  0.6075  0.2645
19807TIP3   OH280835   3.560   0.257   4.966 -0.0665 -0.4614 -0.1511
19807TIP3    H180836   3.473   0.267   5.005 -1.0325 -0.3123 -2.2490
19807TIP3    H280837   3.600   0.185   5.016 -2.0963 -1.7818 -0.3147
19808TIP3   OH280838   5.624   1.119   0.074 -0.2517 -0.2101  0.0445
19808TIP3    H180839   5.599   1.206   0.106  1.6414  0.6869 -0.7975
19808TIP3    H280840   5.616   1.126  -0.021 -0.8509 -1.2296  0.0075
19809TIP3   OH280841   5.098   4.862  15.057 -0.3762 -0.1748 -0.1581
19809TIP3    H180842   5.139   4.937  15.014 -1.3049  0.3928 -0.0931
19809TIP3    H280843   5.055   4.815  14.986 -1.1556  0.2686 -0.0002
19810TIP3   OH280844   5.151   1.032  15.818 -0.4132  0.0866 -0.1656
19810TIP3    H180845   5.131   0.940  15.801  0.5228  0.1277 -1.7347
19810TIP3    H280846   5.224   1.030  15.880 -0.3187 -0.2448 -0.2868
19811TIP3   OH280847   1.411   0.081   1.638 -0.1267 -0.0417 -0.4694
19811TIP3    H180848   1.342   0.141   1.666  0.4636  0.3536  0.1530
19811TIP3    H280849   1.486   0.138   1.618  0.1909 -0.5060 -0.6230
19812TIP3   OH280850   1.614   5.664   2.329 -0.5078 -0.2731  0.6216
19812TIP3    H180851   1.670   5.739   2.349 -0.3867 -0.0078 -0.6123
19812TIP3    H280852   1.674   5.593   2.307 -0.5811  0.3711 -1.9806
19813TIP3   OH280853   2.408   2.710   2.005 -0.0484 -0.0679  0.2263
19813TIP3    H180854   2.399   2.625   1.961 -0.8318 -0.4969  1.1679
19813TIP3    H280855   2.358   2.700   2.086 -0.6171  1.4929  0.0867
19814TIP3   OH280856   1.194   6.711   3.205 -0.8654  0.6133 -0.0691
19814TIP3    H180857   1.220   6.626   3.169 -0.5123  0.4415  0.5823
19814TIP3    H280858   1.178   6.765   3.128 -0.3077  0.1918 -0.4901
19815TIP3   OH280859   4.854   5.727  14.639  0.3454  0.1478 -0.6046
19815TIP3    H180860   4.768   5.762  14.662  0.3975  1.1642 -1.8225
19815TIP3    H280861   4.916   5.791  14.671  0.4610  1.0803 -2.5403
19816TIP3   OH280862   0.406   2.390  13.756 -0.5392  0.4410  0.2633
19816TIP3    H180863   0.442   2.329  13.692 -0.3243 -0.2082  0.9883
19816TIP3    H280864   0.360   2.335  13.819 -1.7725  1.1656  0.0273
19817TIP3   OH280865   0.571   1.176  15.355  0.5804 -0.1809 -0.0352
19817TIP3    H180866   0.525   1.167  15.439 -1.9741  0.1169 -1.2910
19817TIP3    H280867   0.630   1.250  15.368  1.3625 -1.0684  1.9034
19818TIP3   OH280868   2.406   4.559  11.551 -0.2810  0.1329  0.8595
19818TIP3    H180869   2.358   4.530  11.629 -1.3288 -2.1169 -0.5361
19818TIP3    H280870   2.498   4.558  11.578 -0.6763  0.2751  2.3127
19819TIP3   OH280871   3.857   5.516   4.753 -0.3084  0.0862 -0.8913
19819TIP3    H180872   3.831   5.478   4.837 -0.6507  1.0357 -0.5453
19819TIP3    H280873   3.896   5.444   4.704  1.5427 -0.0895  0.7549
19820TIP3   OH280874   2.419   6.363   4.718 -0.6412 -0.0089 -0.2653
19820TIP3    H180875   2.501   6.396   4.756 -0.4387 -0.6509 -0.1177
19820TIP3    H280876   2.360   6.356   4.793 -0.5025 -0.4993 -0.1956
19821TIP3   OH280877   0.681   6.186  15.005 -0.4542 -0.4710  0.6117
19821TIP3    H180878   0.633   6.124  14.951  2.4926 -2.4348  0.0132
19821TIP3    H280879   0.701   6.259  14.947 -0.3695 -0.9199  0.0672
19822TIP3   OH280880   3.468   1.692   2.770  0.4954  0.1230  0.4131
19822TIP3    H180881   3.484   1.667   2.679  1.2624  0.9405  0.3128
19822TIP3    H280882   3.382   1.735   2.768 -0.2439 -1.2926  0.3721
19823TIP3   OH280883   6.636   1.684   4.638 -0.0130 -0.2137  0.0359
19823TIP3    H180884   6.631   1.718   4.728  2.2164 -1.7480  0.8152
19823TIP3    H280885   6.663   1.759   4.585  0.1915  0.3412  0.9065
19824TIP3   OH280886   0.630   2.396  13.495 -0.1970 -0.0061 -0.3551
19824TIP3    H180887   0.644   2.323  13.434 -1.6760 -1.1136  0.5541
19824TIP3    H280888   0.714   2.407  13.540 -0.2007 -1.8076  0.1591
19825TIP3   OH280889   6.259   5.851  10.609  0.3960  0.0306  0.0663
19825TIP3    H180890   6.210   5.848  10.527  1.2902  1.3706 -0.5453
19825TIP3    H280891   6.346   5.882  10.584  0.8812 -0.1634  1.4403
19826TIP3   OH280892   6.380   0.538  14.015  0.3024 -0.3628  0.0545
19826TIP3    H180893   6.444   0.476  13.981 -0.4485 -0.7214 -0.7272
19826TIP3    H280894   6.424   0.623  14.008  0.5527 -0.5596 -0.8342
19827TIP3   OH280895   3.043   5.518   1.527 -0.0360 -0.2112 -0.3399
19827TIP3    H180896   3.040   5.425   1.505  2.5929 -0.1006 -1.5081
19827TIP3    H280897   3.060   5.519   1.621  0.6535 -0.9361 -0.4441
19828TIP3   OH280898   6.591   3.819  14.335 -0.0705 -0.1778 -0.0028
19828TIP3    H180899   6.551   3.754  14.393  1.2356 -1.4574 -0.4715
19828TIP3    H280900   6.639   3.877  14.393  0.0894 -0.6128  0.3002
19829TIP3   OH280901   0.571   4.698  15.813  0.2496 -0.3067 -0.7505
19829TIP3    H180902   0.516   4.623  15.835 -0.3009  0.3374  0.1404
19829TIP3    H280903   0.579   4.695  15.717  0.8486 -1.9065 -0.6878
19830TIP3   OH280904   4.971   2.592   0.005  0.8361 -0.2730  0.2966
19830TIP3    H180905   4.941   2.640  -0.072  0.4339 -0.6819  0.1954
19830TIP3    H280906   5.044   2.645   0.039  0.3487  0.4487  0.2433
19831TIP3   OH280907   6.865   4.801   3.216  0.0287 -0.8273 -0.4824
19831TIP3    H180908   6.904   4.769   3.135  1.4637  0.2161 -0.2527
19831TIP3    H280909   6.921   4.765   3.285 -0.7033 -1.0625 -0.0079
19832TIP3   OH280910   5.714   5.898  10.409 -0.2611  0.0227 -0.3164
19832TIP3    H180911   5.766   5.822  10.384  0.1735  0.6103 -1.2640
19832TIP3    H280912   5.666   5.922  10.330 -0.1109  0.9507 -0.1434
19833TIP3   OH280913   1.817   3.816   3.564  0.6447  0.5507 -0.1227
19833TIP3    H180914   1.774   3.740   3.602  1.5291  0.6540  1.1365
19833TIP3    H280915   1.834   3.792   3.473 -1.0404  0.0951 -0.3512
19834TIP3   OH280916   4.826   0.350  14.385  0.4995  0.4209 -0.1064
19834TIP3    H180917   4.919   0.369  14.372  0.3550  1.2116 -0.0781
19834TIP3    H280918   4.814   0.357  14.480  0.1865  1.4769 -0.2145
19835TIP3   OH280919   4.546   5.384   2.374 -0.6416  0.2230 -0.3767
19835TIP3    H180920   4.633   5.388   2.334  0.0842 -1.8680  0.8466
19835TIP3    H280921   4.543   5.459   2.433 -0.2893  1.1940 -1.5441
19836TIP3   OH280922   2.920   1.329  16.024 -0.1285 -0.6302 -0.5648
19836TIP3    H180923   2.883   1.361  16.107 -0.8521 -2.4024 -0.1550
19836TIP3    H280924   2.843   1.317  15.968  0.3960  1.0234 -1.7190
19837TIP3   OH280925   2.177   1.522  11.597  0.6620  0.4459 -0.3692
19837TIP3    H180926   2.147   1.450  11.541  3.8869  0.1025 -1.8982
19837TIP3    H280927   2.237   1.481  11.659  1.6430  1.6217 -0.4993
19838TIP3   OH280928   5.478   0.885  11.305 -0.2667  0.3016  0.3622
19838TIP3    H180929   5.450   0.798  11.331  1.3852 -0.8413 -1.4092
19838TIP3    H280930   5.550   0.907  11.364  1.4535 -0.9733 -1.1728
19839TIP3   OH280931   2.843   1.425  11.280 -0.0622  0.9507  0.3435
19839TIP3    H180932   2.772   1.475  11.320 -1.8194 -0.8364 -0.3566
19839TIP3    H280933   2.902   1.405  11.353 -2.2233 -0.6535  1.7719
19840TIP3   OH280934   1.912   5.944   2.521  0.2130 -0.0290  0.2783
19840TIP3    H180935   1.931   6.007   2.452  1.8409  1.6849  2.1733
19840TIP3    H280936   1.993   5.894   2.530 -0.3632 -0.9885  0.2304
19841TIP3   OH280937   5.726   3.977  15.761  0.2082 -0.1860 -0.6200
19841TIP3    H180938   5.784   3.996  15.835 -1.4458 -0.2461  0.7655
19841TIP3    H280939   5.640   4.005  15.791 -0.2933  1.3645 -3.1873
19842TIP3   OH280940   1.740   0.895  10.777  0.2899  0.3631 -0.1284
19842TIP3    H180941   1.834   0.908  10.770  0.1741  1.1027 -0.4271
19842TIP3    H280942   1.726   0.859  10.864  1.0478 -1.7455 -0.8311
19843TIP3   OH280943   4.675   6.362   5.633 -0.0260  0.4140 -0.4542
19843TIP3    H180944   4.601   6.309   5.662 -0.7563  0.6868 -1.7810
19843TIP3    H280945   4.725   6.378   5.713 -0.5520 -1.0642  0.2151
19844TIP3   OH280946   1.963   2.113  11.384 -0.0959 -0.4056 -0.5717
19844TIP3    H180947   2.046   2.090  11.425  0.2279 -0.2915 -1.1540
19844TIP3    H280948   1.987   2.150  11.299 -0.7029  0.3393 -0.4283
19845TIP3   OH280949   3.224   6.803   2.060  0.2021  0.4278  0.2653
19845TIP3    H180950   3.159   6.864   2.095  0.3600  0.2456  0.8854
19845TIP3    H280951   3.201   6.719   2.098  0.8380  0.3720  0.5307
19846TIP3   OH280952   5.952   2.171   3.919  0.2125  1.2640  0.2529
19846TIP3    H180953   6.042   2.182   3.890  0.8201 -0.7700  1.1342
19846TIP3    H280954   5.955   2.186   4.013 -0.5364  1.9395  0.1773
19847TIP3   OH280955   2.367   4.191   5.786  0.3133 -0.5083 -0.0522
19847TIP3    H180956   2.416   4.123   5.740  0.2271 -2.1484  2.1006
19847TIP3    H280957   2.421   4.211   5.863 -0.3195  0.9248  0.0593
19848TIP3   OH280958   3.693   4.612   0.948 -0.3798 -1.0634  0.2264
19848TIP3    H180959   3.756   4.667   0.901 -1.8667  1.5136  1.0212
19848TIP3    H280960   3.730   4.524   0.945  1.9904 -0.1053 -1.4395
19849TIP3   OH280961   0.484   4.485   3.724 -0.4506  0.0529 -0.6100
19849TIP3    H180962   0.549   4.468   3.792 -2.4454 -1.6558  1.0148
19849TIP3    H280963   0.534   4.488   3.642  1.7398 -0.2417  0.6484
19850TIP3   OH280964   4.341   1.554   4.488 -0.0100 -0.0095  0.0323
19850TIP3    H180965   4.394   1.478   4.463 -1.3473 -0.8998 -0.2488
19850TIP3    H280966   4.251   1.521   4.486 -0.5055  1.1448  1.5718
19851TIP3   OH280967   5.728   0.349  13.257 -0.0669 -0.2030  0.6546
19851TIP3    H180968   5.803   0.346  13.316  1.1913 -2.0120 -0.8983
19851TIP3    H280969   5.753   0.413  13.190  1.6638 -3.0024 -1.6250
19852TIP3   OH280970   1.561   5.763  10.922  0.6939  0.3880 -0.1152
19852TIP3    H180971   1.588   5.821  10.993  1.2451  0.8863 -0.7185
19852TIP3    H280972   1.640   5.715  10.899  0.2225 -0.6783  0.4317
19853TIP3   OH280973   3.155   4.112   2.702  0.0786 -0.5658 -0.1988
19853TIP3    H180974   3.072   4.158   2.686  0.5664  0.3967 -0.0450
19853TIP3    H280975   3.144   4.028   2.658 -1.3333 -0.8493  0.6104
19854TIP3   OH280976   3.334   5.462  15.247 -0.6069  0.4646  0.4318
19854TIP3    H180977   3.422   5.501  15.244 -0.7966  0.8406 -0.7558
19854TIP3    H280978   3.333   5.411  15.328  0.3638  1.2603  0.9630
19855TIP3   OH280979   1.196   0.007   3.652 -0.2907  0.0941  0.1581
19855TIP3    H180980   1.179   0.006   3.746 -1.1731 -1.3987  0.0239
19855TIP3    H280981   1.264  -0.059   3.639 -0.7843 -0.3211 -0.3447
19856TIP3   OH280982   0.148   2.576   2.854 -0.2566  0.2784  0.8273
19856TIP3    H180983   0.232   2.608   2.886 -0.4367  1.2488  0.3487
19856TIP3    H280984   0.160   2.481   2.845  0.0895  0.0653  2.8877
19857TIP3   OH280985   3.730   1.222   1.061 -0.0322  0.5536  0.8587
19857TIP3    H180986   3.723   1.167   0.983  0.5933  1.7634 -0.0850
19857TIP3    H280987   3.674   1.298   1.042  1.4102  1.6482  0.8718
19858TIP3   OH280988   2.197   5.242   1.214  0.5810  0.2677 -0.9562
19858TIP3    H180989   2.273   5.211   1.264  1.0023 -0.8469 -2.2063
19858TIP3    H280990   2.179   5.329   1.248  1.8955  0.2047 -0.0412
19859TIP3   OH280991   2.892   3.428   0.931  0.5252  1.0447 -0.1996
19859TIP3    H180992   2.970   3.404   0.982 -0.2447 -3.3098 -0.6141
19859TIP3    H280993   2.826   3.448   0.997  1.0164  1.0993  0.2863
19860TIP3   OH280994   2.190   4.525   1.741  0.0037 -0.2126 -0.0852
19860TIP3    H180995   2.110   4.501   1.788  0.4343 -1.8032 -0.1276
19860TIP3    H280996   2.226   4.442   1.710  1.8684  0.4276  0.2322
19861TIP3   OH280997   1.456   1.669   4.739 -0.1365 -0.3831 -0.8063
19861TIP3    H180998   1.485   1.592   4.788 -0.8509  0.7946  1.6537
19861TIP3    H280999   1.524   1.735   4.755  0.5273 -0.4642 -2.9723
19862TIP3   OH281000   0.195   1.481  15.132 -0.7296 -0.5663 -0.1888
19862TIP3    H181001   0.184   1.386  15.146 -1.6713 -0.1760  2.3599
19862TIP3    H281002   0.106   1.514  15.127 -0.4268  0.3394  0.3130
19863TIP3   OH281003   2.597   3.711  10.672 -0.2356  0.0539 -0.7562
19863TIP3    H181004   2.613   3.621  10.644 -0.8036 -0.0240 -0.8355
19863TIP3    H281005   2.512   3.733  10.634 -0.5752  0.2688  0.1167
19864TIP3   OH281006   5.235   5.129  12.461 -0.1111  0.2797 -0.0317
19864TIP3    H181007   5.257   5.048  12.506 -0.4543  0.2401  0.0682
19864TIP3    H281008   5.240   5.196  12.529 -0.6213  0.2208  0.0640
19865TIP3   OH281009   5.162   0.642   1.074  0.1033 -0.1272 -0.4483
19865TIP3    H181010   5.201   0.729   1.071 -0.2450  0.1076  1.0464
19865TIP3    H281011   5.079   0.650   1.027  0.0912  0.3337 -0.3460
19866TIP3   OH281012   4.495   1.264  11.716  0.1642  0.6339  0.0213
19866TIP3    H181013   4.410   1.258  11.672 -0.4348  0.4223  1.1556
19866TIP3    H281014   4.492   1.195  11.783  0.2953  2.0917  1.5882
19867TIP3   OH281015   3.119   6.785   1.131 -0.4087 -0.4547  0.1421
19867TIP3    H181016   3.186   6.726   1.165 -0.9074 -0.2941  1.4276
19867TIP3    H281017   3.102   6.846   1.202 -1.4911 -0.1135 -0.3915
19868TIP3   OH281018   6.306   5.261  14.385 -0.6076  0.2271 -0.7429
19868TIP3    H181019   6.285   5.354  14.397 -1.6160 -0.1495  0.6206
19868TIP3    H281020   6.402   5.260  14.376 -0.4868  1.3222  0.0922
19869TIP3   OH281021   2.338   3.070  10.101  0.1915  0.3520 -0.0709
19869TIP3    H181022   2.324   3.115  10.017 -0.7228 -0.2141 -0.2365
19869TIP3    H281023   2.364   3.140  10.161 -2.2817  1.3560 -0.0466
19870TIP3   OH281024   2.225   0.119  15.257  0.0412 -0.4368 -0.3699
19870TIP3    H181025   2.260   0.136  15.345 -0.1541 -0.4039 -0.2973
19870TIP3    H281026   2.142   0.074  15.273 -1.3809  1.9619 -0.4478
19871TIP3   OH281027   1.879   5.486  11.317  0.2307  0.5694  0.2541
19871TIP3    H181028   1.892   5.549  11.388 -0.1775  1.7936 -0.7254
19871TIP3    H281029   1.958   5.432  11.318 -0.2488 -0.1698  2.3383
19872TIP3   OH281030   3.164   1.116  13.870 -0.3067 -0.2996  0.6043
19872TIP3    H181031   3.188   1.106  13.778  1.4652 -1.1258  1.1210
19872TIP3    H281032   3.071   1.091  13.873 -1.0702  1.9297 -1.2858
19873TIP3   OH281033   5.262   0.435  11.584 -0.5643  0.3246  0.0306
19873TIP3    H181034   5.269   0.410  11.676  0.9700 -0.0850 -0.1581
19873TIP3    H281035   5.194   0.378  11.548  1.1905 -1.9923  0.1634
19874TIP3   OH281036   2.984   5.345   2.324  0.0250 -0.1376  0.3450
19874TIP3    H181037   3.007   5.253   2.311  2.2333  0.4432 -0.3401
19874TIP3    H281038   3.069   5.390   2.327 -0.9851  1.8256  1.1449
19875TIP3   OH281039   6.372   2.886  12.661  0.0547  0.4857 -0.1403
19875TIP3    H181040   6.467   2.885  12.672 -0.0945 -1.2225  1.5780
19875TIP3    H281041   6.341   2.944  12.730 -0.2741 -1.7134  1.6934
19876TIP3   OH281042   0.695   1.094  11.259  0.4961 -0.4968 -0.4724
19876TIP3    H181043   0.670   1.014  11.213  0.3656 -1.3838  1.0455
19876TIP3    H281044   0.695   1.069  11.352 -1.0545  1.6399  0.2038
19877TIP3   OH281045   6.676   6.729  10.750 -0.1857  0.8449 -0.3970
19877TIP3    H181046   6.753   6.742  10.804 -0.2961 -0.4703  0.0975
19877TIP3    H281047   6.602   6.752  10.806 -0.3105 -0.6847  0.0935
19878TIP3   OH281048   3.843   6.016  14.903  0.1229 -0.0530  0.0476
19878TIP3    H181049   3.837   5.983  14.814  1.0902  0.7213 -0.3235
19878TIP3    H281050   3.923   6.069  14.904 -0.1916  0.4367  1.2112
19879TIP3   OH281051   3.263   2.668  12.662 -0.5182  0.3203 -0.2477
19879TIP3    H181052   3.355   2.676  12.688 -1.0013  0.9622  1.4097
19879TIP3    H281053   3.215   2.718  12.728 -1.9787  0.9595 -1.7268
19880TIP3   OH281054   4.495   5.236   2.897 -0.3452 -0.4819  1.1514
19880TIP3    H181055   4.577   5.195   2.923  0.5646  1.3744  1.3594
19880TIP3    H281056   4.494   5.320   2.944 -0.2918  1.4604 -2.0055
19881TIP3   OH281057   6.077   3.213  13.223  0.8375 -0.0340 -0.0578
19881TIP3    H181058   6.100   3.278  13.289 -0.4672 -0.2867  0.6914
19881TIP3    H281059   6.131   3.235  13.147  1.0315  1.4072  0.4670
19882TIP3   OH281060   1.424   1.581   3.839  0.3936 -0.4841 -0.2402
19882TIP3    H181061   1.417   1.556   3.747 -1.6434 -1.4424  0.1153
19882TIP3    H281062   1.517   1.602   3.852  0.5558  0.6770 -2.7368
19883TIP3   OH281063   0.742   3.268  10.875  0.0578 -0.3500 -0.0253
19883TIP3    H181064   0.836   3.250  10.881  0.5522  1.6168 -1.0177
19883TIP3    H281065   0.724   3.323  10.951 -0.2730 -0.6296  0.0987
19884TIP3   OH281066   4.657   2.965  12.559 -0.0583  0.2121 -0.0977
19884TIP3    H181067   4.580   3.021  12.555  1.8150  2.9221 -1.7485
19884TIP3    H281068   4.649   2.908  12.482 -0.1339  0.9900 -0.6910
19885TIP3   OH281069   6.791   5.687  16.256 -0.2058 -0.7623  0.1646
19885TIP3    H181070   6.880   5.701  16.289  0.5332 -3.7249 -0.3488
19885TIP3    H281071   6.735   5.696  16.333  0.4117  1.5291  0.4250
19886TIP3   OH281072   5.727   4.512   4.495  0.1718 -0.5159 -0.6538
19886TIP3    H181073   5.757   4.603   4.491  0.0101 -0.4796 -1.0655
19886TIP3    H281074   5.650   4.509   4.438 -1.0563 -0.4411  0.9214
19887TIP3   OH281075   1.652   6.493  10.529  0.3440 -0.1613 -0.5869
19887TIP3    H181076   1.686   6.574  10.566  0.5479 -0.9073  0.9520
19887TIP3    H281077   1.701   6.481  10.447  1.2986  0.5702 -0.1431
19888TIP3   OH281078   5.744   6.603   4.743  0.4729 -0.2317 -0.1341
19888TIP3    H181079   5.741   6.652   4.826 -3.0645  0.5943 -0.5910
19888TIP3    H281080   5.765   6.669   4.677  2.0057 -0.6385 -0.0766
19889TIP3   OH281081   2.249   6.611  15.013 -0.8661 -0.1145  0.5045
19889TIP3    H181082   2.266   6.704  14.999 -2.9676  0.1039 -1.1284
19889TIP3    H281083   2.228   6.604  15.106 -2.2382  1.3598  0.3490
19890TIP3   OH281084   6.246   1.590   3.725  0.2188 -0.5224 -0.4308
19890TIP3    H181085   6.321   1.636   3.688 -0.2439  0.7328  0.1402
19890TIP3    H281086   6.185   1.659   3.751 -1.8902 -1.5342 -2.3539
19891TIP3   OH281087   6.735   0.846   3.513 -0.3629 -0.6420  0.2999
19891TIP3    H181088   6.721   0.760   3.551  1.5935 -1.1431  0.0226
19891TIP3    H281089   6.700   0.839   3.424  0.0258 -1.2495  0.1894
19892TIP3   OH281090   0.642   1.822  15.451  0.0941 -0.3345  0.4774
19892TIP3    H181091   0.608   1.732  15.448 -1.7614  0.3206  0.5910
19892TIP3    H281092   0.576   1.871  15.500  1.5349  0.9228  1.2287
19893TIP3   OH281093   4.284   1.748  12.362 -0.1388 -0.1697 -0.9121
19893TIP3    H181094   4.345   1.742  12.289  0.2050  0.7925 -0.7266
19893TIP3    H281095   4.210   1.693  12.337 -0.2113  0.4764 -2.1734
19894TIP3   OH281096   3.066   1.730   2.273  0.7183 -0.1482 -0.3443
19894TIP3    H181097   3.066   1.731   2.177 -1.0682  0.6734 -0.3863
19894TIP3    H281098   3.075   1.637   2.295  1.7036 -0.2990 -1.2711
19895TIP3   OH281099   0.301   6.085  14.820 -0.4940  0.3548  0.6447
19895TIP3    H181100   0.225   6.101  14.877 -1.7013  0.2813 -0.8755
19895TIP3    H281101   0.280   6.132  14.739 -0.3432 -2.1532 -0.9361
19896TIP3   OH281102   2.156   1.456   2.008 -0.1684  0.4865  0.1843
19896TIP3    H181103   2.136   1.369   2.043  1.8344 -0.2143 -0.3266
19896TIP3    H281104   2.074   1.484   1.967 -0.5730 -1.5724 -0.5133
19897TIP3   OH281105   1.594   2.656  13.298  0.2755  0.0545  0.2673
19897TIP3    H181106   1.643   2.602  13.360  0.5845 -0.0035 -0.0294
19897TIP3    H281107   1.535   2.594  13.254  1.5362 -0.2972 -1.0026
19898TIP3   OH281108   3.716   0.053   3.719  0.0861  0.6676  0.0711
19898TIP3    H181109   3.627   0.086   3.710 -0.3315 -0.4627 -0.1090
19898TIP3    H281110   3.709  -0.021   3.779  1.0347  1.0287  0.6601
19899TIP3   OH281111   0.451   4.389  14.697 -0.2601 -0.4313  0.0759
19899TIP3    H181112   0.489   4.307  14.666 -2.4017 -1.4367 -0.0937
19899TIP3    H281113   0.450   4.445  14.620 -1.9997 -1.5441 -0.7742
19900TIP3   OH281114   2.081   2.667  12.254  0.0402  0.4907 -0.4116
19900TIP3    H181115   2.032   2.734  12.206 -0.3659  0.6436  0.1996
19900TIP3    H281116   2.161   2.655  12.204 -0.4807  0.4675 -1.2660
19901TIP3   OH281117   5.315   3.066  15.147  0.2568  0.1789 -0.6549
19901TIP3    H181118   5.371   3.115  15.087  1.5320 -0.7017 -0.2175
19901TIP3    H281119   5.320   3.113  15.230  1.2997 -0.5323 -0.2977
19902TIP3   OH281120   4.257   6.590   0.480 -0.0481 -0.4752  0.4197
19902TIP3    H181121   4.252   6.600   0.575 -0.0129 -0.6497  0.4391
19902TIP3    H281122   4.202   6.661   0.446 -1.2678 -1.2935  0.6000
19903TIP3   OH281123   0.192   5.862  13.783 -0.0352  0.7218  0.2102
19903TIP3    H181124   0.180   5.940  13.728 -0.2563  1.4909  1.3229
19903TIP3    H281125   0.106   5.820  13.784 -0.8196  2.2366  2.2036
19904TIP3   OH281126   5.392   3.836   4.092  0.2820 -0.6170 -0.0811
19904TIP3    H181127   5.459   3.870   4.033  1.3062 -0.1596  1.3053
19904TIP3    H281128   5.332   3.788   4.034  0.7809  0.4830 -1.5957
19905TIP3   OH281129   2.458   6.097   2.002 -0.6674  0.3829 -0.1630
19905TIP3    H181130   2.454   6.094   1.906  1.6813 -0.1617 -0.3231
19905TIP3    H281131   2.507   6.178   2.021  0.2439 -0.2921  0.4636
19906TIP3   OH281132   0.338   5.207  11.985  0.1406 -0.0418 -0.0490
19906TIP3    H181133   0.300   5.292  12.006  1.1871  0.6449 -0.8019
19906TIP3    H281134   0.418   5.203  12.038 -0.1430 -0.7779  0.3410
19907TIP3   OH281135   2.075   2.588  14.783 -0.2456  0.1683  0.1199
19907TIP3    H181136   1.988   2.625  14.792  0.1893  1.3086 -0.2245
19907TIP3    H281137   2.104   2.615  14.696  0.8577  0.7116  0.6375
19908TIP3   OH281138   3.654   4.007  12.600 -0.3840  0.0883 -0.2769
19908TIP3    H181139   3.699   4.066  12.540  0.3115  0.7499  0.8404
19908TIP3    H281140   3.593   3.958  12.545 -0.0822  0.9602 -1.4381
19909TIP3   OH281141   3.497   2.565  10.898 -0.3099 -0.2006 -0.4853
19909TIP3    H181142   3.509   2.633  10.832 -1.0276 -0.1597 -0.5811
19909TIP3    H281143   3.419   2.591  10.946  0.4239 -0.0319  0.6408
19910TIP3   OH281144   0.465   3.150   5.815  0.2040  0.0604 -0.2065
19910TIP3    H181145   0.419   3.068   5.796  2.0961 -1.1958  0.2960
19910TIP3    H281146   0.442   3.171   5.905  0.6028 -0.5799  0.0530
19911TIP3   OH281147   3.090   5.859   5.122 -0.4483  0.3482  0.2909
19911TIP3    H181148   3.183   5.863   5.146 -0.0228 -1.5858 -0.8475
19911TIP3    H281149   3.045   5.837   5.203  0.1199  0.9132  0.7709
19912TIP3   OH281150   5.240   2.086   1.808 -0.2383 -0.2959  0.5202
19912TIP3    H181151   5.299   2.108   1.736  1.1962 -0.7283  1.4953
19912TIP3    H281152   5.155   2.071   1.767  0.1271  1.1538 -0.8510
19913TIP3   OH281153   0.786   4.051   0.926 -0.2223 -0.5396 -0.0994
19913TIP3    H181154   0.848   3.988   0.889  0.6407 -1.2461  2.3542
19913TIP3    H281155   0.702   4.026   0.887  0.8499  0.2229 -3.2253
19914TIP3   OH281156   0.869   0.721   5.687 -0.3668  0.1210  0.1802
19914TIP3    H181157   0.929   0.652   5.656  1.7701  2.1357 -0.4892
19914TIP3    H281158   0.865   0.708   5.781  2.4839  0.8115  0.4986
19915TIP3   OH281159   1.569   1.322  13.506 -0.0687  0.2623 -0.2336
19915TIP3    H181160   1.589   1.234  13.539  1.3460  1.3229  2.0278
19915TIP3    H281161   1.592   1.319  13.414  4.2112 -0.6338  0.6682
19916TIP3   OH281162   1.381   5.929  16.279  0.0338  0.4782 -0.0881
19916TIP3    H181163   1.427   5.980  16.345  0.3909 -0.8909  0.7801
19916TIP3    H281164   1.337   5.993  16.224 -0.1574  1.6622  1.3962
19917TIP3   OH281165   1.697   0.460   1.928  0.1242 -0.0113 -0.9477
19917TIP3    H181166   1.677   0.553   1.937  1.9860  0.4347 -1.1724
19917TIP3    H281167   1.725   0.433   2.016 -0.7041 -0.4546 -0.8077
19918TIP3   OH281168   0.874   5.802  13.284 -0.1356  0.1993  0.6147
19918TIP3    H181169   0.955   5.839  13.250  0.2875 -0.0632  1.3132
19918TIP3    H281170   0.808   5.823  13.217  0.5107  0.3690  0.0143
19919TIP3   OH281171   2.660   5.991   4.726 -0.0342  0.4884 -0.1568
19919TIP3    H181172   2.579   5.988   4.676 -1.2230 -0.9927  1.7084
19919TIP3    H281173   2.668   6.081   4.757  0.4586  1.2917 -2.4849
19920TIP3   OH281174   2.573   0.961   2.178 -0.0264  0.0650  0.1988
19920TIP3    H181175   2.606   0.886   2.127 -0.7869  1.0771 -1.8961
19920TIP3    H281176   2.488   0.931   2.211 -0.5939  0.1426 -1.1097
19921TIP3   OH281177   3.597   3.473   0.316  0.3749  0.0789 -0.2815
19921TIP3    H181178   3.563   3.544   0.262  0.0139  0.2716  0.1974
19921TIP3    H281179   3.683   3.504   0.344 -0.2029  0.7768  0.7665
19922TIP3   OH281180   1.774   1.685  13.017 -0.1188 -0.2224 -0.2214
19922TIP3    H181181   1.866   1.697  13.041 -0.2903 -0.2263  0.4479
19922TIP3    H281182   1.755   1.594  13.038  0.4558 -1.0286 -2.8697
19923TIP3   OH281183   1.526   0.983   5.455  0.8449  0.3383  0.6247
19923TIP3    H181184   1.510   1.008   5.546  1.6873  3.1913  0.0918
19923TIP3    H281185   1.438   0.970   5.418  0.5032 -1.2926  1.8886
19924TIP3   OH281186   1.789   2.144   4.191  1.0245 -0.5443  0.6134
19924TIP3    H181187   1.820   2.212   4.131  0.9349 -0.5032  0.6137
19924TIP3    H281188   1.737   2.191   4.257  2.1781 -0.4158  1.4681
19925TIP3   OH281189   5.228   2.275   2.064  0.0502 -0.1029 -0.5408
19925TIP3    H181190   5.230   2.212   1.992  0.5950 -1.5276  0.6832
19925TIP3    H281191   5.145   2.258   2.108 -0.8380  1.5634 -1.4692
19926TIP3   OH281192   2.095   5.786   1.566  0.0228  0.0814  0.9494
19926TIP3    H181193   2.035   5.767   1.638 -0.4644  0.7667  0.7273
19926TIP3    H281194   2.040   5.788   1.488  0.5336 -0.5611  0.5558
19927TIP3   OH281195   6.613   0.656  14.090  0.2487 -0.3640 -0.5526
19927TIP3    H181196   6.651   0.622  14.172  0.8235  0.0540 -0.6386
19927TIP3    H281197   6.658   0.607  14.021 -0.0072 -0.4906 -0.6311
19928TIP3   OH281198   3.742   4.009   3.470  0.1003 -0.0856  0.2247
19928TIP3    H181199   3.731   4.072   3.398  0.9170  0.5729  0.6539
19928TIP3    H281200   3.831   4.025   3.501 -0.6698  0.5475  2.2407
19929TIP3   OH281201   1.761   1.588  14.091 -0.0880 -0.5884  0.6255
19929TIP3    H181202   1.679   1.611  14.135 -1.8480 -0.5562 -2.3704
19929TIP3    H281203   1.778   1.663  14.033  1.0547 -1.3764 -0.0964
19930TIP3   OH281204   6.887   6.355   1.263  0.6372 -0.3071 -0.3027
19930TIP3    H181205   6.894   6.345   1.358  0.5669  0.6281 -0.1883
19930TIP3    H281206   6.978   6.350   1.232  0.5337 -2.6431 -0.4425
19931TIP3   OH281207   5.623   4.243   5.521 -0.1963  0.3543 -0.2469
19931TIP3    H181208   5.671   4.326   5.524 -0.6081  0.5733  0.5688
19931TIP3    H281209   5.670   4.191   5.455 -0.0893  1.3204 -0.9653
19932TIP3   OH281210   5.590   6.858   4.716 -0.2322 -0.7224  0.7232
19932TIP3    H181211   5.503   6.892   4.737 -0.2338 -0.5195  0.4053
19932TIP3    H281212   5.595   6.865   4.620  0.6827  0.6236  0.8411
19933TIP3   OH281213   2.982   4.370   4.794  0.4651  0.0789 -0.4437
19933TIP3    H181214   3.043   4.426   4.746 -1.4561  2.2252 -0.5580
19933TIP3    H281215   3.027   4.351   4.877  1.8435  0.3586 -1.0979
19934TIP3   OH281216   5.947   3.139   1.667 -0.4339  0.3512  0.5337
19934TIP3    H181217   5.940   3.092   1.750 -1.3046  1.4270  1.0896
19934TIP3    H281218   5.983   3.074   1.606  0.6189 -0.3365  1.8330
19935TIP3   OH281219   1.046   5.853  16.288  0.5585  0.3083 -0.4090
19935TIP3    H181220   1.069   5.943  16.265  2.0602 -0.2639 -1.3476
19935TIP3    H281221   1.131   5.809  16.297 -0.1277 -0.8221  0.8505
19936TIP3   OH281222   4.566   4.349   9.975  0.2912 -0.0644  0.0133
19936TIP3    H181223   4.514   4.428   9.965 -1.0919 -1.0160 -0.6248
19936TIP3    H281224   4.506   4.285  10.014  1.2439 -0.9241  0.1312
19937TIP3   OH281225   2.534   0.568  12.469 -0.6212 -0.4886  0.2736
19937TIP3    H181226   2.519   0.647  12.416  0.3647 -1.4811 -1.5941
19937TIP3    H281227   2.629   0.563  12.478 -0.4453 -2.7192 -1.7877
19938TIP3   OH281228   4.350   4.135   1.147 -0.7651  0.1253 -0.1924
19938TIP3    H181229   4.257   4.111   1.143 -0.2897 -1.7508 -1.3556
19938TIP3    H281230   4.351   4.229   1.128 -2.4195  0.2017 -0.0781
19939TIP3   OH281231   0.967   4.115   2.370 -0.2500  0.7476  0.2998
19939TIP3    H181232   0.985   4.054   2.442  0.9635  0.5165 -0.1785
19939TIP3    H281233   0.932   4.060   2.300 -1.7012  1.0130  0.7901
19940TIP3   OH281234   6.459   4.233   4.607 -0.0633  0.5064 -0.2806
19940TIP3    H181235   6.523   4.196   4.547  0.4782  0.1125  0.5301
19940TIP3    H281236   6.376   4.227   4.559  0.5421  1.4297 -1.5209
19941TIP3   OH281237   0.373   5.134  10.477  0.1709  0.4202 -0.8986
19941TIP3    H181238   0.319   5.191  10.422 -0.5289 -0.6881 -1.4096
19941TIP3    H281239   0.434   5.093  10.415 -0.2279 -0.3890 -0.7676
19942TIP3   OH281240   6.789   1.567  11.723 -0.5997 -0.0780 -0.7820
19942TIP3    H181241   6.765   1.644  11.775  0.7747  0.4394 -0.8692
19942TIP3    H281242   6.709   1.515  11.718 -0.9287  0.1561  1.3340
19943TIP3   OH281243   1.505   6.754  11.211  0.1559  0.2569  0.2032
19943TIP3    H181244   1.480   6.663  11.229  4.0478 -1.3146 -1.1824
19943TIP3    H281245   1.436   6.786  11.152 -0.5410 -2.4047 -0.5933
19944TIP3   OH281246   2.008   4.723  13.613  0.6258  0.0179  0.0163
19944TIP3    H181247   2.061   4.723  13.534  0.5461  0.0464 -0.0375
19944TIP3    H281248   1.994   4.816  13.633 -1.0332  0.0523 -1.0635
19945TIP3   OH281249   6.880   1.278  15.341 -0.4157 -0.4276 -0.0179
19945TIP3    H181250   6.915   1.364  15.320 -0.5807 -0.5151 -0.6607
19945TIP3    H281251   6.844   1.288  15.430  1.9000 -0.5348  1.0141
19946TIP3   OH281252   5.311   2.704   4.225  0.2402 -0.0821  0.1831
19946TIP3    H181253   5.317   2.799   4.221 -0.9141 -0.0041 -0.3151
19946TIP3    H281254   5.340   2.675   4.138 -1.6973  0.0085 -0.5584
19947TIP3   OH281255   0.406   0.914  10.602  0.1656 -0.0471 -0.2344
19947TIP3    H181256   0.466   0.849  10.566  0.1724  0.8551 -1.9753
19947TIP3    H281257   0.354   0.943  10.527 -0.6736  1.0744  0.7310
19948TIP3   OH281258   5.901   3.789  16.236 -0.1619 -0.0156 -0.0934
19948TIP3    H181259   5.917   3.733  16.312  0.8476 -0.1253 -0.3744
19948TIP3    H281260   5.929   3.876  16.265 -0.7989  0.1588  0.0147
19949TIP3   OH281261   6.113   4.050   3.923 -0.4623 -0.4142  0.3211
19949TIP3    H181262   6.054   3.980   3.895 -0.4838 -1.1719  2.1156
19949TIP3    H281263   6.058   4.109   3.974 -0.6834  1.5637 -2.0203
19950TIP3   OH281264   0.636   6.608   4.680 -0.6398  0.2082  0.4784
19950TIP3    H181265   0.697   6.665   4.634 -0.4663  0.1152  0.5905
19950TIP3    H281266   0.563   6.597   4.620  0.1978 -1.0430 -0.3510
19951TIP3   OH281267   6.597   2.598  11.423 -0.0813 -0.0730  0.5500
19951TIP3    H181268   6.621   2.667  11.485 -2.1485  1.5377 -0.3176
19951TIP3    H281269   6.617   2.516  11.469  2.6318  1.0319  1.5526
19952TIP3   OH281270   4.873   2.994   4.437  0.2804  0.3720 -0.0826
19952TIP3    H181271   4.939   3.026   4.376  0.5772 -0.8133 -0.4022
19952TIP3    H281272   4.922   2.970   4.515  0.0594  0.6423  0.1441
19953TIP3   OH281273   3.885   0.350   2.091  0.6001 -0.2345  0.3170
19953TIP3    H181274   3.823   0.419   2.115 -0.6505 -1.1290 -0.2190
19953TIP3    H281275   3.839   0.268   2.112  1.1713 -0.9444 -1.0663
19954TIP3   OH281276   6.641   0.954  15.784 -0.8399  0.0827  0.0685
19954TIP3    H181277   6.691   0.990  15.710 -1.2199 -0.6158 -0.5496
19954TIP3    H281278   6.660   1.012  15.857  0.1874  0.3273 -0.3788
19955TIP3   OH281279   4.148   3.062   2.158  0.3710 -0.1863  0.0996
19955TIP3    H181280   4.123   3.088   2.247  0.8084  0.1442  0.1291
19955TIP3    H281281   4.113   3.131   2.102  0.4384 -0.1866  0.0566
19956TIP3   OH281282   3.704   2.372  10.593 -0.0070 -0.4988 -0.0884
19956TIP3    H181283   3.728   2.423  10.516  0.4416  1.0782  1.0559
19956TIP3    H281284   3.630   2.319  10.564  1.2259 -1.2670 -2.0877
19957TIP3   OH281285   6.757   2.329   3.012 -0.0504  0.0013 -0.6124
19957TIP3    H181286   6.755   2.256   2.950 -1.9757 -1.2447  0.7758
19957TIP3    H281287   6.677   2.378   2.994  0.6101  1.0749 -0.7086
19958TIP3   OH281288   3.794   2.893  12.907  0.0459 -0.2121  0.2616
19958TIP3    H181289   3.761   2.927  12.824 -2.0659  0.3642  1.2515
19958TIP3    H281290   3.880   2.933  12.918 -0.4955  1.3043 -0.7200
19959TIP3   OH281291   0.156   5.530   5.722 -0.1845 -0.0455 -0.1042
19959TIP3    H181292   0.203   5.466   5.775 -0.2278  1.9876  2.6234
19959TIP3    H281293   0.217   5.604   5.715 -1.2009  0.7671 -0.6459
19960TIP3   OH281294   6.758   2.506   0.488  0.0268 -0.3638  0.8914
19960TIP3    H181295   6.691   2.572   0.470  1.6034  0.5251 -2.6015
19960TIP3    H281296   6.774   2.465   0.403  1.2331 -3.2390  2.3794
19961TIP3   OH281297   1.493   2.973  16.567 -0.7800  0.1048  0.6980
19961TIP3    H181298   1.442   2.925  16.632 -2.5904 -0.3036 -0.9479
19961TIP3    H281299   1.447   2.959  16.485  1.8835 -0.0956 -0.8694
19962TIP3   OH281300   5.331   5.634   2.254 -0.6842 -0.2825  0.0322
19962TIP3    H181301   5.257   5.575   2.269 -1.1762  0.2292 -0.3321
19962TIP3    H281302   5.303   5.690   2.181 -0.0257  0.0674  0.0374
19963TIP3   OH281303   5.035   5.059  12.804  0.0599  0.2080  0.3014
19963TIP3    H181304   4.945   5.026  12.807 -0.9856  2.3290 -2.7165
19963TIP3    H281305   5.029   5.149  12.833  1.1026  0.5194 -0.4054
19964TIP3   OH281306   2.044   5.044   4.391  0.1702  0.1628 -0.6611
19964TIP3    H181307   2.122   5.034   4.446  0.1939  0.5479 -0.6194
19964TIP3    H281308   2.078   5.054   4.303  0.0542 -3.8169 -1.3179
19965TIP3   OH281309   6.396   5.048   0.946 -0.2691  0.0462 -0.6104
19965TIP3    H181310   6.436   4.961   0.940  0.6100  0.3226  0.8300
19965TIP3    H281311   6.469   5.109   0.929 -0.5866  0.5193 -0.3055
19966TIP3   OH281312   1.182   2.575   2.470 -0.2542  0.2124  0.6488
19966TIP3    H181313   1.224   2.654   2.504  1.2555 -0.6064  0.7906
19966TIP3    H281314   1.207   2.507   2.533  2.0519 -1.2209 -1.6411
19967TIP3   OH281315   1.999   1.669  12.820  0.6933  0.1065 -0.7487
19967TIP3    H181316   2.086   1.644  12.790  0.0800  0.1511 -2.7161
19967TIP3    H281317   1.947   1.589  12.814  0.2135  0.4377 -1.1809
19968TIP3   OH281318   1.756   0.854   4.040 -0.4005  0.3601 -0.1702
19968TIP3    H181319   1.798   0.897   4.114  2.4130 -0.3054 -1.2459
19968TIP3    H281320   1.720   0.926   3.988  0.3002  1.0761  0.3061
19969TIP3   OH281321   1.728   0.679  15.097 -0.1378  0.4617 -0.3186
19969TIP3    H181322   1.744   0.745  15.030  0.7897  0.4525 -0.1169
19969TIP3    H281323   1.739   0.596  15.052  0.0172  0.4529 -0.2653
19970TIP3   OH281324   3.312   4.305   2.858  0.1514  0.0765 -0.5482
19970TIP3    H181325   3.263   4.244   2.802 -0.0747  0.5454 -0.8621
19970TIP3    H281326   3.273   4.391   2.840  1.1473  0.4723 -0.8860
19971TIP3   OH281327   4.794   5.411   0.942  0.7857  0.2710 -0.3284
19971TIP3    H181328   4.859   5.480   0.954 -0.9376  1.6820  1.6002
19971TIP3    H281329   4.748   5.434   0.862  0.7041  0.9696 -0.0879
19972TIP3   OH281330   4.038   6.355  11.016 -0.0634 -0.3773 -0.3514
19972TIP3    H181331   4.015   6.358  11.109  0.0937 -2.3124 -0.2158
19972TIP3    H281332   4.134   6.350  11.015 -0.0262  0.2727 -0.6562
19973TIP3   OH281333   0.915   3.536   0.482  0.2190 -0.1037 -0.3020
19973TIP3    H181334   0.956   3.622   0.490 -1.7869  0.8892 -0.0247
19973TIP3    H281335   0.828   3.554   0.447 -0.4424 -1.9623  0.2674
19974TIP3   OH281336   6.725   3.534  11.667  0.4051  0.6820  0.4454
19974TIP3    H181337   6.732   3.579  11.751 -2.0675  3.0605 -0.4850
19974TIP3    H281338   6.779   3.585  11.607  0.1803  0.4830  0.0634
19975TIP3   OH281339   2.278   3.463  13.321 -0.5795  0.5811 -0.1732
19975TIP3    H181340   2.203   3.424  13.366 -0.2477  0.2260  0.0742
19975TIP3    H281341   2.251   3.466  13.229 -0.7201  0.0287 -0.1545
19976TIP3   OH281342   6.205   6.681   1.843 -0.3342 -0.3362 -0.8981
19976TIP3    H181343   6.122   6.689   1.796 -1.4637 -1.7585  0.7372
19976TIP3    H281344   6.205   6.591   1.875  1.0924  0.1351  0.4969
19977TIP3   OH281345   4.028   4.357  12.507 -0.0791 -0.2758 -0.6793
19977TIP3    H181346   4.040   4.345  12.602 -1.1177  0.1316 -0.4864
19977TIP3    H281347   4.107   4.402  12.479  1.0629 -1.9574 -0.3312
19978TIP3   OH281348   6.466   0.561  16.185 -0.3089 -0.0472  0.1159
19978TIP3    H181349   6.464   0.657  16.193 -1.1940 -0.0220 -0.3254
19978TIP3    H281350   6.457   0.530  16.275  3.4262  0.2559  0.7487
19979TIP3   OH281351   2.568   3.630  13.172 -0.1997 -0.3906  0.1943
19979TIP3    H181352   2.526   3.554  13.131 -0.6842 -0.5558  0.9920
19979TIP3    H281353   2.530   3.705  13.126 -1.1222 -0.5514  0.6775
19980TIP3   OH281354   5.079   6.822   5.511  0.4067  0.3224  0.7506
19980TIP3    H181355   4.988   6.813   5.483  0.4883  2.8881 -0.6458
19980TIP3    H281356   5.075   6.879   5.588  0.8117  0.3539  0.7481
19981TIP3   OH281357   0.176   4.717  13.600 -0.2494 -0.1343  0.1677
19981TIP3    H181358   0.119   4.724  13.676 -0.0528 -0.4222  0.3422
19981TIP3    H281359   0.116   4.711  13.525 -0.4531 -0.9962  0.3941
19982LIG     O181360   3.584   4.024  16.356  0.3653  0.0374  0.5370
19982LIG     O281361   3.148   3.991  16.499 -0.0784 -0.1539  0.3421
19982LIG     N181362   3.275   3.802  16.520  0.7828 -0.6087  0.8797
19982LIG     N281363   3.608   3.721  16.414 -0.6950 -0.1466 -0.7477
19982LIG     N381364   3.373   4.007  16.442  0.4874  0.5907  0.3139
19982LIG     N481365   3.436   3.609  16.505  0.0739  0.6529 -0.1478
19982LIG     C181366   3.504   3.809  16.434 -0.6230 -0.2326  0.0578
19982LIG     C281367   3.398   3.744  16.487 -1.2668  0.1349 -0.1541
19982LIG     C381368   3.499   3.950  16.406  0.2471  0.6803 -0.1681
19982LIG     C481369   3.256   3.937  16.487  0.2523 -0.3065  0.0617
19982LIG     C581370   3.561   3.600  16.459  0.5019  0.0356 -0.9092
19982LIG     C681371   3.147   3.731  16.562 -0.3758  0.3025 -0.2372
19982LIG     C781372   3.738   3.745  16.351  0.2944  0.4101 -0.5002
19982LIG     C881373   3.350   4.147  16.403  0.1599 -0.0980  0.3483
19982LIG     H181374   3.613   3.505  16.463 -0.1663 -0.2902  1.3234
19982LIG     H281375   3.062   3.711  16.494 -0.7244  2.3277 -0.4709
19982LIG     H381376   3.110   3.784  16.652 -0.3074  1.3781 -0.8154
19982LIG     H481377   3.175   3.634  16.609 -1.0627 -1.2558 -2.8680
19982LIG     H581378   3.700   3.773  16.250 -2.4624  1.3837  0.6860
19982LIG     H681379   3.809   3.662  16.336  0.8436  0.4608  1.5586
19982LIG     H781380   3.786   3.840  16.385 -0.0205  0.2393  0.4778
19982LIG     H881381   3.261   4.192  16.452  0.2526 -1.0036  1.4046
19982LIG     H981382   3.330   4.151  16.294  3.7428  0.8221 -0.4049
19982LIG    H1081383   3.441   4.210  16.415  0.5165 -0.7642  1.3489
   6.89742   6.89742  16.71267
